 Gaussian 09, Revision D.01,
 Gaussian 09:  ES64L-G09RevD.01 24-Apr-2013

 --------------------
 #p B2PLYPD3/Def2QZVP
 --------------------

 ---
 h2o
 ---
 Symbolic Z-matrix:
 Charge =  0 Multiplicity = 1

                         Standard orientation:
 ---------------------------------------------------------------------
 Center     Atomic      Atomic             Coordinates (Angstroms)
 Number     Number       Type             X           Y           Z
 ---------------------------------------------------------------------
      1          8           0        0.000000    0.115392    0.000000
      2          1           0        0.748527   -0.484137    0.000000
      3          1           0       -0.748527   -0.438995    0.000000
 ---------------------------------------------------------------------

 SCF Done:  E(RB2PLYPD3) =  -76.3348167071     A.U. after   10 cycles
 E2(B2PLYPD3) =    -0.8955247774D-01 E(B2PLYPD3) =    -0.76424369184797D+02

 The electronic state is 1-A'.
 Alpha  occ. eigenvalues --  -19.72904  -1.16335  -0.61926  -0.47617  -0.40081
 Alpha virt. eigenvalues --    0.04677   0.10332   0.27419   0.30378   0.31222
 Alpha virt. eigenvalues --    0.36493   0.44386   0.50403   0.56398   0.62335
 Alpha virt. eigenvalues --    0.65283   0.81478   0.94144   0.95669   1.04742

 Mulliken charges:
               1
     1  O   -0.431749
     2  H    0.222546
     3  H    0.209203
 Sum of Mulliken charges =   0.00000

 Dipole moment (field-independent basis, Debye):
    X=             -0.0140    Y=             -1.9498    Z=              0.0000  Tot=              1.9499
 Quadrupole moment (field-independent basis, Debye-Ang):
   XX=             -4.3621   YY=             -6.3193   ZZ=             -7.5626
   XY=             -0.0737   XZ=              0.0000   YZ=              0.0000

 1\1\GINC-NODE30\SP\RB2PLYPD3-FC\def2QZVP\H2O1\BOITTIER\26-Aug-2020\0\\
 #p B2PLYPD3/Def2QZVP\\h2o\\0,1\O,0,-5.326605,-0.76288,0.922111\H,0,-4.
 368927,-0.718514,0.897378\H,0,-5.609308,0.108646,0.754307\\Version=ES6
 4L-G09RevD.01\State=1-A'\HF=-76.3348167\MP2=-76.4243692\RMSD=4.651e-09
 \PG=CS [SG(H2O1)]\\@

 CHILDREN YOU ARE VERY LITTLE,

 Normal termination of Gaussian 09 at Wed Aug 26 08:34:10 2020.
