 Gaussian 09, Revision D.01,
 Gaussian 09:  ES64L-G09RevD.01 24-Apr-2013

 --------------------
 #p B2PLYPD3/Def2QZVP
 --------------------

 ---
 h2o
 ---
 Symbolic Z-matrix:
 Charge =  0 Multiplicity = 1

                         Standard orientation:
 ---------------------------------------------------------------------
 Center     Atomic      Atomic             Coordinates (Angstroms)
 Number     Number       Type             X           Y           Z
 ---------------------------------------------------------------------
      1          8           0        0.000000    0.125267    0.000000
      2          1           0        0.728285   -0.513468    0.000000
      3          1           0       -0.728285   -0.488670    0.000000
 ---------------------------------------------------------------------

 SCF Done:  E(RB2PLYPD3) =  -76.3337840055     A.U. after   10 cycles
 E2(B2PLYPD3) =    -0.9026947831D-01 E(B2PLYPD3) =    -0.76424053483773D+02

 The electronic state is 1-A'.
 Alpha  occ. eigenvalues --  -19.73400  -1.16044  -0.60030  -0.48596  -0.40097
 Alpha virt. eigenvalues --    0.04381   0.10298   0.27632   0.30395   0.30400
 Alpha virt. eigenvalues --    0.36695   0.43957   0.49330   0.57160   0.60455
 Alpha virt. eigenvalues --    0.65773   0.81311   0.94550   0.95902   1.02674

 Mulliken charges:
               1
     1  O   -0.431983
     2  H    0.219469
     3  H    0.212514
 Sum of Mulliken charges =   0.00000

 Dipole moment (field-independent basis, Debye):
    X=             -0.0093    Y=             -2.0532    Z=              0.0000  Tot=              2.0532
 Quadrupole moment (field-independent basis, Debye-Ang):
   XX=             -4.5955   YY=             -6.1471   ZZ=             -7.5873
   XY=             -0.0371   XZ=              0.0000   YZ=              0.0000

 1\1\GINC-NODE22\SP\RB2PLYPD3-FC\def2QZVP\H2O1\BOITTIER\26-Aug-2020\0\\
 #p B2PLYPD3/Def2QZVP\\h2o\\0,1\O,0,-5.326605,-0.768486,0.927079\H,0,-4
 .368927,-0.627083,0.891879\H,0,-5.609308,0.106909,0.679935\\Version=ES
 64L-G09RevD.01\State=1-A'\HF=-76.333784\MP2=-76.4240535\RMSD=4.865e-09
 \PG=CS [SG(H2O1)]\\@

 BE NOT THE FIRST BY WHOM THE NEW ARE TRIED,

 Normal termination of Gaussian 09 at Wed Aug 26 08:33:37 2020.
