 Gaussian 09, Revision D.01,
 Gaussian 09:  ES64L-G09RevD.01 24-Apr-2013

 --------------------
 #p B2PLYPD3/Def2QZVP
 --------------------

 ---
 h2o
 ---
 Symbolic Z-matrix:
 Charge =  0 Multiplicity = 1

                         Standard orientation:
 ---------------------------------------------------------------------
 Center     Atomic      Atomic             Coordinates (Angstroms)
 Number     Number       Type             X           Y           Z
 ---------------------------------------------------------------------
      1          8           0        0.000000    0.117446    0.000000
      2          1           0        0.761072   -0.465773    0.000000
      3          1           0       -0.761072   -0.473798    0.000000
 ---------------------------------------------------------------------

 SCF Done:  E(RB2PLYPD3) =  -76.3350253015     A.U. after   10 cycles
 E2(B2PLYPD3) =    -0.9007731063D-01 E(B2PLYPD3) =    -0.76425102612154D+02

 The electronic state is 1-A'.
 Alpha  occ. eigenvalues --  -19.73170  -1.15553  -0.61166  -0.47421  -0.39943
 Alpha virt. eigenvalues --    0.04509   0.10183   0.27530   0.30418   0.30942
 Alpha virt. eigenvalues --    0.35786   0.43901   0.50243   0.56222   0.62175
 Alpha virt. eigenvalues --    0.65696   0.81090   0.93756   0.95986   1.03679

 Mulliken charges:
               1
     1  O   -0.445227
     2  H    0.221537
     3  H    0.223690
 Sum of Mulliken charges =   0.00000

 Dipole moment (field-independent basis, Debye):
    X=              0.0025    Y=             -1.9622    Z=              0.0000  Tot=              1.9622
 Quadrupole moment (field-independent basis, Debye-Ang):
   XX=             -4.3299   YY=             -6.3288   ZZ=             -7.5994
   XY=              0.0132   XZ=              0.0000   YZ=              0.0000

 1\1\GINC-NODE13\SP\RB2PLYPD3-FC\def2QZVP\H2O1\BOITTIER\26-Aug-2020\0\\
 #p B2PLYPD3/Def2QZVP\\h2o\\0,1\O,0,-5.326605,-0.764907,0.918608\H,0,-4
 .368927,-0.721803,0.937832\H,0,-5.609308,0.144354,0.769867\\Version=ES
 64L-G09RevD.01\State=1-A'\HF=-76.3350253\MP2=-76.4251026\RMSD=4.044e-0
 9\PG=CS [SG(H2O1)]\\@

 FRICTION IS A DRAG,

 Normal termination of Gaussian 09 at Wed Aug 26 11:01:16 2020.
