 Gaussian 09, Revision D.01,
 Gaussian 09:  ES64L-G09RevD.01 24-Apr-2013

 --------------------
 #p B2PLYPD3/Def2QZVP
 --------------------

 ---
 h2o
 ---
 Symbolic Z-matrix:
 Charge =  0 Multiplicity = 1

                         Standard orientation:
 ---------------------------------------------------------------------
 Center     Atomic      Atomic             Coordinates (Angstroms)
 Number     Number       Type             X           Y           Z
 ---------------------------------------------------------------------
      1          8           0        0.000000    0.115480    0.000000
      2          1           0        0.788372   -0.429212    0.000000
      3          1           0       -0.788372   -0.494625    0.000000
 ---------------------------------------------------------------------

 SCF Done:  E(RB2PLYPD3) =  -76.3329970593     A.U. after   10 cycles
 E2(B2PLYPD3) =    -0.9053161101D-01 E(B2PLYPD3) =    -0.76423528670333D+02

 The electronic state is 1-A'.
 Alpha  occ. eigenvalues --  -19.73290  -1.14636  -0.60949  -0.46649  -0.39735
 Alpha virt. eigenvalues --    0.04349   0.09980   0.27566   0.30468   0.30793
 Alpha virt. eigenvalues --    0.34666   0.43478   0.50693   0.55568   0.62927
 Alpha virt. eigenvalues --    0.66020   0.80388   0.92870   0.96397   1.02880

 Mulliken charges:
               1
     1  O   -0.463277
     2  H    0.223790
     3  H    0.239488
 Sum of Mulliken charges =   0.00000

 Dipole moment (field-independent basis, Debye):
    X=              0.0183    Y=             -1.9268    Z=              0.0000  Tot=              1.9269
 Quadrupole moment (field-independent basis, Debye-Ang):
   XX=             -4.1675   YY=             -6.4208   ZZ=             -7.6418
   XY=              0.1134   XZ=              0.0000   YZ=              0.0000

 1\1\GINC-NODE28\SP\RB2PLYPD3-FC\def2QZVP\H2O1\BOITTIER\26-Aug-2020\0\\
 #p B2PLYPD3/Def2QZVP\\h2o\\0,1\O,0,-5.326605,-0.763776,0.916825\H,0,-4
 .368927,-0.779467,0.945571\H,0,-5.609308,0.183922,0.791501\\Version=ES
 64L-G09RevD.01\State=1-A'\HF=-76.3329971\MP2=-76.4235287\RMSD=4.588e-0
 9\PG=CS [SG(H2O1)]\\@

 PERICLES, SOPHOCLES,

 Normal termination of Gaussian 09 at Wed Aug 26 11:18:00 2020.
