 Gaussian 09, Revision D.01,
 Gaussian 09:  ES64L-G09RevD.01 24-Apr-2013

 --------------------
 #p B2PLYPD3/Def2QZVP
 --------------------

 ---
 h2o
 ---
 Symbolic Z-matrix:
 Charge =  0 Multiplicity = 1

                         Standard orientation:
 ---------------------------------------------------------------------
 Center     Atomic      Atomic             Coordinates (Angstroms)
 Number     Number       Type             X           Y           Z
 ---------------------------------------------------------------------
      1          8           0        0.000000    0.118315    0.000000
      2          1           0        0.765339   -0.458594    0.000000
      3          1           0       -0.765339   -0.487927    0.000000
 ---------------------------------------------------------------------

 SCF Done:  E(RB2PLYPD3) =  -76.3345546863     A.U. after   10 cycles
 E2(B2PLYPD3) =    -0.9028091979D-01 E(B2PLYPD3) =    -0.76424835606130D+02

 The electronic state is 1-A'.
 Alpha  occ. eigenvalues --  -19.73269  -1.15281  -0.60874  -0.47355  -0.39895
 Alpha virt. eigenvalues --    0.04435   0.10127   0.27569   0.30433   0.30790
 Alpha virt. eigenvalues --    0.35542   0.43741   0.50170   0.56156   0.62101
 Alpha virt. eigenvalues --    0.65846   0.80937   0.93554   0.96111   1.03177

 Mulliken charges:
               1
     1  O   -0.449473
     2  H    0.220938
     3  H    0.228536
 Sum of Mulliken charges =   0.00000

 Dipole moment (field-independent basis, Debye):
    X=              0.0091    Y=             -1.9678    Z=              0.0000  Tot=              1.9678
 Quadrupole moment (field-independent basis, Debye-Ang):
   XX=             -4.3210   YY=             -6.3287   ZZ=             -7.6131
   XY=              0.0484   XZ=              0.0000   YZ=              0.0000

 1\1\GINC-NODE14\SP\RB2PLYPD3-FC\def2QZVP\H2O1\BOITTIER\26-Aug-2020\0\\
 #p B2PLYPD3/Def2QZVP\\h2o\\0,1\O,0,-5.326605,-0.765128,0.921009\H,0,-4
 .368927,-0.727457,0.920226\H,0,-5.609308,0.153541,0.749549\\Version=ES
 64L-G09RevD.01\State=1-A'\HF=-76.3345547\MP2=-76.4248356\RMSD=4.158e-0
 9\PG=CS [SG(H2O1)]\\@

 THOSE WHO TRY TO PASS CHEMISTRY OFF AS A NEW SCIENCE

 Normal termination of Gaussian 09 at Wed Aug 26 10:19:42 2020.
