 Gaussian 09, Revision D.01,
 Gaussian 09:  ES64L-G09RevD.01 24-Apr-2013

 --------------------
 #p B2PLYPD3/Def2QZVP
 --------------------

 ---
 h2o
 ---
 Symbolic Z-matrix:
 Charge =  0 Multiplicity = 1

                         Standard orientation:
 ---------------------------------------------------------------------
 Center     Atomic      Atomic             Coordinates (Angstroms)
 Number     Number       Type             X           Y           Z
 ---------------------------------------------------------------------
      1          8           0        0.000000    0.113539    0.000000
      2          1           0        0.766884   -0.460268    0.000000
      3          1           0       -0.766884   -0.448047    0.000000
 ---------------------------------------------------------------------

 SCF Done:  E(RB2PLYPD3) =  -76.3351896165     A.U. after   10 cycles
 E2(B2PLYPD3) =    -0.8978140123D-01 E(B2PLYPD3) =    -0.76424971017682D+02

 The electronic state is 1-A'.
 Alpha  occ. eigenvalues --  -19.72961  -1.15729  -0.61914  -0.47083  -0.39948
 Alpha virt. eigenvalues --    0.04629   0.10210   0.27448   0.30408   0.31303
 Alpha virt. eigenvalues --    0.35711   0.44093   0.50755   0.55968   0.62921
 Alpha virt. eigenvalues --    0.65468   0.81116   0.93755   0.95901   1.04701

 Mulliken charges:
               1
     1  O   -0.444536
     2  H    0.223953
     3  H    0.220583
 Sum of Mulliken charges =   0.00000

 Dipole moment (field-independent basis, Debye):
    X=             -0.0035    Y=             -1.9214    Z=              0.0000  Tot=              1.9214
 Quadrupole moment (field-independent basis, Debye-Ang):
   XX=             -4.2481   YY=             -6.3912   ZZ=             -7.5875
   XY=             -0.0207   XZ=              0.0000   YZ=              0.0000

 1\1\GINC-NODE28\SP\RB2PLYPD3-FC\def2QZVP\H2O1\BOITTIER\26-Aug-2020\0\\
 #p B2PLYPD3/Def2QZVP\\h2o\\0,1\O,0,-5.326605,-0.762345,0.917565\H,0,-4
 .368927,-0.75515,0.93051\H,0,-5.609308,0.136713,0.794018\\Version=ES64
 L-G09RevD.01\State=1-A'\HF=-76.3351896\MP2=-76.424971\RMSD=3.945e-09\P
 G=CS [SG(H2O1)]\\@

 IF IT'S NOT TRUE, IT'S WELL INVENTED -- DANTE

 Normal termination of Gaussian 09 at Wed Aug 26 08:29:47 2020.
