 Gaussian 09, Revision D.01,
 Gaussian 09:  ES64L-G09RevD.01 24-Apr-2013

 --------------------
 #p B2PLYPD3/Def2QZVP
 --------------------

 ---
 h2o
 ---
 Symbolic Z-matrix:
 Charge =  0 Multiplicity = 1

                         Standard orientation:
 ---------------------------------------------------------------------
 Center     Atomic      Atomic             Coordinates (Angstroms)
 Number     Number       Type             X           Y           Z
 ---------------------------------------------------------------------
      1          8           0        0.000000    0.118765    0.000000
      2          1           0        0.747334   -0.484902    0.000000
      3          1           0       -0.747334   -0.465220    0.000000
 ---------------------------------------------------------------------

 SCF Done:  E(RB2PLYPD3) =  -76.3350244335     A.U. after   10 cycles
 E2(B2PLYPD3) =    -0.8990738707D-01 E(B2PLYPD3) =    -0.76424931820566D+02

 The electronic state is 1-A'.
 Alpha  occ. eigenvalues --  -19.73128  -1.15996  -0.61168  -0.47821  -0.40040
 Alpha virt. eigenvalues --    0.04549   0.10276   0.27512   0.30396   0.30917
 Alpha virt. eigenvalues --    0.36349   0.44104   0.50017   0.56551   0.61753
 Alpha virt. eigenvalues --    0.65560   0.81335   0.94121   0.95821   1.03834

 Mulliken charges:
               1
     1  O   -0.436385
     2  H    0.220972
     3  H    0.215413
 Sum of Mulliken charges =   0.00000

 Dipole moment (field-independent basis, Debye):
    X=             -0.0065    Y=             -1.9826    Z=              0.0000  Tot=              1.9826
 Quadrupole moment (field-independent basis, Debye-Ang):
   XX=             -4.4143   YY=             -6.2767   ZZ=             -7.5811
   XY=             -0.0315   XZ=              0.0000   YZ=              0.0000

 1\1\GINC-NODE29\SP\RB2PLYPD3-FC\def2QZVP\H2O1\BOITTIER\26-Aug-2020\0\\
 #p B2PLYPD3/Def2QZVP\\h2o\\0,1\O,0,-5.326605,-0.765623,0.919853\H,0,-4
 .368927,-0.690618,0.932066\H,0,-5.609308,0.124629,0.755302\\Version=ES
 64L-G09RevD.01\State=1-A'\HF=-76.3350244\MP2=-76.4249318\RMSD=4.346e-0
 9\PG=CS [SG(H2O1)]\\@

 THERE'S A SUCKER BORN EVERY MINUTE

 Normal termination of Gaussian 09 at Wed Aug 26 12:21:17 2020.
