 Gaussian 09, Revision D.01,
 Gaussian 09:  ES64L-G09RevD.01 24-Apr-2013

 --------------------
 #p B2PLYPD3/Def2QZVP
 --------------------

 ---
 h2o
 ---
 Symbolic Z-matrix:
 Charge =  0 Multiplicity = 1

                         Standard orientation:
 ---------------------------------------------------------------------
 Center     Atomic      Atomic             Coordinates (Angstroms)
 Number     Number       Type             X           Y           Z
 ---------------------------------------------------------------------
      1          8           0        0.000000    0.115856    0.000000
      2          1           0        0.747137   -0.485896    0.000000
      3          1           0       -0.747137   -0.440952    0.000000
 ---------------------------------------------------------------------

 SCF Done:  E(RB2PLYPD3) =  -76.3348035274     A.U. after   10 cycles
 E2(B2PLYPD3) =    -0.8957208633D-01 E(B2PLYPD3) =    -0.76424375613750D+02

 The electronic state is 1-A'.
 Alpha  occ. eigenvalues --  -19.72922  -1.16343  -0.61849  -0.47675  -0.40086
 Alpha virt. eigenvalues --    0.04667   0.10335   0.27426   0.30378   0.31186
 Alpha virt. eigenvalues --    0.36533   0.44378   0.50341   0.56444   0.62236
 Alpha virt. eigenvalues --    0.65298   0.81485   0.94168   0.95669   1.04658

 Mulliken charges:
               1
     1  O   -0.431356
     2  H    0.222322
     3  H    0.209033
 Sum of Mulliken charges =   0.00000

 Dipole moment (field-independent basis, Debye):
    X=             -0.0141    Y=             -1.9550    Z=              0.0000  Tot=              1.9551
 Quadrupole moment (field-independent basis, Debye-Ang):
   XX=             -4.3750   YY=             -6.3101   ZZ=             -7.5627
   XY=             -0.0730   XZ=              0.0000   YZ=              0.0000

 1\1\GINC-NODE03\SP\RB2PLYPD3-FC\def2QZVP\H2O1\BOITTIER\26-Aug-2020\0\\
 #p B2PLYPD3/Def2QZVP\\h2o\\0,1\O,0,-5.326605,-0.763108,0.922566\H,0,-4
 .368927,-0.713923,0.895132\H,0,-5.609308,0.107694,0.749267\\Version=ES
 64L-G09RevD.01\State=1-A'\HF=-76.3348035\MP2=-76.4243756\RMSD=4.670e-0
 9\PG=CS [SG(H2O1)]\\@

 WHERE THERE IS MUCH DESIRE TO LEARN, THERE OF NECESSITY WILL BE

 Normal termination of Gaussian 09 at Wed Aug 26 10:26:55 2020.
