 Gaussian 09, Revision D.01,
 Gaussian 09:  ES64L-G09RevD.01 24-Apr-2013

 --------------------
 #p B2PLYPD3/Def2QZVP
 --------------------

 ---
 h2o
 ---
 Symbolic Z-matrix:
 Charge =  0 Multiplicity = 1

                         Standard orientation:
 ---------------------------------------------------------------------
 Center     Atomic      Atomic             Coordinates (Angstroms)
 Number     Number       Type             X           Y           Z
 ---------------------------------------------------------------------
      1          8           0        0.000000    0.119082    0.000000
      2          1           0        0.784528   -0.442120    0.000000
      3          1           0       -0.784528   -0.510538    0.000000
 ---------------------------------------------------------------------

 SCF Done:  E(RB2PLYPD3) =  -76.3322354939     A.U. after   10 cycles
 E2(B2PLYPD3) =    -0.9084427956D-01 E(B2PLYPD3) =    -0.76423079773505D+02

 The electronic state is 1-A'.
 Alpha  occ. eigenvalues --  -19.73492  -1.14427  -0.60268  -0.46911  -0.39723
 Alpha virt. eigenvalues --    0.04224   0.09933   0.27649   0.30412   0.30479
 Alpha virt. eigenvalues --    0.34667   0.43295   0.50210   0.55755   0.62274
 Alpha virt. eigenvalues --    0.66246   0.80359   0.92747   0.96464   1.02051

 Mulliken charges:
               1
     1  O   -0.463799
     2  H    0.223963
     3  H    0.239836
 Sum of Mulliken charges =   0.00000

 Dipole moment (field-independent basis, Debye):
    X=              0.0206    Y=             -1.9630    Z=              0.0000  Tot=              1.9631
 Quadrupole moment (field-independent basis, Debye-Ang):
   XX=             -4.2365   YY=             -6.3660   ZZ=             -7.6551
   XY=              0.1157   XZ=              0.0000   YZ=              0.0000

 1\1\GINC-NODE12\SP\RB2PLYPD3-FC\def2QZVP\H2O1\BOITTIER\26-Aug-2020\0\\
 #p B2PLYPD3/Def2QZVP\\h2o\\0,1\O,0,-5.326605,-0.766453,0.909121\H,0,-4
 .368927,-0.748875,1.02303\H,0,-5.609308,0.196172,0.836065\\Version=ES6
 4L-G09RevD.01\State=1-A'\HF=-76.3322355\MP2=-76.4230798\RMSD=4.611e-09
 \PG=CS [SG(H2O1)]\\@

 I FIND THAT THE THREE TRULY GREAT TIMES FOR THINKING THOUGHTS

 Normal termination of Gaussian 09 at Wed Aug 26 08:25:04 2020.
