 Gaussian 09, Revision D.01,
 Gaussian 09:  ES64L-G09RevD.01 24-Apr-2013

 --------------------
 #p B2PLYPD3/Def2QZVP
 --------------------

 ---
 h2o
 ---
 Symbolic Z-matrix:
 Charge =  0 Multiplicity = 1

                         Standard orientation:
 ---------------------------------------------------------------------
 Center     Atomic      Atomic             Coordinates (Angstroms)
 Number     Number       Type             X           Y           Z
 ---------------------------------------------------------------------
      1          8           0        0.000000    0.116786    0.000000
      2          1           0        0.780709   -0.438134    0.000000
      3          1           0       -0.780709   -0.496154    0.000000
 ---------------------------------------------------------------------

 SCF Done:  E(RB2PLYPD3) =  -76.3334831793     A.U. after   10 cycles
 E2(B2PLYPD3) =    -0.9048523169D-01 E(B2PLYPD3) =    -0.76423968410966D+02

 The electronic state is 1-A'.
 Alpha  occ. eigenvalues --  -19.73307  -1.14814  -0.60854  -0.46899  -0.39784
 Alpha virt. eigenvalues --    0.04364   0.10021   0.27578   0.30458   0.30748
 Alpha virt. eigenvalues --    0.34940   0.43542   0.50464   0.55772   0.62593
 Alpha virt. eigenvalues --    0.65987   0.80573   0.93060   0.96314   1.02870

 Mulliken charges:
               1
     1  O   -0.458935
     2  H    0.222363
     3  H    0.236572
 Sum of Mulliken charges =   0.00000

 Dipole moment (field-independent basis, Debye):
    X=              0.0169    Y=             -1.9439    Z=              0.0000  Tot=              1.9440
 Quadrupole moment (field-independent basis, Debye-Ang):
   XX=             -4.2239   YY=             -6.3856   ZZ=             -7.6342
   XY=              0.0988   XZ=              0.0000   YZ=              0.0000

 1\1\GINC-NODE03\SP\RB2PLYPD3-FC\def2QZVP\H2O1\BOITTIER\26-Aug-2020\0\\
 #p B2PLYPD3/Def2QZVP\\h2o\\0,1\O,0,-5.326605,-0.764457,0.918626\H,0,-4
 .368927,-0.760417,0.935323\H,0,-5.609308,0.175776,0.772881\\Version=ES
 64L-G09RevD.01\State=1-A'\HF=-76.3334832\MP2=-76.4239684\RMSD=4.460e-0
 9\PG=CS [SG(H2O1)]\\@

 IN THE LONG RUN, DIGGING FOR TRUTH HAS ALWAYS PROVED NOT ONLY

 Normal termination of Gaussian 09 at Wed Aug 26 11:19:52 2020.
