 Gaussian 09, Revision D.01,
 Gaussian 09:  ES64L-G09RevD.01 24-Apr-2013

 --------------------
 #p B2PLYPD3/Def2QZVP
 --------------------

 ---
 h2o
 ---
 Symbolic Z-matrix:
 Charge =  0 Multiplicity = 1

                         Standard orientation:
 ---------------------------------------------------------------------
 Center     Atomic      Atomic             Coordinates (Angstroms)
 Number     Number       Type             X           Y           Z
 ---------------------------------------------------------------------
      1          8           0        0.000000    0.121505    0.000000
      2          1           0        0.722835   -0.520513    0.000000
      3          1           0       -0.722835   -0.451527    0.000000
 ---------------------------------------------------------------------

 SCF Done:  E(RB2PLYPD3) =  -76.3332643968     A.U. after   10 cycles
 E2(B2PLYPD3) =    -0.8968700376D-01 E(B2PLYPD3) =    -0.76422951400532D+02

 The electronic state is 1-A'.
 Alpha  occ. eigenvalues --  -19.73074  -1.16763  -0.61018  -0.48543  -0.40202
 Alpha virt. eigenvalues --    0.04563   0.10430   0.27481   0.30362   0.30767
 Alpha virt. eigenvalues --    0.37253   0.44477   0.49652   0.57120   0.60977
 Alpha virt. eigenvalues --    0.65330   0.81606   0.94619   0.95615   1.03882

 Mulliken charges:
               1
     1  O   -0.420847
     2  H    0.221036
     3  H    0.199810
 Sum of Mulliken charges =   0.00000

 Dipole moment (field-independent basis, Debye):
    X=             -0.0248    Y=             -2.0215    Z=              0.0000  Tot=              2.0217
 Quadrupole moment (field-independent basis, Debye-Ang):
   XX=             -4.5670   YY=             -6.1764   ZZ=             -7.5527
   XY=             -0.1044   XZ=              0.0000   YZ=              0.0000

 1\1\GINC-NODE40\SP\RB2PLYPD3-FC\def2QZVP\H2O1\BOITTIER\26-Aug-2020\0\\
 #p B2PLYPD3/Def2QZVP\\h2o\\0,1\O,0,-5.326605,-0.766204,0.925941\H,0,-4
 .368927,-0.639713,0.886825\H,0,-5.609308,0.083028,0.702916\\Version=ES
 64L-G09RevD.01\State=1-A'\HF=-76.3332644\MP2=-76.4229514\RMSD=5.543e-0
 9\PG=CS [SG(H2O1)]\\@

 EDUCATION DOESN'T COST

 Normal termination of Gaussian 09 at Wed Aug 26 08:34:15 2020.
