 Gaussian 09, Revision D.01,
 Gaussian 09:  ES64L-G09RevD.01 24-Apr-2013

 --------------------
 #p B2PLYPD3/Def2QZVP
 --------------------

 ---
 h2o
 ---
 Symbolic Z-matrix:
 Charge =  0 Multiplicity = 1

                         Standard orientation:
 ---------------------------------------------------------------------
 Center     Atomic      Atomic             Coordinates (Angstroms)
 Number     Number       Type             X           Y           Z
 ---------------------------------------------------------------------
      1          8           0        0.000000    0.117344    0.000000
      2          1           0        0.748485   -0.493637    0.000000
      3          1           0       -0.748485   -0.445116    0.000000
 ---------------------------------------------------------------------

 SCF Done:  E(RB2PLYPD3) =  -76.3347505393     A.U. after   10 cycles
 E2(B2PLYPD3) =    -0.8977370282D-01 E(B2PLYPD3) =    -0.76424524242100D+02

 The electronic state is 1-A'.
 Alpha  occ. eigenvalues --  -19.73038  -1.16115  -0.61472  -0.47713  -0.40051
 Alpha virt. eigenvalues --    0.04593   0.10295   0.27473   0.30390   0.31014
 Alpha virt. eigenvalues --    0.36385   0.44220   0.50182   0.56464   0.62014
 Alpha virt. eigenvalues --    0.65449   0.81377   0.94064   0.95782   1.04104

 Mulliken charges:
               1
     1  O   -0.434782
     2  H    0.224355
     3  H    0.210427
 Sum of Mulliken charges =   0.00000

 Dipole moment (field-independent basis, Debye):
    X=             -0.0155    Y=             -1.9683    Z=              0.0000  Tot=              1.9684
 Quadrupole moment (field-independent basis, Debye-Ang):
   XX=             -4.3890   YY=             -6.2955   ZZ=             -7.5747
   XY=             -0.0784   XZ=              0.0000   YZ=              0.0000

 1\1\GINC-NODE35\SP\RB2PLYPD3-FC\def2QZVP\H2O1\BOITTIER\26-Aug-2020\0\\
 #p B2PLYPD3/Def2QZVP\\h2o\\0,1\O,0,-5.326605,-0.761156,0.932161\H,0,-4
 .368927,-0.734023,0.807083\H,0,-5.609308,0.096562,0.685199\\Version=ES
 64L-G09RevD.01\State=1-A'\HF=-76.3347505\MP2=-76.4245242\RMSD=4.684e-0
 9\PG=CS [SG(H2O1)]\\@

 THE WHOLE OF SCIENCE IS NOTHING MORE THAN A REFINEMENT OF EVERYDAY THINKING.

 Normal termination of Gaussian 09 at Wed Aug 26 07:33:11 2020.
