 Gaussian 09, Revision D.01,
 Gaussian 09:  ES64L-G09RevD.01 24-Apr-2013

 --------------------
 #p B2PLYPD3/Def2QZVP
 --------------------

 ---
 h2o
 ---
 Symbolic Z-matrix:
 Charge =  0 Multiplicity = 1

                         Standard orientation:
 ---------------------------------------------------------------------
 Center     Atomic      Atomic             Coordinates (Angstroms)
 Number     Number       Type             X           Y           Z
 ---------------------------------------------------------------------
      1          8           0        0.000000    0.115449    0.000000
      2          1           0        0.770470   -0.453461    0.000000
      3          1           0       -0.770470   -0.470132    0.000000
 ---------------------------------------------------------------------

 SCF Done:  E(RB2PLYPD3) =  -76.3349015620     A.U. after   10 cycles
 E2(B2PLYPD3) =    -0.9007838660D-01 E(B2PLYPD3) =    -0.76424979948644D+02

 The electronic state is 1-A'.
 Alpha  occ. eigenvalues --  -19.73125  -1.15372  -0.61396  -0.47093  -0.39890
 Alpha virt. eigenvalues --    0.04521   0.10142   0.27511   0.30428   0.31068
 Alpha virt. eigenvalues --    0.35452   0.43854   0.50546   0.55959   0.62650
 Alpha virt. eigenvalues --    0.65696   0.80936   0.93552   0.96057   1.03906

 Mulliken charges:
               1
     1  O   -0.449944
     2  H    0.222777
     3  H    0.227167
 Sum of Mulliken charges =   0.00000

 Dipole moment (field-independent basis, Debye):
    X=              0.0049    Y=             -1.9377    Z=              0.0000  Tot=              1.9377
 Quadrupole moment (field-independent basis, Debye-Ang):
   XX=             -4.2564   YY=             -6.3775   ZZ=             -7.6059
   XY=              0.0281   XZ=              0.0000   YZ=              0.0000

 1\1\GINC-NODE12\SP\RB2PLYPD3-FC\def2QZVP\H2O1\BOITTIER\26-Aug-2020\0\\
 #p B2PLYPD3/Def2QZVP\\h2o\\0,1\O,0,-5.326605,-0.763282,0.920253\H,0,-4
 .368927,-0.752925,0.915003\H,0,-5.609308,0.149474,0.767005\\Version=ES
 64L-G09RevD.01\State=1-A'\HF=-76.3349016\MP2=-76.4249799\RMSD=3.944e-0
 9\PG=CS [SG(H2O1)]\\@

 THE MOST SERIOUS THREAT TO THE SURVIVAL OF MANKIND IS NOT NOW

 Normal termination of Gaussian 09 at Wed Aug 26 10:21:11 2020.
