 Gaussian 09, Revision D.01,
 Gaussian 09:  ES64L-G09RevD.01 24-Apr-2013

 --------------------
 #p B2PLYPD3/Def2QZVP
 --------------------

 ---
 h2o
 ---
 Symbolic Z-matrix:
 Charge =  0 Multiplicity = 1

                         Standard orientation:
 ---------------------------------------------------------------------
 Center     Atomic      Atomic             Coordinates (Angstroms)
 Number     Number       Type             X           Y           Z
 ---------------------------------------------------------------------
      1          8           0        0.000000    0.116104    0.000000
      2          1           0        0.760652   -0.467065    0.000000
      3          1           0       -0.760652   -0.461768    0.000000
 ---------------------------------------------------------------------

 SCF Done:  E(RB2PLYPD3) =  -76.3351988077     A.U. after   10 cycles
 E2(B2PLYPD3) =    -0.8991479788D-01 E(B2PLYPD3) =    -0.76425113605556D+02

 The electronic state is 1-A'.
 Alpha  occ. eigenvalues --  -19.73075  -1.15719  -0.61481  -0.47365  -0.39966
 Alpha virt. eigenvalues --    0.04570   0.10215   0.27492   0.30409   0.31089
 Alpha virt. eigenvalues --    0.35880   0.44023   0.50397   0.56186   0.62391
 Alpha virt. eigenvalues --    0.65572   0.81165   0.93828   0.95908   1.04136

 Mulliken charges:
               1
     1  O   -0.443072
     2  H    0.222263
     3  H    0.220809
 Sum of Mulliken charges =   0.00000

 Dipole moment (field-independent basis, Debye):
    X=             -0.0016    Y=             -1.9497    Z=              0.0000  Tot=              1.9497
 Quadrupole moment (field-independent basis, Debye-Ang):
   XX=             -4.3135   YY=             -6.3441   ZZ=             -7.5905
   XY=             -0.0088   XZ=              0.0000   YZ=              0.0000

 1\1\GINC-NODE35\SP\RB2PLYPD3-FC\def2QZVP\H2O1\BOITTIER\26-Aug-2020\0\\
 #p B2PLYPD3/Def2QZVP\\h2o\\0,1\O,0,-5.326605,-0.76324,0.922784\H,0,-4.
 368927,-0.736247,0.894482\H,0,-5.609308,0.132138,0.746989\\Version=ES6
 4L-G09RevD.01\State=1-A'\HF=-76.3351988\MP2=-76.4251136\RMSD=4.025e-09
 \PG=CS [SG(H2O1)]\\@

 ORIGINALITY CONSISTS NOT IN SAYING WHAT NO ONE HAS EVER SAID BEFORE,

 Normal termination of Gaussian 09 at Wed Aug 26 09:30:05 2020.
