 Gaussian 09, Revision D.01,
 Gaussian 09:  ES64L-G09RevD.01 24-Apr-2013

 --------------------
 #p B2PLYPD3/Def2QZVP
 --------------------

 ---
 h2o
 ---
 Symbolic Z-matrix:
 Charge =  0 Multiplicity = 1

                         Standard orientation:
 ---------------------------------------------------------------------
 Center     Atomic      Atomic             Coordinates (Angstroms)
 Number     Number       Type             X           Y           Z
 ---------------------------------------------------------------------
      1          8           0        0.000000    0.121184    0.000000
      2          1           0        0.737209   -0.498994    0.000000
      3          1           0       -0.737209   -0.470475    0.000000
 ---------------------------------------------------------------------

 SCF Done:  E(RB2PLYPD3) =  -76.3346032785     A.U. after   10 cycles
 E2(B2PLYPD3) =    -0.8996330353D-01 E(B2PLYPD3) =    -0.76424566581984D+02

 The electronic state is 1-A'.
 Alpha  occ. eigenvalues --  -19.73198  -1.16153  -0.60814  -0.48186  -0.40088
 Alpha virt. eigenvalues --    0.04508   0.10313   0.27541   0.30390   0.30745
 Alpha virt. eigenvalues --    0.36645   0.44126   0.49724   0.56841   0.61217
 Alpha virt. eigenvalues --    0.65585   0.81398   0.94349   0.95796   1.03501

 Mulliken charges:
               1
     1  O   -0.432231
     2  H    0.220202
     3  H    0.212029
 Sum of Mulliken charges =   0.00000

 Dipole moment (field-independent basis, Debye):
    X=             -0.0099    Y=             -2.0108    Z=              0.0000  Tot=              2.0109
 Quadrupole moment (field-independent basis, Debye-Ang):
   XX=             -4.4960   YY=             -6.2205   ZZ=             -7.5772
   XY=             -0.0443   XZ=              0.0000   YZ=              0.0000

 1\1\GINC-NODE05\SP\RB2PLYPD3-FC\def2QZVP\H2O1\BOITTIER\26-Aug-2020\0\\
 #p B2PLYPD3/Def2QZVP\\h2o\\0,1\O,0,-5.326605,-0.766204,0.925118\H,0,-4
 .368927,-0.666401,0.893656\H,0,-5.609308,0.109714,0.709749\\Version=ES
 64L-G09RevD.01\State=1-A'\HF=-76.3346033\MP2=-76.4245666\RMSD=4.655e-0
 9\PG=CS [SG(H2O1)]\\@

 IT IS NOT EASY TO DESCRIBE

 Normal termination of Gaussian 09 at Wed Aug 26 12:34:26 2020.
