 Gaussian 09, Revision D.01,
 Gaussian 09:  ES64L-G09RevD.01 24-Apr-2013

 --------------------
 #p B2PLYPD3/Def2QZVP
 --------------------

 ---
 h2o
 ---
 Symbolic Z-matrix:
 Charge =  0 Multiplicity = 1

                         Standard orientation:
 ---------------------------------------------------------------------
 Center     Atomic      Atomic             Coordinates (Angstroms)
 Number     Number       Type             X           Y           Z
 ---------------------------------------------------------------------
      1          8           0        0.000000    0.126157    0.000000
      2          1           0        0.723321   -0.521741    0.000000
      3          1           0       -0.723321   -0.487514    0.000000
 ---------------------------------------------------------------------

 SCF Done:  E(RB2PLYPD3) =  -76.3333919432     A.U. after   10 cycles
 E2(B2PLYPD3) =    -0.9027473189D-01 E(B2PLYPD3) =    -0.76423666675089D+02

 The electronic state is 1-A'.
 Alpha  occ. eigenvalues --  -19.73416  -1.16149  -0.59909  -0.48758  -0.40123
 Alpha virt. eigenvalues --    0.04367   0.10321   0.27638   0.30343   0.30391
 Alpha virt. eigenvalues --    0.36822   0.43992   0.49254   0.57288   0.60254
 Alpha virt. eigenvalues --    0.65751   0.81332   0.94674   0.95878   1.02629

 Mulliken charges:
               1
     1  O   -0.429706
     2  H    0.219705
     3  H    0.210001
 Sum of Mulliken charges =   0.00000

 Dipole moment (field-independent basis, Debye):
    X=             -0.0131    Y=             -2.0639    Z=              0.0000  Tot=              2.0640
 Quadrupole moment (field-independent basis, Debye-Ang):
   XX=             -4.6312   YY=             -6.1229   ZZ=             -7.5843
   XY=             -0.0505   XZ=              0.0000   YZ=              0.0000

 1\1\GINC-NODE32\SP\RB2PLYPD3-FC\def2QZVP\H2O1\BOITTIER\26-Aug-2020\0\\
 #p B2PLYPD3/Def2QZVP\\h2o\\0,1\O,0,-5.326605,-0.768358,0.929553\H,0,-4
 .368927,-0.618583,0.871363\H,0,-5.609308,0.096361,0.660991\\Version=ES
 64L-G09RevD.01\State=1-A'\HF=-76.3333919\MP2=-76.4236667\RMSD=5.059e-0
 9\PG=CS [SG(H2O1)]\\@

 ONE THORN OF EXPERIENCE IS WORTH A WHOLE WILDERNESS OF

 Normal termination of Gaussian 09 at Wed Aug 26 09:00:58 2020.
