 Gaussian 09, Revision D.01,
 Gaussian 09:  ES64L-G09RevD.01 24-Apr-2013

 --------------------
 #p B2PLYPD3/Def2QZVP
 --------------------

 ---
 h2o
 ---
 Symbolic Z-matrix:
 Charge =  0 Multiplicity = 1

                         Standard orientation:
 ---------------------------------------------------------------------
 Center     Atomic      Atomic             Coordinates (Angstroms)
 Number     Number       Type             X           Y           Z
 ---------------------------------------------------------------------
      1          8           0        0.000000    0.114906    0.000000
      2          1           0        0.786637   -0.431963    0.000000
      3          1           0       -0.786637   -0.487283    0.000000
 ---------------------------------------------------------------------

 SCF Done:  E(RB2PLYPD3) =  -76.3334770578     A.U. after   10 cycles
 E2(B2PLYPD3) =    -0.9042234349D-01 E(B2PLYPD3) =    -0.76423899401258D+02

 The electronic state is 1-A'.
 Alpha  occ. eigenvalues --  -19.73237  -1.14761  -0.61117  -0.46667  -0.39757
 Alpha virt. eigenvalues --    0.04395   0.10008   0.27548   0.30461   0.30908
 Alpha virt. eigenvalues --    0.34755   0.43552   0.50750   0.55592   0.62993
 Alpha virt. eigenvalues --    0.65944   0.80470   0.92999   0.96341   1.03187

 Mulliken charges:
               1
     1  O   -0.461533
     2  H    0.224014
     3  H    0.237519
 Sum of Mulliken charges =   0.00000

 Dipole moment (field-independent basis, Debye):
    X=              0.0154    Y=             -1.9225    Z=              0.0000  Tot=              1.9225
 Quadrupole moment (field-independent basis, Debye-Ang):
   XX=             -4.1684   YY=             -6.4243   ZZ=             -7.6350
   XY=              0.0959   XZ=              0.0000   YZ=              0.0000

 1\1\GINC-NODE12\SP\RB2PLYPD3-FC\def2QZVP\H2O1\BOITTIER\26-Aug-2020\0\\
 #p B2PLYPD3/Def2QZVP\\h2o\\0,1\O,0,-5.326605,-0.763314,0.917424\H,0,-4
 .368927,-0.780443,0.937957\H,0,-5.609308,0.177514,0.789557\\Version=ES
 64L-G09RevD.01\State=1-A'\HF=-76.3334771\MP2=-76.4238994\RMSD=4.376e-0
 9\PG=CS [SG(H2O1)]\\@

 ... THIS SEEMS PLAINLY ABSURD; BUT WHOEVER WISHES TO BECOME A

 Normal termination of Gaussian 09 at Wed Aug 26 11:35:44 2020.
