 Gaussian 09, Revision D.01,
 Gaussian 09:  ES64L-G09RevD.01 24-Apr-2013

 --------------------
 #p B2PLYPD3/Def2QZVP
 --------------------

 ---
 h2o
 ---
 Symbolic Z-matrix:
 Charge =  0 Multiplicity = 1

                         Standard orientation:
 ---------------------------------------------------------------------
 Center     Atomic      Atomic             Coordinates (Angstroms)
 Number     Number       Type             X           Y           Z
 ---------------------------------------------------------------------
      1          8           0        0.000000    0.111207    0.000000
      2          1           0        0.733609   -0.506109    0.000000
      3          1           0       -0.733609   -0.383547    0.000000
 ---------------------------------------------------------------------

 SCF Done:  E(RB2PLYPD3) =  -76.3301285460     A.U. after   10 cycles
 E2(B2PLYPD3) =    -0.8877967577D-01 E(B2PLYPD3) =    -0.76418908221800D+02

 The electronic state is 1-A'.
 Alpha  occ. eigenvalues --  -19.72443  -1.17542  -0.63267  -0.47702  -0.40275
 Alpha virt. eigenvalues --    0.04893   0.10518   0.27214   0.30315   0.31526
 Alpha virt. eigenvalues --    0.37326   0.45231   0.50825   0.56457   0.62871
 Alpha virt. eigenvalues --    0.64643   0.81945   0.94214   0.95386   1.05630

 Mulliken charges:
               1
     1  O   -0.407711
     2  H    0.224725
     3  H    0.182986
 Sum of Mulliken charges =   0.00000

 Dipole moment (field-independent basis, Debye):
    X=             -0.0368    Y=             -1.9166    Z=              0.0000  Tot=              1.9169
 Quadrupole moment (field-independent basis, Debye-Ang):
   XX=             -4.3754   YY=             -6.3191   ZZ=             -7.5087
   XY=             -0.1999   XZ=              0.0000   YZ=              0.0000

 1\1\GINC-NODE10\SP\RB2PLYPD3-FC\def2QZVP\H2O1\BOITTIER\26-Aug-2020\0\\
 #p B2PLYPD3/Def2QZVP\\h2o\\0,1\O,0,-5.326605,-0.760453,0.919298\H,0,-4
 .368927,-0.716905,0.90454\H,0,-5.609308,0.068195,0.791294\\Version=ES6
 4L-G09RevD.01\State=1-A'\HF=-76.3301285\MP2=-76.4189082\RMSD=6.578e-09
 \PG=CS [SG(H2O1)]\\@

 SOME THINGS ARE EASY, THEY ARE ONLY HARD TO DO.

 Normal termination of Gaussian 09 at Wed Aug 26 09:11:53 2020.
