 Gaussian 09, Revision D.01,
 Gaussian 09:  ES64L-G09RevD.01 24-Apr-2013

 --------------------
 #p B2PLYPD3/Def2QZVP
 --------------------

 ---
 h2o
 ---
 Symbolic Z-matrix:
 Charge =  0 Multiplicity = 1

                         Standard orientation:
 ---------------------------------------------------------------------
 Center     Atomic      Atomic             Coordinates (Angstroms)
 Number     Number       Type             X           Y           Z
 ---------------------------------------------------------------------
      1          8           0        0.000000    0.115788    0.000000
      2          1           0        0.746845   -0.486229    0.000000
      3          1           0       -0.746845   -0.440078    0.000000
 ---------------------------------------------------------------------

 SCF Done:  E(RB2PLYPD3) =  -76.3347719421     A.U. after   10 cycles
 E2(B2PLYPD3) =    -0.8955788539D-01 E(B2PLYPD3) =    -0.76424329827517D+02

 The electronic state is 1-A'.
 Alpha  occ. eigenvalues --  -19.72915  -1.16365  -0.61871  -0.47678  -0.40090
 Alpha virt. eigenvalues --    0.04672   0.10339   0.27423   0.30377   0.31193
 Alpha virt. eigenvalues --    0.36550   0.44392   0.50347   0.56446   0.62243
 Alpha virt. eigenvalues --    0.65286   0.81494   0.94175   0.95661   1.04685

 Mulliken charges:
               1
     1  O   -0.430980
     2  H    0.222331
     3  H    0.208650
 Sum of Mulliken charges =   0.00000

 Dipole moment (field-independent basis, Debye):
    X=             -0.0145    Y=             -1.9546    Z=              0.0000  Tot=              1.9546
 Quadrupole moment (field-independent basis, Debye-Ang):
   XX=             -4.3755   YY=             -6.3100   ZZ=             -7.5618
   XY=             -0.0750   XZ=              0.0000   YZ=              0.0000

 1\1\GINC-NODE09\SP\RB2PLYPD3-FC\def2QZVP\H2O1\BOITTIER\26-Aug-2020\0\\
 #p B2PLYPD3/Def2QZVP\\h2o\\0,1\O,0,-5.326605,-0.763153,0.922131\H,0,-4
 .368927,-0.713016,0.898852\H,0,-5.609308,0.107506,0.752435\\Version=ES
 64L-G09RevD.01\State=1-A'\HF=-76.3347719\MP2=-76.4243298\RMSD=4.698e-0
 9\PG=CS [SG(H2O1)]\\@

 MORNING PEOPLE ARE USUALLY ADMIRED AS EARLY BIRDS.

 Normal termination of Gaussian 09 at Wed Aug 26 11:09:47 2020.
