 Gaussian 09, Revision D.01,
 Gaussian 09:  ES64L-G09RevD.01 24-Apr-2013

 --------------------
 #p B2PLYPD3/Def2QZVP
 --------------------

 ---
 h2o
 ---
 Symbolic Z-matrix:
 Charge =  0 Multiplicity = 1

                         Standard orientation:
 ---------------------------------------------------------------------
 Center     Atomic      Atomic             Coordinates (Angstroms)
 Number     Number       Type             X           Y           Z
 ---------------------------------------------------------------------
      1          8           0        0.000000    0.120847    0.000000
      2          1           0        0.755020   -0.472755    0.000000
      3          1           0       -0.755020   -0.494021    0.000000
 ---------------------------------------------------------------------

 SCF Done:  E(RB2PLYPD3) =  -76.3345008359     A.U. after   10 cycles
 E2(B2PLYPD3) =    -0.9033343751D-01 E(B2PLYPD3) =    -0.76424834273452D+02

 The electronic state is 1-A'.
 Alpha  occ. eigenvalues --  -19.73345  -1.15432  -0.60529  -0.47729  -0.39945
 Alpha virt. eigenvalues --    0.04403   0.10163   0.27603   0.30425   0.30621
 Alpha virt. eigenvalues --    0.35856   0.43755   0.49832   0.56455   0.61536
 Alpha virt. eigenvalues --    0.65881   0.81055   0.93795   0.96073   1.02848

 Mulliken charges:
               1
     1  O   -0.445081
     2  H    0.219748
     3  H    0.225333
 Sum of Mulliken charges =   0.00000

 Dipole moment (field-independent basis, Debye):
    X=              0.0071    Y=             -1.9974    Z=              0.0000  Tot=              1.9974
 Quadrupole moment (field-independent basis, Debye-Ang):
   XX=             -4.4064   YY=             -6.2711   ZZ=             -7.6088
   XY=              0.0340   XZ=              0.0000   YZ=              0.0000

 1\1\GINC-NODE04\SP\RB2PLYPD3-FC\def2QZVP\H2O1\BOITTIER\26-Aug-2020\0\\
 #p B2PLYPD3/Def2QZVP\\h2o\\0,1\O,0,-5.326605,-0.765965,0.925187\H,0,-4
 .368927,-0.701384,0.892004\H,0,-5.609308,0.140864,0.711041\\Version=ES
 64L-G09RevD.01\State=1-A'\HF=-76.3345008\MP2=-76.4248343\RMSD=4.260e-0
 9\PG=CS [SG(H2O1)]\\@

 HO!  SUCH BUGS AND GOBLINS IN MY LIFE!

 Normal termination of Gaussian 09 at Wed Aug 26 12:21:32 2020.
