 Gaussian 09, Revision D.01,
 Gaussian 09:  ES64L-G09RevD.01 24-Apr-2013

 --------------------
 #p B2PLYPD3/Def2QZVP
 --------------------

 ---
 h2o
 ---
 Symbolic Z-matrix:
 Charge =  0 Multiplicity = 1

                         Standard orientation:
 ---------------------------------------------------------------------
 Center     Atomic      Atomic             Coordinates (Angstroms)
 Number     Number       Type             X           Y           Z
 ---------------------------------------------------------------------
      1          8           0        0.000000    0.111404    0.000000
      2          1           0        0.772488   -0.459196    0.000000
      3          1           0       -0.772488   -0.432038    0.000000
 ---------------------------------------------------------------------

 SCF Done:  E(RB2PLYPD3) =  -76.3349698879     A.U. after   10 cycles
 E2(B2PLYPD3) =    -0.8969132040D-01 E(B2PLYPD3) =    -0.76424661208348D+02

 The electronic state is 1-A'.
 Alpha  occ. eigenvalues --  -19.72872  -1.15714  -0.62255  -0.46835  -0.39928
 Alpha virt. eigenvalues --    0.04670   0.10201   0.27415   0.30407   0.31467
 Alpha virt. eigenvalues --    0.35535   0.44141   0.51078   0.55774   0.63379
 Alpha virt. eigenvalues --    0.65396   0.81037   0.93684   0.95927   1.05082

 Mulliken charges:
               1
     1  O   -0.446200
     2  H    0.226845
     3  H    0.219355
 Sum of Mulliken charges =   0.00000

 Dipole moment (field-independent basis, Debye):
    X=             -0.0074    Y=             -1.8973    Z=              0.0000  Tot=              1.8973
 Quadrupole moment (field-independent basis, Debye-Ang):
   XX=             -4.1918   YY=             -6.4310   ZZ=             -7.5864
   XY=             -0.0469   XZ=              0.0000   YZ=              0.0000

 1\1\GINC-NODE01\SP\RB2PLYPD3-FC\def2QZVP\H2O1\BOITTIER\26-Aug-2020\0\\
 #p B2PLYPD3/Def2QZVP\\h2o\\0,1\O,0,-5.326605,-0.761225,0.910349\H,0,-4
 .368927,-0.774819,0.980991\H,0,-5.609308,0.13846,0.858261\\Version=ES6
 4L-G09RevD.01\State=1-A'\HF=-76.3349699\MP2=-76.4246612\RMSD=4.031e-09
 \PG=CS [SG(H2O1)]\\@

 WE ARE REACHING THE STAGE WHERE THE PROBLEMS WE MUST SOLVE ARE

 Normal termination of Gaussian 09 at Wed Aug 26 09:21:42 2020.
