 Gaussian 09, Revision D.01,
 Gaussian 09:  ES64L-G09RevD.01 24-Apr-2013

 --------------------
 #p B2PLYPD3/Def2QZVP
 --------------------

 ---
 h2o
 ---
 Symbolic Z-matrix:
 Charge =  0 Multiplicity = 1

                         Standard orientation:
 ---------------------------------------------------------------------
 Center     Atomic      Atomic             Coordinates (Angstroms)
 Number     Number       Type             X           Y           Z
 ---------------------------------------------------------------------
      1          8           0        0.000000    0.115247    0.000000
      2          1           0        0.774032   -0.448741    0.000000
      3          1           0       -0.774032   -0.473236    0.000000
 ---------------------------------------------------------------------

 SCF Done:  E(RB2PLYPD3) =  -76.3346981479     A.U. after   10 cycles
 E2(B2PLYPD3) =    -0.9014342152D-01 E(B2PLYPD3) =    -0.76424841569384D+02

 The electronic state is 1-A'.
 Alpha  occ. eigenvalues --  -19.73145  -1.15244  -0.61355  -0.46996  -0.39862
 Alpha virt. eigenvalues --    0.04499   0.10114   0.27519   0.30434   0.31051
 Alpha virt. eigenvalues --    0.35297   0.43792   0.50599   0.55877   0.62739
 Alpha virt. eigenvalues --    0.65744   0.80844   0.93443   0.96115   1.03793

 Mulliken charges:
               1
     1  O   -0.452451
     2  H    0.223051
     3  H    0.229400
 Sum of Mulliken charges =   0.00000

 Dipole moment (field-independent basis, Debye):
    X=              0.0071    Y=             -1.9336    Z=              0.0000  Tot=              1.9336
 Quadrupole moment (field-independent basis, Debye-Ang):
   XX=             -4.2361   YY=             -6.3891   ZZ=             -7.6118
   XY=              0.0416   XZ=              0.0000   YZ=              0.0000

 1\1\GINC-NODE02\SP\RB2PLYPD3-FC\def2QZVP\H2O1\BOITTIER\26-Aug-2020\0\\
 #p B2PLYPD3/Def2QZVP\\h2o\\0,1\O,0,-5.326605,-0.763339,0.919016\H,0,-4
 .368927,-0.758557,0.925229\H,0,-5.609308,0.156017,0.776531\\Version=ES
 64L-G09RevD.01\State=1-A'\HF=-76.3346981\MP2=-76.4248416\RMSD=3.976e-0
 9\PG=CS [SG(H2O1)]\\@

 ADAM SMITH SAID, "THE REAL PRICE OF ANYTHING IS THE TOIL AND TROUBLE

 Normal termination of Gaussian 09 at Wed Aug 26 09:59:37 2020.
