 Gaussian 09, Revision D.01,
 Gaussian 09:  ES64L-G09RevD.01 24-Apr-2013

 --------------------
 #p B2PLYPD3/Def2QZVP
 --------------------

 ---
 h2o
 ---
 Symbolic Z-matrix:
 Charge =  0 Multiplicity = 1

                         Standard orientation:
 ---------------------------------------------------------------------
 Center     Atomic      Atomic             Coordinates (Angstroms)
 Number     Number       Type             X           Y           Z
 ---------------------------------------------------------------------
      1          8           0        0.000000    0.123784    0.000000
      2          1           0        0.757043   -0.469628    0.000000
      3          1           0       -0.757043   -0.520645    0.000000
 ---------------------------------------------------------------------

 SCF Done:  E(RB2PLYPD3) =  -76.3331041274     A.U. after   10 cycles
 E2(B2PLYPD3) =    -0.9074273841D-01 E(B2PLYPD3) =    -0.76423846865828D+02

 The electronic state is 1-A'.
 Alpha  occ. eigenvalues --  -19.73561  -1.15026  -0.59832  -0.47800  -0.39887
 Alpha virt. eigenvalues --    0.04244   0.10073   0.27694   0.30222   0.30445
 Alpha virt. eigenvalues --    0.35566   0.43492   0.49535   0.56483   0.61118
 Alpha virt. eigenvalues --    0.66162   0.80841   0.93513   0.96290   1.01844

 Mulliken charges:
               1
     1  O   -0.449771
     2  H    0.218566
     3  H    0.231205
 Sum of Mulliken charges =   0.00000

 Dipole moment (field-independent basis, Debye):
    X=              0.0176    Y=             -2.0228    Z=              0.0000  Tot=              2.0229
 Quadrupole moment (field-independent basis, Debye-Ang):
   XX=             -4.4379   YY=             -6.2381   ZZ=             -7.6311
   XY=              0.0806   XZ=              0.0000   YZ=              0.0000

 1\1\GINC-NODE25\SP\RB2PLYPD3-FC\def2QZVP\H2O1\BOITTIER\26-Aug-2020\0\\
 #p B2PLYPD3/Def2QZVP\\h2o\\0,1\O,0,-5.326605,-0.767148,0.92825\H,0,-4.
 368927,-0.694556,0.875005\H,0,-5.609308,0.152965,0.679507\\Version=ES6
 4L-G09RevD.01\State=1-A'\HF=-76.3331041\MP2=-76.4238469\RMSD=4.576e-09
 \PG=CS [SG(H2O1)]\\@

 EVERYTHING'S GOT A MORAL, IF ONLY YOU CAN FIND IT.

 Normal termination of Gaussian 09 at Wed Aug 26 09:07:46 2020.
