 Gaussian 09, Revision D.01,
 Gaussian 09:  ES64L-G09RevD.01 24-Apr-2013

 --------------------
 #p B2PLYPD3/Def2QZVP
 --------------------

 ---
 h2o
 ---
 Symbolic Z-matrix:
 Charge =  0 Multiplicity = 1

                         Standard orientation:
 ---------------------------------------------------------------------
 Center     Atomic      Atomic             Coordinates (Angstroms)
 Number     Number       Type             X           Y           Z
 ---------------------------------------------------------------------
      1          8           0        0.000000    0.117116    0.000000
      2          1           0        0.740629   -0.499086    0.000000
      3          1           0       -0.740629   -0.437842    0.000000
 ---------------------------------------------------------------------

 SCF Done:  E(RB2PLYPD3) =  -76.3342965665     A.U. after   10 cycles
 E2(B2PLYPD3) =    -0.8956809423D-01 E(B2PLYPD3) =    -0.76423864660698D+02

 The electronic state is 1-A'.
 Alpha  occ. eigenvalues --  -19.72943  -1.16493  -0.61697  -0.47890  -0.40122
 Alpha virt. eigenvalues --    0.04649   0.10366   0.27430   0.30371   0.31078
 Alpha virt. eigenvalues --    0.36761   0.44440   0.50165   0.56610   0.61938
 Alpha virt. eigenvalues --    0.65282   0.81548   0.94251   0.95646   1.04435

 Mulliken charges:
               1
     1  O   -0.427749
     2  H    0.223069
     3  H    0.204680
 Sum of Mulliken charges =   0.00000

 Dipole moment (field-independent basis, Debye):
    X=             -0.0199    Y=             -1.9706    Z=              0.0000  Tot=              1.9707
 Quadrupole moment (field-independent basis, Debye-Ang):
   XX=             -4.4231   YY=             -6.2766   ZZ=             -7.5581
   XY=             -0.0978   XZ=              0.0000   YZ=              0.0000

 1\1\GINC-NODE02\SP\RB2PLYPD3-FC\def2QZVP\H2O1\BOITTIER\26-Aug-2020\0\\
 #p B2PLYPD3/Def2QZVP\\h2o\\0,1\O,0,-5.326605,-0.762141,0.92914\H,0,-4.
 368927,-0.711284,0.836929\H,0,-5.609308,0.089578,0.702948\\Version=ES6
 4L-G09RevD.01\State=1-A'\HF=-76.3342966\MP2=-76.4238647\RMSD=5.084e-09
 \PG=CS [SG(H2O1)]\\@

 SOME THINGS ARE EASY, THEY ARE ONLY HARD TO DO.

 Normal termination of Gaussian 09 at Wed Aug 26 09:18:20 2020.
