 Gaussian 09, Revision D.01,
 Gaussian 09:  ES64L-G09RevD.01 24-Apr-2013

 --------------------
 #p B2PLYPD3/Def2QZVP
 --------------------

 ---
 h2o
 ---
 Symbolic Z-matrix:
 Charge =  0 Multiplicity = 1

                         Standard orientation:
 ---------------------------------------------------------------------
 Center     Atomic      Atomic             Coordinates (Angstroms)
 Number     Number       Type             X           Y           Z
 ---------------------------------------------------------------------
      1          8           0        0.000000    0.118617    0.000000
      2          1           0        0.734179   -0.509007    0.000000
      3          1           0       -0.734179   -0.439926    0.000000
 ---------------------------------------------------------------------

 SCF Done:  E(RB2PLYPD3) =  -76.3338569907     A.U. after   10 cycles
 E2(B2PLYPD3) =    -0.8959655815D-01 E(B2PLYPD3) =    -0.76423453548893D+02

 The electronic state is 1-A'.
 Alpha  occ. eigenvalues --  -19.72982  -1.16608  -0.61480  -0.48119  -0.40153
 Alpha virt. eigenvalues --    0.04621   0.10392   0.27444   0.30367   0.30961
 Alpha virt. eigenvalues --    0.36959   0.44471   0.49974   0.56787   0.61603
 Alpha virt. eigenvalues --    0.65290   0.81585   0.94354   0.95634   1.04212

 Mulliken charges:
               1
     1  O   -0.424841
     2  H    0.222905
     3  H    0.201936
 Sum of Mulliken charges =   0.00000

 Dipole moment (field-independent basis, Debye):
    X=             -0.0233    Y=             -1.9883    Z=              0.0000  Tot=              1.9884
 Quadrupole moment (field-independent basis, Debye-Ang):
   XX=             -4.4740   YY=             -6.2410   ZZ=             -7.5554
   XY=             -0.1083   XZ=              0.0000   YZ=              0.0000

 1\1\GINC-NODE32\SP\RB2PLYPD3-FC\def2QZVP\H2O1\BOITTIER\26-Aug-2020\0\\
 #p B2PLYPD3/Def2QZVP\\h2o\\0,1\O,0,-5.326605,-0.762536,0.931001\H,0,-4
 .368927,-0.695963,0.824457\H,0,-5.609308,0.080586,0.685616\\Version=ES
 64L-G09RevD.01\State=1-A'\HF=-76.333857\MP2=-76.4234535\RMSD=5.336e-09
 \PG=CS [SG(H2O1)]\\@

 A COMPUTER IS LIKE A HORSE, IT WILL SENSE WEAKNESS.

 Normal termination of Gaussian 09 at Wed Aug 26 08:58:02 2020.
