 Gaussian 09, Revision D.01,
 Gaussian 09:  ES64L-G09RevD.01 24-Apr-2013

 --------------------
 #p B2PLYPD3/Def2QZVP
 --------------------

 ---
 h2o
 ---
 Symbolic Z-matrix:
 Charge =  0 Multiplicity = 1

                         Standard orientation:
 ---------------------------------------------------------------------
 Center     Atomic      Atomic             Coordinates (Angstroms)
 Number     Number       Type             X           Y           Z
 ---------------------------------------------------------------------
      1          8           0        0.000000    0.119713    0.000000
      2          1           0        0.811101   -0.396122    0.000000
      3          1           0       -0.811101   -0.561582    0.000000
 ---------------------------------------------------------------------

 SCF Done:  E(RB2PLYPD3) =  -76.3251724652     A.U. after   10 cycles
 E2(B2PLYPD3) =    -0.9163776466D-01 E(B2PLYPD3) =    -0.76416810229866D+02

 The electronic state is 1-A'.
 Alpha  occ. eigenvalues --  -19.73739  -1.13397  -0.59508  -0.46215  -0.39492
 Alpha virt. eigenvalues --    0.03814   0.09666   0.27671   0.29417   0.30537
 Alpha virt. eigenvalues --    0.33881   0.42832   0.50375   0.55093   0.62651
 Alpha virt. eigenvalues --    0.66694   0.79375   0.91051   0.96868   1.00662

 Mulliken charges:
               1
     1  O   -0.480189
     2  H    0.223514
     3  H    0.256675
 Sum of Mulliken charges =   0.00000

 Dipole moment (field-independent basis, Debye):
    X=              0.0467    Y=             -1.9499    Z=              0.0000  Tot=              1.9505
 Quadrupole moment (field-independent basis, Debye-Ang):
   XX=             -4.1096   YY=             -6.4093   ZZ=             -7.7124
   XY=              0.2901   XZ=              0.0000   YZ=              0.0000

 1\1\GINC-NODE01\SP\RB2PLYPD3-FC\def2QZVP\H2O1\BOITTIER\26-Aug-2020\0\\
 #p B2PLYPD3/Def2QZVP\\h2o\\0,1\O,0,-5.326605,-0.766889,0.91347\H,0,-4.
 368927,-0.793291,0.991747\H,0,-5.609308,0.247567,0.799423\\Version=ES6
 4L-G09RevD.01\State=1-A'\HF=-76.3251725\MP2=-76.4168102\RMSD=6.960e-09
 \PG=CS [SG(H2O1)]\\@

 HOW IS IT THAT THE SKY FEEDS THE STARS?

 Normal termination of Gaussian 09 at Wed Aug 26 08:56:09 2020.
