 Gaussian 09, Revision D.01,
 Gaussian 09:  ES64L-G09RevD.01 24-Apr-2013

 --------------------
 #p B2PLYPD3/Def2QZVP
 --------------------

 ---
 h2o
 ---
 Symbolic Z-matrix:
 Charge =  0 Multiplicity = 1

                         Standard orientation:
 ---------------------------------------------------------------------
 Center     Atomic      Atomic             Coordinates (Angstroms)
 Number     Number       Type             X           Y           Z
 ---------------------------------------------------------------------
      1          8           0        0.000000    0.115307    0.000000
      2          1           0        0.772907   -0.450232    0.000000
      3          1           0       -0.772907   -0.472221    0.000000
 ---------------------------------------------------------------------

 SCF Done:  E(RB2PLYPD3) =  -76.3347684084     A.U. after   10 cycles
 E2(B2PLYPD3) =    -0.9012230574D-01 E(B2PLYPD3) =    -0.76424890714123D+02

 The electronic state is 1-A'.
 Alpha  occ. eigenvalues --  -19.73138  -1.15284  -0.61369  -0.47026  -0.39871
 Alpha virt. eigenvalues --    0.04506   0.10123   0.27516   0.30432   0.31057
 Alpha virt. eigenvalues --    0.35346   0.43812   0.50583   0.55903   0.62712
 Alpha virt. eigenvalues --    0.65728   0.80873   0.93478   0.96096   1.03831

 Mulliken charges:
               1
     1  O   -0.451656
     2  H    0.222964
     3  H    0.228692
 Sum of Mulliken charges =   0.00000

 Dipole moment (field-independent basis, Debye):
    X=              0.0064    Y=             -1.9348    Z=              0.0000  Tot=              1.9348
 Quadrupole moment (field-independent basis, Debye-Ang):
   XX=             -4.2425   YY=             -6.3855   ZZ=             -7.6099
   XY=              0.0373   XZ=              0.0000   YZ=              0.0000

 1\1\GINC-NODE22\SP\RB2PLYPD3-FC\def2QZVP\H2O1\BOITTIER\26-Aug-2020\0\\
 #p B2PLYPD3/Def2QZVP\\h2o\\0,1\O,0,-5.326605,-0.763358,0.919163\H,0,-4
 .368927,-0.756446,0.924165\H,0,-5.609308,0.154213,0.775231\\Version=ES
 64L-G09RevD.01\State=1-A'\HF=-76.3347684\MP2=-76.4248907\RMSD=3.962e-0
 9\PG=CS [SG(H2O1)]\\@

 THE VALUE OF PHILOSOPHY IS, IN FACT, TO BE SOUGHT LARGELY IN ITS

 Normal termination of Gaussian 09 at Wed Aug 26 10:40:08 2020.
