 Gaussian 09, Revision D.01,
 Gaussian 09:  ES64L-G09RevD.01 24-Apr-2013

 --------------------
 #p B2PLYPD3/Def2QZVP
 --------------------

 ---
 h2o
 ---
 Symbolic Z-matrix:
 Charge =  0 Multiplicity = 1

                         Standard orientation:
 ---------------------------------------------------------------------
 Center     Atomic      Atomic             Coordinates (Angstroms)
 Number     Number       Type             X           Y           Z
 ---------------------------------------------------------------------
      1          8           0        0.000000    0.115386    0.000000
      2          1           0        0.734775   -0.503757    0.000000
      3          1           0       -0.734775   -0.419330    0.000000
 ---------------------------------------------------------------------

 SCF Done:  E(RB2PLYPD3) =  -76.3331004244     A.U. after   10 cycles
 E2(B2PLYPD3) =    -0.8924424018D-01 E(B2PLYPD3) =    -0.76422344664550D+02

 The electronic state is 1-A'.
 Alpha  occ. eigenvalues --  -19.72758  -1.16973  -0.62237  -0.47932  -0.40200
 Alpha virt. eigenvalues --    0.04745   0.10446   0.27349   0.30347   0.31240
 Alpha virt. eigenvalues --    0.37119   0.44769   0.50327   0.56645   0.62148
 Alpha virt. eigenvalues --    0.65019   0.81741   0.94338   0.95494   1.04990

 Mulliken charges:
               1
     1  O   -0.418967
     2  H    0.222914
     3  H    0.196053
 Sum of Mulliken charges =   0.00000

 Dipole moment (field-independent basis, Debye):
    X=             -0.0271    Y=             -1.9571    Z=              0.0000  Tot=              1.9573
 Quadrupole moment (field-independent basis, Debye-Ang):
   XX=             -4.4267   YY=             -6.2793   ZZ=             -7.5362
   XY=             -0.1348   XZ=              0.0000   YZ=              0.0000

 1\1\GINC-NODE12\SP\RB2PLYPD3-FC\def2QZVP\H2O1\BOITTIER\26-Aug-2020\0\\
 #p B2PLYPD3/Def2QZVP\\h2o\\0,1\O,0,-5.326605,-0.762423,0.924063\H,0,-4
 .368927,-0.698871,0.878823\H,0,-5.609308,0.081685,0.741371\\Version=ES
 64L-G09RevD.01\State=1-A'\HF=-76.3331004\MP2=-76.4223447\RMSD=5.732e-0
 9\PG=CS [SG(H2O1)]\\@

 THE PROBLEM WITH THE LADDER OF SUCCESS IS YOU CAN'T

 Normal termination of Gaussian 09 at Wed Aug 26 11:05:15 2020.
