 Gaussian 09, Revision D.01,
 Gaussian 09:  ES64L-G09RevD.01 24-Apr-2013

 --------------------
 #p B2PLYPD3/Def2QZVP
 --------------------

 ---
 h2o
 ---
 Symbolic Z-matrix:
 Charge =  0 Multiplicity = 1

                         Standard orientation:
 ---------------------------------------------------------------------
 Center     Atomic      Atomic             Coordinates (Angstroms)
 Number     Number       Type             X           Y           Z
 ---------------------------------------------------------------------
      1          8           0        0.000000    0.115419    0.000000
      2          1           0        0.732960   -0.506483    0.000000
      3          1           0       -0.732960   -0.416868    0.000000
 ---------------------------------------------------------------------

 SCF Done:  E(RB2PLYPD3) =  -76.3327720534     A.U. after   10 cycles
 E2(B2PLYPD3) =    -0.8920836881D-01 E(B2PLYPD3) =    -0.76421980422212D+02

 The electronic state is 1-A'.
 Alpha  occ. eigenvalues --  -19.72741  -1.17055  -0.62269  -0.47974  -0.40215
 Alpha virt. eigenvalues --    0.04751   0.10460   0.27339   0.30343   0.31236
 Alpha virt. eigenvalues --    0.37195   0.44820   0.50315   0.56676   0.62119
 Alpha virt. eigenvalues --    0.64987   0.81770   0.94351   0.95479   1.05003

 Mulliken charges:
               1
     1  O   -0.417245
     2  H    0.223012
     3  H    0.194234
 Sum of Mulliken charges =   0.00000

 Dipole moment (field-independent basis, Debye):
    X=             -0.0288    Y=             -1.9584    Z=              0.0000  Tot=              1.9586
 Quadrupole moment (field-independent basis, Debye-Ang):
   XX=             -4.4355   YY=             -6.2735   ZZ=             -7.5330
   XY=             -0.1427   XZ=              0.0000   YZ=              0.0000

 1\1\GINC-NODE19\SP\RB2PLYPD3-FC\def2QZVP\H2O1\BOITTIER\26-Aug-2020\0\\
 #p B2PLYPD3/Def2QZVP\\h2o\\0,1\O,0,-5.326605,-0.762319,0.924561\H,0,-4
 .368927,-0.696684,0.87419\H,0,-5.609308,0.077825,0.738023\\Version=ES6
 4L-G09RevD.01\State=1-A'\HF=-76.3327721\MP2=-76.4219804\RMSD=5.868e-09
 \PG=CS [SG(H2O1)]\\@

 Make no judgements where you have no compassion.

 Normal termination of Gaussian 09 at Wed Aug 26 12:50:52 2020.
