 Gaussian 09, Revision D.01,
 Gaussian 09:  ES64L-G09RevD.01 24-Apr-2013

 --------------------
 #p B2PLYPD3/Def2QZVP
 --------------------

 ---
 h2o
 ---
 Symbolic Z-matrix:
 Charge =  0 Multiplicity = 1

                         Standard orientation:
 ---------------------------------------------------------------------
 Center     Atomic      Atomic             Coordinates (Angstroms)
 Number     Number       Type             X           Y           Z
 ---------------------------------------------------------------------
      1          8           0        0.000000    0.112426    0.000000
      2          1           0        0.711848   -0.536945    0.000000
      3          1           0       -0.711848   -0.362467    0.000000
 ---------------------------------------------------------------------

 SCF Done:  E(RB2PLYPD3) =  -76.3234005588     A.U. after   10 cycles
 E2(B2PLYPD3) =    -0.8845353436D-01 E(B2PLYPD3) =    -0.76411854093188D+02

 The electronic state is 1-A'.
 Alpha  occ. eigenvalues --  -19.72276  -1.18499  -0.63463  -0.48231  -0.40444
 Alpha virt. eigenvalues --    0.04908   0.10664   0.27103   0.30276   0.31358
 Alpha virt. eigenvalues --    0.38095   0.45823   0.50573   0.56828   0.62390
 Alpha virt. eigenvalues --    0.64354   0.82201   0.94102   0.95368   1.05449

 Mulliken charges:
               1
     1  O   -0.385022
     2  H    0.225375
     3  H    0.159647
 Sum of Mulliken charges =   0.00000

 Dipole moment (field-independent basis, Debye):
    X=             -0.0562    Y=             -1.9392    Z=              0.0000  Tot=              1.9400
 Quadrupole moment (field-independent basis, Debye-Ang):
   XX=             -4.4902   YY=             -6.2358   ZZ=             -7.4749
   XY=             -0.2731   XZ=              0.0000   YZ=              0.0000

 1\1\GINC-NODE13\SP\RB2PLYPD3-FC\def2QZVP\H2O1\BOITTIER\26-Aug-2020\0\\
 #p B2PLYPD3/Def2QZVP\\h2o\\0,1\O,0,-5.326605,-0.759863,0.925648\H,0,-4
 .368927,-0.685294,0.850134\H,0,-5.609308,0.027146,0.744135\\Version=ES
 64L-G09RevD.01\State=1-A'\HF=-76.3234006\MP2=-76.4118541\RMSD=6.684e-0
 9\PG=CS [SG(H2O1)]\\@

 THE POLHOLDE ROLLS WITHOUT SLIPPING ON THE HERPOLHOLDE LYING IN

 Normal termination of Gaussian 09 at Wed Aug 26 08:56:52 2020.
