 Gaussian 09, Revision D.01,
 Gaussian 09:  ES64L-G09RevD.01 24-Apr-2013

 --------------------
 #p B2PLYPD3/Def2QZVP
 --------------------

 ---
 h2o
 ---
 Symbolic Z-matrix:
 Charge =  0 Multiplicity = 1

                         Standard orientation:
 ---------------------------------------------------------------------
 Center     Atomic      Atomic             Coordinates (Angstroms)
 Number     Number       Type             X           Y           Z
 ---------------------------------------------------------------------
      1          8           0        0.000000    0.116412    0.000000
      2          1           0        0.750890   -0.480144    0.000000
      3          1           0       -0.750890   -0.451156    0.000000
 ---------------------------------------------------------------------

 SCF Done:  E(RB2PLYPD3) =  -76.3350958943     A.U. after   10 cycles
 E2(B2PLYPD3) =    -0.8972031282D-01 E(B2PLYPD3) =    -0.76424816207128D+02

 The electronic state is 1-A'.
 Alpha  occ. eigenvalues --  -19.73000  -1.16111  -0.61634  -0.47616  -0.40045
 Alpha virt. eigenvalues --    0.04623   0.10293   0.27459   0.30390   0.31122
 Alpha virt. eigenvalues --    0.36326   0.44230   0.50299   0.56394   0.62195
 Alpha virt. eigenvalues --    0.65418   0.81378   0.94080   0.95755   1.04403

 Mulliken charges:
               1
     1  O   -0.435539
     2  H    0.221936
     3  H    0.213604
 Sum of Mulliken charges =   0.00000

 Dipole moment (field-independent basis, Debye):
    X=             -0.0091    Y=             -1.9583    Z=              0.0000  Tot=              1.9583
 Quadrupole moment (field-independent basis, Debye-Ang):
   XX=             -4.3648   YY=             -6.3141   ZZ=             -7.5734
   XY=             -0.0472   XZ=              0.0000   YZ=              0.0000

 1\1\GINC-NODE08\SP\RB2PLYPD3-FC\def2QZVP\H2O1\BOITTIER\26-Aug-2020\0\\
 #p B2PLYPD3/Def2QZVP\\h2o\\0,1\O,0,-5.326605,-0.763802,0.921045\H,0,-4
 .368927,-0.714035,0.911529\H,0,-5.609308,0.118911,0.757137\\Version=ES
 64L-G09RevD.01\State=1-A'\HF=-76.3350959\MP2=-76.4248162\RMSD=4.359e-0
 9\PG=CS [SG(H2O1)]\\@

 A SLIP OF THE FOOT YOU MAY SOON RECOVER, BUT A SLIP OF THE TONGUE

 Normal termination of Gaussian 09 at Wed Aug 26 10:09:53 2020.
