 Gaussian 09, Revision D.01,
 Gaussian 09:  ES64L-G09RevD.01 24-Apr-2013

 --------------------
 #p B2PLYPD3/Def2QZVP
 --------------------

 ---
 h2o
 ---
 Symbolic Z-matrix:
 Charge =  0 Multiplicity = 1

                         Standard orientation:
 ---------------------------------------------------------------------
 Center     Atomic      Atomic             Coordinates (Angstroms)
 Number     Number       Type             X           Y           Z
 ---------------------------------------------------------------------
      1          8           0        0.000000    0.123327    0.000000
      2          1           0        0.729593   -0.510902    0.000000
      3          1           0       -0.729593   -0.475713    0.000000
 ---------------------------------------------------------------------

 SCF Done:  E(RB2PLYPD3) =  -76.3340803495     A.U. after   10 cycles
 E2(B2PLYPD3) =    -0.9005543054D-01 E(B2PLYPD3) =    -0.76424135780026D+02

 The electronic state is 1-A'.
 Alpha  occ. eigenvalues --  -19.73275  -1.16227  -0.60459  -0.48474  -0.40117
 Alpha virt. eigenvalues --    0.04458   0.10332   0.27574   0.30387   0.30581
 Alpha virt. eigenvalues --    0.36812   0.44110   0.49502   0.57067   0.60774
 Alpha virt. eigenvalues --    0.65628   0.81403   0.94523   0.95804   1.03173

 Mulliken charges:
               1
     1  O   -0.429809
     2  H    0.219970
     3  H    0.209839
 Sum of Mulliken charges =   0.00000

 Dipole moment (field-independent basis, Debye):
    X=             -0.0128    Y=             -2.0348    Z=              0.0000  Tot=              2.0348
 Quadrupole moment (field-independent basis, Debye-Ang):
   XX=             -4.5618   YY=             -6.1741   ZZ=             -7.5770
   XY=             -0.0533   XZ=              0.0000   YZ=              0.0000

 1\1\GINC-NODE06\SP\RB2PLYPD3-FC\def2QZVP\H2O1\BOITTIER\26-Aug-2020\0\\
 #p B2PLYPD3/Def2QZVP\\h2o\\0,1\O,0,-5.326605,-0.7677,0.924998\H,0,-4.3
 68927,-0.637523,0.903601\H,0,-5.609308,0.104768,0.701318\\Version=ES64
 L-G09RevD.01\State=1-A'\HF=-76.3340803\MP2=-76.4241358\RMSD=4.905e-09\
 PG=CS [SG(H2O1)]\\@

 THE PROGRESS OF RIVERS TO THE SEA IS NOT AS RAPID

 Normal termination of Gaussian 09 at Wed Aug 26 08:59:33 2020.
