 Gaussian 09, Revision D.01,
 Gaussian 09:  ES64L-G09RevD.01 24-Apr-2013

 --------------------
 #p B2PLYPD3/Def2QZVP
 --------------------

 ---
 h2o
 ---
 Symbolic Z-matrix:
 Charge =  0 Multiplicity = 1

                         Standard orientation:
 ---------------------------------------------------------------------
 Center     Atomic      Atomic             Coordinates (Angstroms)
 Number     Number       Type             X           Y           Z
 ---------------------------------------------------------------------
      1          8           0        0.000000    0.122991    0.000000
      2          1           0        0.731762   -0.507412    0.000000
      3          1           0       -0.731762   -0.476515    0.000000
 ---------------------------------------------------------------------

 SCF Done:  E(RB2PLYPD3) =  -76.3342308129     A.U. after   10 cycles
 E2(B2PLYPD3) =    -0.9006178593D-01 E(B2PLYPD3) =    -0.76424292598861D+02

 The electronic state is 1-A'.
 Alpha  occ. eigenvalues --  -19.73272  -1.16173  -0.60497  -0.48405  -0.40105
 Alpha virt. eigenvalues --    0.04461   0.10321   0.27574   0.30389   0.30602
 Alpha virt. eigenvalues --    0.36745   0.44089   0.49537   0.57013   0.60855
 Alpha virt. eigenvalues --    0.65640   0.81388   0.94472   0.95817   1.03187

 Mulliken charges:
               1
     1  O   -0.430943
     2  H    0.219893
     3  H    0.211049
 Sum of Mulliken charges =   0.00000

 Dipole moment (field-independent basis, Debye):
    X=             -0.0111    Y=             -2.0305    Z=              0.0000  Tot=              2.0306
 Quadrupole moment (field-independent basis, Debye-Ang):
   XX=             -4.5469   YY=             -6.1840   ZZ=             -7.5788
   XY=             -0.0471   XZ=              0.0000   YZ=              0.0000

 1\1\GINC-NODE13\SP\RB2PLYPD3-FC\def2QZVP\H2O1\BOITTIER\26-Aug-2020\0\\
 #p B2PLYPD3/Def2QZVP\\h2o\\0,1\O,0,-5.326605,-0.767356,0.925464\H,0,-4
 .368927,-0.64499,0.897845\H,0,-5.609308,0.106733,0.699786\\Version=ES6
 4L-G09RevD.01\State=1-A'\HF=-76.3342308\MP2=-76.4242926\RMSD=4.812e-09
 \PG=CS [SG(H2O1)]\\@

 THE TEST OF A FIRST RATE INTELLIGENCE IS THE ABILITY TO HOLD TWO OPPOSED

 Normal termination of Gaussian 09 at Wed Aug 26 09:16:01 2020.
