 Gaussian 09, Revision D.01,
 Gaussian 09:  ES64L-G09RevD.01 24-Apr-2013

 --------------------
 #p B2PLYPD3/Def2QZVP
 --------------------

 ---
 h2o
 ---
 Symbolic Z-matrix:
 Charge =  0 Multiplicity = 1

                         Standard orientation:
 ---------------------------------------------------------------------
 Center     Atomic      Atomic             Coordinates (Angstroms)
 Number     Number       Type             X           Y           Z
 ---------------------------------------------------------------------
      1          8           0        0.000000    0.117271    0.000000
      2          1           0        0.774206   -0.447108    0.000000
      3          1           0       -0.774206   -0.491060    0.000000
 ---------------------------------------------------------------------

 SCF Done:  E(RB2PLYPD3) =  -76.3340841217     A.U. after   10 cycles
 E2(B2PLYPD3) =    -0.9037771360D-01 E(B2PLYPD3) =    -0.76424461835260D+02

 The electronic state is 1-A'.
 Alpha  occ. eigenvalues --  -19.73280  -1.15027  -0.60902  -0.47085  -0.39833
 Alpha virt. eigenvalues --    0.04404   0.10070   0.27571   0.30447   0.30795
 Alpha virt. eigenvalues --    0.35198   0.43637   0.50354   0.55931   0.62410
 Alpha virt. eigenvalues --    0.65914   0.80745   0.93287   0.96217   1.03071

 Mulliken charges:
               1
     1  O   -0.454764
     2  H    0.221857
     3  H    0.232907
 Sum of Mulliken charges =   0.00000

 Dipole moment (field-independent basis, Debye):
    X=              0.0132    Y=             -1.9525    Z=              0.0000  Tot=              1.9526
 Quadrupole moment (field-independent basis, Debye-Ang):
   XX=             -4.2629   YY=             -6.3638   ZZ=             -7.6242
   XY=              0.0739   XZ=              0.0000   YZ=              0.0000

 1\1\GINC-NODE26\SP\RB2PLYPD3-FC\def2QZVP\H2O1\BOITTIER\26-Aug-2020\0\\
 #p B2PLYPD3/Def2QZVP\\h2o\\0,1\O,0,-5.326605,-0.764811,0.918452\H,0,-4
 .368927,-0.745871,0.938745\H,0,-5.609308,0.166896,0.771952\\Version=ES
 64L-G09RevD.01\State=1-A'\HF=-76.3340841\MP2=-76.4244618\RMSD=4.258e-0
 9\PG=CS [SG(H2O1)]\\@

 THERE IS NO CURE FOR BIRTH AND DEATH SAVE TO ENJOY THE INTERVAL.

 Normal termination of Gaussian 09 at Wed Aug 26 10:39:14 2020.
