 Gaussian 09, Revision D.01,
 Gaussian 09:  ES64L-G09RevD.01 24-Apr-2013

 --------------------
 #p B2PLYPD3/Def2QZVP
 --------------------

 ---
 h2o
 ---
 Symbolic Z-matrix:
 Charge =  0 Multiplicity = 1

                         Standard orientation:
 ---------------------------------------------------------------------
 Center     Atomic      Atomic             Coordinates (Angstroms)
 Number     Number       Type             X           Y           Z
 ---------------------------------------------------------------------
      1          8           0        0.000000    0.118406    0.000000
      2          1           0        0.757740   -0.470186    0.000000
      3          1           0       -0.757740   -0.477063    0.000000
 ---------------------------------------------------------------------

 SCF Done:  E(RB2PLYPD3) =  -76.3349817658     A.U. after   10 cycles
 E2(B2PLYPD3) =    -0.9010883556D-01 E(B2PLYPD3) =    -0.76425090601404D+02

 The electronic state is 1-A'.
 Alpha  occ. eigenvalues --  -19.73204  -1.15589  -0.61024  -0.47549  -0.39958
 Alpha virt. eigenvalues --    0.04492   0.10193   0.27544   0.30417   0.30869
 Alpha virt. eigenvalues --    0.35886   0.43895   0.50113   0.56323   0.61968
 Alpha virt. eigenvalues --    0.65719   0.81122   0.93821   0.95979   1.03516

 Mulliken charges:
               1
     1  O   -0.443955
     2  H    0.221052
     3  H    0.222903
 Sum of Mulliken charges =   0.00000

 Dipole moment (field-independent basis, Debye):
    X=              0.0022    Y=             -1.9732    Z=              0.0000  Tot=              1.9732
 Quadrupole moment (field-independent basis, Debye-Ang):
   XX=             -4.3593   YY=             -6.3084   ZZ=             -7.5988
   XY=              0.0112   XZ=              0.0000   YZ=              0.0000

 1\1\GINC-NODE32\SP\RB2PLYPD3-FC\def2QZVP\H2O1\BOITTIER\26-Aug-2020\0\\
 #p B2PLYPD3/Def2QZVP\\h2o\\0,1\O,0,-5.326605,-0.76552,0.918912\H,0,-4.
 368927,-0.710248,0.939117\H,0,-5.609308,0.142618,0.763612\\Version=ES6
 4L-G09RevD.01\State=1-A'\HF=-76.3349818\MP2=-76.4250906\RMSD=4.105e-09
 \PG=CS [SG(H2O1)]\\@

 THERE ARE PEOPLE SO ADDICTED TO EXAGERATING THEY

 Normal termination of Gaussian 09 at Wed Aug 26 09:57:00 2020.
