 Gaussian 09, Revision D.01,
 Gaussian 09:  ES64L-G09RevD.01 24-Apr-2013

 --------------------
 #p B2PLYPD3/Def2QZVP
 --------------------

 ---
 h2o
 ---
 Symbolic Z-matrix:
 Charge =  0 Multiplicity = 1

                         Standard orientation:
 ---------------------------------------------------------------------
 Center     Atomic      Atomic             Coordinates (Angstroms)
 Number     Number       Type             X           Y           Z
 ---------------------------------------------------------------------
      1          8           0        0.000000    0.116622    0.000000
      2          1           0        0.729720   -0.510649    0.000000
      3          1           0       -0.729720   -0.422329    0.000000
 ---------------------------------------------------------------------

 SCF Done:  E(RB2PLYPD3) =  -76.3327612242     A.U. after   10 cycles
 E2(B2PLYPD3) =    -0.8927052943D-01 E(B2PLYPD3) =    -0.76422031753634D+02

 The electronic state is 1-A'.
 Alpha  occ. eigenvalues --  -19.72793  -1.17059  -0.62050  -0.48117  -0.40223
 Alpha virt. eigenvalues --    0.04721   0.10466   0.27359   0.30344   0.31147
 Alpha virt. eigenvalues --    0.37274   0.44791   0.50165   0.56788   0.61871
 Alpha virt. eigenvalues --    0.65031   0.81764   0.94411   0.95489   1.04821

 Mulliken charges:
               1
     1  O   -0.416791
     2  H    0.222562
     3  H    0.194230
 Sum of Mulliken charges =   0.00000

 Dipole moment (field-independent basis, Debye):
    X=             -0.0292    Y=             -1.9717    Z=              0.0000  Tot=              1.9719
 Quadrupole moment (field-independent basis, Debye-Ang):
   XX=             -4.4671   YY=             -6.2509   ZZ=             -7.5343
   XY=             -0.1389   XZ=              0.0000   YZ=              0.0000

 1\1\GINC-NODE35\SP\RB2PLYPD3-FC\def2QZVP\H2O1\BOITTIER\26-Aug-2020\0\\
 #p B2PLYPD3/Def2QZVP\\h2o\\0,1\O,0,-5.326605,-0.763036,0.925058\H,0,-4
 .368927,-0.683886,0.874582\H,0,-5.609308,0.076508,0.729599\\Version=ES
 64L-G09RevD.01\State=1-A'\HF=-76.3327612\MP2=-76.4220318\RMSD=5.865e-0
 9\PG=CS [SG(H2O1)]\\@

 OPTIMIST - A PESSIMIST WHO LACKS EXPERIENCE

 Normal termination of Gaussian 09 at Wed Aug 26 07:30:28 2020.
