 Gaussian 09, Revision D.01,
 Gaussian 09:  ES64L-G09RevD.01 24-Apr-2013

 --------------------
 #p B2PLYPD3/Def2QZVP
 --------------------

 ---
 h2o
 ---
 Symbolic Z-matrix:
 Charge =  0 Multiplicity = 1

                         Standard orientation:
 ---------------------------------------------------------------------
 Center     Atomic      Atomic             Coordinates (Angstroms)
 Number     Number       Type             X           Y           Z
 ---------------------------------------------------------------------
      1          8           0        0.000000    0.120071    0.000000
      2          1           0        0.779063   -0.450413    0.000000
      3          1           0       -0.779063   -0.510153    0.000000
 ---------------------------------------------------------------------

 SCF Done:  E(RB2PLYPD3) =  -76.3326007295     A.U. after   10 cycles
 E2(B2PLYPD3) =    -0.9082303525D-01 E(B2PLYPD3) =    -0.76423423764757D+02

 The electronic state is 1-A'.
 Alpha  occ. eigenvalues --  -19.73510  -1.14541  -0.60180  -0.47093  -0.39757
 Alpha virt. eigenvalues --    0.04233   0.09960   0.27661   0.30387   0.30472
 Alpha virt. eigenvalues --    0.34841   0.43328   0.50054   0.55905   0.62029
 Alpha virt. eigenvalues --    0.66235   0.80476   0.92910   0.96419   1.02023

 Mulliken charges:
               1
     1  O   -0.461007
     2  H    0.223486
     3  H    0.237521
 Sum of Mulliken charges =   0.00000

 Dipole moment (field-independent basis, Debye):
    X=              0.0185    Y=             -1.9756    Z=              0.0000  Tot=              1.9757
 Quadrupole moment (field-independent basis, Debye-Ang):
   XX=             -4.2777   YY=             -6.3404   ZZ=             -7.6502
   XY=              0.0997   XZ=              0.0000   YZ=              0.0000

 1\1\GINC-NODE30\SP\RB2PLYPD3-FC\def2QZVP\H2O1\BOITTIER\26-Aug-2020\0\\
 #p B2PLYPD3/Def2QZVP\\h2o\\0,1\O,0,-5.326605,-0.767116,0.909022\H,0,-4
 .368927,-0.733308,1.027767\H,0,-5.609308,0.1912,0.832665\\Version=ES64
 L-G09RevD.01\State=1-A'\HF=-76.3326007\MP2=-76.4234238\RMSD=4.464e-09\
 PG=CS [SG(H2O1)]\\@

 EDUCATION DOESN'T COST

 Normal termination of Gaussian 09 at Wed Aug 26 09:16:26 2020.
