 Gaussian 09, Revision D.01,
 Gaussian 09:  ES64L-G09RevD.01 24-Apr-2013

 --------------------
 #p B2PLYPD3/Def2QZVP
 --------------------

 ---
 h2o
 ---
 Symbolic Z-matrix:
 Charge =  0 Multiplicity = 1

                         Standard orientation:
 ---------------------------------------------------------------------
 Center     Atomic      Atomic             Coordinates (Angstroms)
 Number     Number       Type             X           Y           Z
 ---------------------------------------------------------------------
      1          8           0        0.000000    0.113349    0.000000
      2          1           0        0.746138   -0.488312    0.000000
      3          1           0       -0.746138   -0.418481    0.000000
 ---------------------------------------------------------------------

 SCF Done:  E(RB2PLYPD3) =  -76.3339570344     A.U. after   10 cycles
 E2(B2PLYPD3) =    -0.8927737295D-01 E(B2PLYPD3) =    -0.76423234407341D+02

 The electronic state is 1-A'.
 Alpha  occ. eigenvalues --  -19.72735  -1.16683  -0.62460  -0.47556  -0.40132
 Alpha virt. eigenvalues --    0.04766   0.10387   0.27348   0.30359   0.31392
 Alpha virt. eigenvalues --    0.36703   0.44647   0.50632   0.56354   0.62656
 Alpha virt. eigenvalues --    0.65058   0.81619   0.94187   0.95553   1.05241

 Mulliken charges:
               1
     1  O   -0.425663
     2  H    0.223604
     3  H    0.202059
 Sum of Mulliken charges =   0.00000

 Dipole moment (field-independent basis, Debye):
    X=             -0.0211    Y=             -1.9312    Z=              0.0000  Tot=              1.9314
 Quadrupole moment (field-independent basis, Debye-Ang):
   XX=             -4.3456   YY=             -6.3351   ZZ=             -7.5457
   XY=             -0.1148   XZ=              0.0000   YZ=              0.0000

 1\1\GINC-NODE38\SP\RB2PLYPD3-FC\def2QZVP\H2O1\BOITTIER\26-Aug-2020\0\\
 #p B2PLYPD3/Def2QZVP\\h2o\\0,1\O,0,-5.326605,-0.76183,0.920117\H,0,-4.
 368927,-0.72452,0.906716\H,0,-5.609308,0.097841,0.776553\\Version=ES64
 L-G09RevD.01\State=1-A'\HF=-76.333957\MP2=-76.4232344\RMSD=5.268e-09\P
 G=CS [SG(H2O1)]\\@

 THE MOST BEAUTIFUL EXPERIENCE WE CAN HAVE IS THE MYSTERIOUS.

 Normal termination of Gaussian 09 at Wed Aug 26 11:57:02 2020.
