 Gaussian 09, Revision D.01,
 Gaussian 09:  ES64L-G09RevD.01 24-Apr-2013

 --------------------
 #p B2PLYPD3/Def2QZVP
 --------------------

 ---
 h2o
 ---
 Symbolic Z-matrix:
 Charge =  0 Multiplicity = 1

                         Standard orientation:
 ---------------------------------------------------------------------
 Center     Atomic      Atomic             Coordinates (Angstroms)
 Number     Number       Type             X           Y           Z
 ---------------------------------------------------------------------
      1          8           0        0.000000    0.118996    0.000000
      2          1           0        0.749675   -0.480917    0.000000
      3          1           0       -0.749675   -0.471049    0.000000
 ---------------------------------------------------------------------

 SCF Done:  E(RB2PLYPD3) =  -76.3350417755     A.U. after   10 cycles
 E2(B2PLYPD3) =    -0.8998830088D-01 E(B2PLYPD3) =    -0.76425030076376D+02

 The electronic state is 1-A'.
 Alpha  occ. eigenvalues --  -19.73167  -1.15867  -0.61064  -0.47776  -0.40017
 Alpha virt. eigenvalues --    0.04524   0.10251   0.27529   0.30403   0.30878
 Alpha virt. eigenvalues --    0.36225   0.44028   0.50004   0.56512   0.61750
 Alpha virt. eigenvalues --    0.65624   0.81274   0.94051   0.95872   1.03674

 Mulliken charges:
               1
     1  O   -0.438589
     2  H    0.220666
     3  H    0.217923
 Sum of Mulliken charges =   0.00000

 Dipole moment (field-independent basis, Debye):
    X=             -0.0032    Y=             -1.9834    Z=              0.0000  Tot=              1.9834
 Quadrupole moment (field-independent basis, Debye-Ang):
   XX=             -4.4063   YY=             -6.2802   ZZ=             -7.5870
   XY=             -0.0158   XZ=              0.0000   YZ=              0.0000

 1\1\GINC-NODE38\SP\RB2PLYPD3-FC\def2QZVP\H2O1\BOITTIER\26-Aug-2020\0\\
 #p B2PLYPD3/Def2QZVP\\h2o\\0,1\O,0,-5.326605,-0.765391,0.92206\H,0,-4.
 368927,-0.696967,0.913188\H,0,-5.609308,0.127265,0.739275\\Version=ES6
 4L-G09RevD.01\State=1-A'\HF=-76.3350418\MP2=-76.4250301\RMSD=4.258e-09
 \PG=CS [SG(H2O1)]\\@

 Standing in the middle of the road is very dangerous;

 Normal termination of Gaussian 09 at Wed Aug 26 09:32:43 2020.
