 Gaussian 09, Revision D.01,
 Gaussian 09:  ES64L-G09RevD.01 24-Apr-2013

 --------------------
 #p B2PLYPD3/Def2QZVP
 --------------------

 ---
 h2o
 ---
 Symbolic Z-matrix:
 Charge =  0 Multiplicity = 1

                         Standard orientation:
 ---------------------------------------------------------------------
 Center     Atomic      Atomic             Coordinates (Angstroms)
 Number     Number       Type             X           Y           Z
 ---------------------------------------------------------------------
      1          8           0        0.000000    0.116605    0.000000
      2          1           0        0.755694   -0.474104    0.000000
      3          1           0       -0.755694   -0.458737    0.000000
 ---------------------------------------------------------------------

 SCF Done:  E(RB2PLYPD3) =  -76.3351961949     A.U. after   10 cycles
 E2(B2PLYPD3) =    -0.8985410133D-01 E(B2PLYPD3) =    -0.76425050296257D+02

 The electronic state is 1-A'.
 Alpha  occ. eigenvalues --  -19.73061  -1.15878  -0.61481  -0.47510  -0.40001
 Alpha virt. eigenvalues --    0.04584   0.10248   0.27485   0.30401   0.31074
 Alpha virt. eigenvalues --    0.36087   0.44096   0.50306   0.56305   0.62234
 Alpha virt. eigenvalues --    0.65524   0.81260   0.93950   0.95846   1.04173

 Mulliken charges:
               1
     1  O   -0.439801
     2  H    0.222048
     3  H    0.217753
 Sum of Mulliken charges =   0.00000

 Dipole moment (field-independent basis, Debye):
    X=             -0.0048    Y=             -1.9574    Z=              0.0000  Tot=              1.9574
 Quadrupole moment (field-independent basis, Debye-Ang):
   XX=             -4.3444   YY=             -6.3249   ZZ=             -7.5839
   XY=             -0.0252   XZ=              0.0000   YZ=              0.0000

 1\1\GINC-NODE08\SP\RB2PLYPD3-FC\def2QZVP\H2O1\BOITTIER\26-Aug-2020\0\\
 #p B2PLYPD3/Def2QZVP\\h2o\\0,1\O,0,-5.326605,-0.763295,0.924052\H,0,-4
 .368927,-0.727071,0.884658\H,0,-5.609308,0.123832,0.736497\\Version=ES
 64L-G09RevD.01\State=1-A'\HF=-76.3351962\MP2=-76.4250503\RMSD=4.154e-0
 9\PG=CS [SG(H2O1)]\\@

 There ain't no surer way to find out whether you

 Normal termination of Gaussian 09 at Wed Aug 26 09:52:12 2020.
