 Gaussian 09, Revision D.01,
 Gaussian 09:  ES64L-G09RevD.01 24-Apr-2013

 --------------------
 #p B2PLYPD3/Def2QZVP
 --------------------

 ---
 h2o
 ---
 Symbolic Z-matrix:
 Charge =  0 Multiplicity = 1

                         Standard orientation:
 ---------------------------------------------------------------------
 Center     Atomic      Atomic             Coordinates (Angstroms)
 Number     Number       Type             X           Y           Z
 ---------------------------------------------------------------------
      1          8           0        0.000000    0.114403    0.000000
      2          1           0        0.764085   -0.463727    0.000000
      3          1           0       -0.764085   -0.451500    0.000000
 ---------------------------------------------------------------------

 SCF Done:  E(RB2PLYPD3) =  -76.3352161734     A.U. after   10 cycles
 E2(B2PLYPD3) =    -0.8980818162D-01 E(B2PLYPD3) =    -0.76425024355035D+02

 The electronic state is 1-A'.
 Alpha  occ. eigenvalues --  -19.72992  -1.15757  -0.61787  -0.47195  -0.39961
 Alpha virt. eigenvalues --    0.04615   0.10218   0.27459   0.30407   0.31236
 Alpha virt. eigenvalues --    0.35804   0.44087   0.50626   0.56056   0.62731
 Alpha virt. eigenvalues --    0.65489   0.81154   0.93796   0.95888   1.04536

 Mulliken charges:
               1
     1  O   -0.443442
     2  H    0.223410
     3  H    0.220032
 Sum of Mulliken charges =   0.00000

 Dipole moment (field-independent basis, Debye):
    X=             -0.0036    Y=             -1.9314    Z=              0.0000  Tot=              1.9314
 Quadrupole moment (field-independent basis, Debye-Ang):
   XX=             -4.2735   YY=             -6.3735   ZZ=             -7.5871
   XY=             -0.0205   XZ=              0.0000   YZ=              0.0000

 1\1\GINC-NODE32\SP\RB2PLYPD3-FC\def2QZVP\H2O1\BOITTIER\26-Aug-2020\0\\
 #p B2PLYPD3/Def2QZVP\\h2o\\0,1\O,0,-5.326605,-0.763027,0.91683\H,0,-4.
 368927,-0.744193,0.940468\H,0,-5.609308,0.136669,0.795596\\Version=ES6
 4L-G09RevD.01\State=1-A'\HF=-76.3352162\MP2=-76.4250244\RMSD=3.988e-09
 \PG=CS [SG(H2O1)]\\@

 IF IT'S NOT TRUE, IT'S WELL INVENTED -- DANTE

 Normal termination of Gaussian 09 at Wed Aug 26 09:41:15 2020.
