 Gaussian 09, Revision D.01,
 Gaussian 09:  ES64L-G09RevD.01 24-Apr-2013

 --------------------
 #p B2PLYPD3/Def2QZVP
 --------------------

 ---
 h2o
 ---
 Symbolic Z-matrix:
 Charge =  0 Multiplicity = 1

                         Standard orientation:
 ---------------------------------------------------------------------
 Center     Atomic      Atomic             Coordinates (Angstroms)
 Number     Number       Type             X           Y           Z
 ---------------------------------------------------------------------
      1          8           0        0.000000    0.115519    0.000000
      2          1           0        0.740291   -0.495327    0.000000
      3          1           0       -0.740291   -0.428825    0.000000
 ---------------------------------------------------------------------

 SCF Done:  E(RB2PLYPD3) =  -76.3340331216     A.U. after   10 cycles
 E2(B2PLYPD3) =    -0.8938027738D-01 E(B2PLYPD3) =    -0.76423413398986D+02

 The electronic state is 1-A'.
 Alpha  occ. eigenvalues --  -19.72827  -1.16697  -0.62082  -0.47815  -0.40150
 Alpha virt. eigenvalues --    0.04716   0.10398   0.27382   0.30360   0.31230
 Alpha virt. eigenvalues --    0.36867   0.44596   0.50341   0.56556   0.62198
 Alpha virt. eigenvalues --    0.65138   0.81637   0.94286   0.95558   1.04892

 Mulliken charges:
               1
     1  O   -0.424541
     2  H    0.222519
     3  H    0.202021
 Sum of Mulliken charges =   0.00000

 Dipole moment (field-independent basis, Debye):
    X=             -0.0211    Y=             -1.9555    Z=              0.0000  Tot=              1.9556
 Quadrupole moment (field-independent basis, Debye-Ang):
   XX=             -4.4028   YY=             -6.2943   ZZ=             -7.5475
   XY=             -0.1070   XZ=              0.0000   YZ=              0.0000

 1\1\GINC-NODE12\SP\RB2PLYPD3-FC\def2QZVP\H2O1\BOITTIER\26-Aug-2020\0\\
 #p B2PLYPD3/Def2QZVP\\h2o\\0,1\O,0,-5.326605,-0.763112,0.921384\H,0,-4
 .368927,-0.702051,0.904402\H,0,-5.609308,0.09589,0.758484\\Version=ES6
 4L-G09RevD.01\State=1-A'\HF=-76.3340331\MP2=-76.4234134\RMSD=5.244e-09
 \PG=CS [SG(H2O1)]\\@

 Money is a good servant but a bad master.

 Normal termination of Gaussian 09 at Wed Aug 26 11:08:11 2020.
