 Gaussian 09, Revision D.01,
 Gaussian 09:  ES64L-G09RevD.01 24-Apr-2013

 --------------------
 #p B2PLYPD3/Def2QZVP
 --------------------

 ---
 h2o
 ---
 Symbolic Z-matrix:
 Charge =  0 Multiplicity = 1

                         Standard orientation:
 ---------------------------------------------------------------------
 Center     Atomic      Atomic             Coordinates (Angstroms)
 Number     Number       Type             X           Y           Z
 ---------------------------------------------------------------------
      1          8           0        0.000000    0.124424    0.000000
      2          1           0        0.774455   -0.441980    0.000000
      3          1           0       -0.774455   -0.553415    0.000000
 ---------------------------------------------------------------------

 SCF Done:  E(RB2PLYPD3) =  -76.3297831881     A.U. after   10 cycles
 E2(B2PLYPD3) =    -0.9125445508D-01 E(B2PLYPD3) =    -0.76421037643168D+02

 The electronic state is 1-A'.
 Alpha  occ. eigenvalues --  -19.73746  -1.14299  -0.59351  -0.47353  -0.39737
 Alpha virt. eigenvalues --    0.04021   0.09893   0.27756   0.29707   0.30482
 Alpha virt. eigenvalues --    0.34865   0.43169   0.49546   0.56057   0.61332
 Alpha virt. eigenvalues --    0.66474   0.80346   0.92451   0.96614   1.00929

 Mulliken charges:
               1
     1  O   -0.460776
     2  H    0.217896
     3  H    0.242880
 Sum of Mulliken charges =   0.00000

 Dipole moment (field-independent basis, Debye):
    X=              0.0372    Y=             -2.0170    Z=              0.0000  Tot=              2.0173
 Quadrupole moment (field-independent basis, Debye-Ang):
   XX=             -4.3612   YY=             -6.2676   ZZ=             -7.6685
   XY=              0.1805   XZ=              0.0000   YZ=              0.0000

 1\1\GINC-NODE20\SP\RB2PLYPD3-FC\def2QZVP\H2O1\BOITTIER\26-Aug-2020\0\\
 #p B2PLYPD3/Def2QZVP\\h2o\\0,1\O,0,-5.326605,-0.76808,0.926562\H,0,-4.
 368927,-0.718909,0.894475\H,0,-5.609308,0.192227,0.687529\\Version=ES6
 4L-G09RevD.01\State=1-A'\HF=-76.3297832\MP2=-76.4210376\RMSD=5.442e-09
 \PG=CS [SG(H2O1)]\\@

 FIREWORKS ENDED

 Normal termination of Gaussian 09 at Wed Aug 26 09:16:35 2020.
