 Gaussian 09, Revision D.01,
 Gaussian 09:  ES64L-G09RevD.01 24-Apr-2013

 --------------------
 #p B2PLYPD3/Def2QZVP
 --------------------

 ---
 h2o
 ---
 Symbolic Z-matrix:
 Charge =  0 Multiplicity = 1

                         Standard orientation:
 ---------------------------------------------------------------------
 Center     Atomic      Atomic             Coordinates (Angstroms)
 Number     Number       Type             X           Y           Z
 ---------------------------------------------------------------------
      1          8           0        0.000000    0.109825    0.000000
      2          1           0        0.769384   -0.463037    0.000000
      3          1           0       -0.769384   -0.415562    0.000000
 ---------------------------------------------------------------------

 SCF Done:  E(RB2PLYPD3) =  -76.3346194303     A.U. after   10 cycles
 E2(B2PLYPD3) =    -0.8945492444D-01 E(B2PLYPD3) =    -0.76424074354703D+02

 The electronic state is 1-A'.
 Alpha  occ. eigenvalues --  -19.72733  -1.16020  -0.62693  -0.46817  -0.39977
 Alpha virt. eigenvalues --    0.04751   0.10253   0.27362   0.30389   0.31618
 Alpha virt. eigenvalues --    0.35746   0.44356   0.51263   0.55768   0.63618
 Alpha virt. eigenvalues --    0.65207   0.81176   0.93807   0.95815   1.05503

 Mulliken charges:
               1
     1  O   -0.440985
     2  H    0.227290
     3  H    0.213695
 Sum of Mulliken charges =   0.00000

 Dipole moment (field-independent basis, Debye):
    X=             -0.0126    Y=             -1.8834    Z=              0.0000  Tot=              1.8834
 Quadrupole moment (field-independent basis, Debye-Ang):
   XX=             -4.1860   YY=             -6.4402   ZZ=             -7.5712
   XY=             -0.0824   XZ=              0.0000   YZ=              0.0000

 1\1\GINC-NODE26\SP\RB2PLYPD3-FC\def2QZVP\H2O1\BOITTIER\26-Aug-2020\0\\
 #p B2PLYPD3/Def2QZVP\\h2o\\0,1\O,0,-5.326605,-0.760126,0.911794\H,0,-4
 .368927,-0.779621,0.962735\H,0,-5.609308,0.125686,0.8535\\Version=ES64
 L-G09RevD.01\State=1-A'\HF=-76.3346194\MP2=-76.4240744\RMSD=4.484e-09\
 PG=CS [SG(H2O1)]\\@

 Discoveries are often made by not following instructions,

 Normal termination of Gaussian 09 at Wed Aug 26 08:36:36 2020.
