 Gaussian 09, Revision D.01,
 Gaussian 09:  ES64L-G09RevD.01 24-Apr-2013

 --------------------
 #p B2PLYPD3/Def2QZVP
 --------------------

 ---
 h2o
 ---
 Symbolic Z-matrix:
 Charge =  0 Multiplicity = 1

                         Standard orientation:
 ---------------------------------------------------------------------
 Center     Atomic      Atomic             Coordinates (Angstroms)
 Number     Number       Type             X           Y           Z
 ---------------------------------------------------------------------
      1          8           0        0.000000    0.118115    0.000000
      2          1           0        0.775330   -0.447390    0.000000
      3          1           0       -0.775330   -0.497529    0.000000
 ---------------------------------------------------------------------

 SCF Done:  E(RB2PLYPD3) =  -76.3337004230     A.U. after   10 cycles
 E2(B2PLYPD3) =    -0.9050273820D-01 E(B2PLYPD3) =    -0.76424203161164D+02

 The electronic state is 1-A'.
 Alpha  occ. eigenvalues --  -19.73346  -1.14894  -0.60690  -0.47096  -0.39813
 Alpha virt. eigenvalues --    0.04356   0.10041   0.27597   0.30454   0.30675
 Alpha virt. eigenvalues --    0.35107   0.43551   0.50261   0.55930   0.62290
 Alpha virt. eigenvalues --    0.66004   0.80673   0.93185   0.96276   1.02748

 Mulliken charges:
               1
     1  O   -0.456456
     2  H    0.222041
     3  H    0.234415
 Sum of Mulliken charges =   0.00000

 Dipole moment (field-independent basis, Debye):
    X=              0.0152    Y=             -1.9597    Z=              0.0000  Tot=              1.9598
 Quadrupole moment (field-independent basis, Debye-Ang):
   XX=             -4.2690   YY=             -6.3559   ZZ=             -7.6314
   XY=              0.0841   XZ=              0.0000   YZ=              0.0000

 1\1\GINC-NODE06\SP\RB2PLYPD3-FC\def2QZVP\H2O1\BOITTIER\26-Aug-2020\0\\
 #p B2PLYPD3/Def2QZVP\\h2o\\0,1\O,0,-5.326605,-0.76572,0.915113\H,0,-4.
 368927,-0.739615,0.970822\H,0,-5.609308,0.175178,0.792867\\Version=ES6
 4L-G09RevD.01\State=1-A'\HF=-76.3337004\MP2=-76.4242032\RMSD=4.349e-09
 \PG=CS [SG(H2O1)]\\@

 A MAN BEGINS CUTTING HIS WISDOM TEETH THE 1ST

 Normal termination of Gaussian 09 at Wed Aug 26 08:42:11 2020.
