 Gaussian 09, Revision D.01,
 Gaussian 09:  ES64L-G09RevD.01 24-Apr-2013

 --------------------
 #p B2PLYPD3/Def2QZVP
 --------------------

 ---
 h2o
 ---
 Symbolic Z-matrix:
 Charge =  0 Multiplicity = 1

                         Standard orientation:
 ---------------------------------------------------------------------
 Center     Atomic      Atomic             Coordinates (Angstroms)
 Number     Number       Type             X           Y           Z
 ---------------------------------------------------------------------
      1          8           0        0.000000    0.119769    0.000000
      2          1           0        0.750522   -0.479543    0.000000
      3          1           0       -0.750522   -0.478608    0.000000
 ---------------------------------------------------------------------

 SCF Done:  E(RB2PLYPD3) =  -76.3349332855     A.U. after   10 cycles
 E2(B2PLYPD3) =    -0.9009896146D-01 E(B2PLYPD3) =    -0.76425032246999D+02

 The electronic state is 1-A'.
 Alpha  occ. eigenvalues --  -19.73229  -1.15742  -0.60869  -0.47792  -0.39999
 Alpha virt. eigenvalues --    0.04485   0.10227   0.27555   0.30409   0.30790
 Alpha virt. eigenvalues --    0.36134   0.43941   0.49925   0.56520   0.61638
 Alpha virt. eigenvalues --    0.65708   0.81214   0.94000   0.95931   1.03397

 Mulliken charges:
               1
     1  O   -0.440357
     2  H    0.220306
     3  H    0.220051
 Sum of Mulliken charges =   0.00000

 Dipole moment (field-independent basis, Debye):
    X=             -0.0003    Y=             -1.9901    Z=              0.0000  Tot=              1.9901
 Quadrupole moment (field-independent basis, Debye-Ang):
   XX=             -4.4130   YY=             -6.2730   ZZ=             -7.5934
   XY=             -0.0015   XZ=              0.0000   YZ=              0.0000

 1\1\GINC-NODE38\SP\RB2PLYPD3-FC\def2QZVP\H2O1\BOITTIER\26-Aug-2020\0\\
 #p B2PLYPD3/Def2QZVP\\h2o\\0,1\O,0,-5.326605,-0.76596,0.921864\H,0,-4.
 368927,-0.693174,0.918245\H,0,-5.609308,0.132577,0.737341\\Version=ES6
 4L-G09RevD.01\State=1-A'\HF=-76.3349333\MP2=-76.4250322\RMSD=4.239e-09
 \PG=CS [SG(H2O1)]\\@

 Everything starts as somebody's daydream.

 Normal termination of Gaussian 09 at Wed Aug 26 12:13:51 2020.
