 Gaussian 09, Revision D.01,
 Gaussian 09:  ES64L-G09RevD.01 24-Apr-2013

 --------------------
 #p B2PLYPD3/Def2QZVP
 --------------------

 ---
 h2o
 ---
 Symbolic Z-matrix:
 Charge =  0 Multiplicity = 1

                         Standard orientation:
 ---------------------------------------------------------------------
 Center     Atomic      Atomic             Coordinates (Angstroms)
 Number     Number       Type             X           Y           Z
 ---------------------------------------------------------------------
      1          8           0        0.000000    0.117518    0.000000
      2          1           0        0.765460   -0.459816    0.000000
      3          1           0       -0.765460   -0.480330    0.000000
 ---------------------------------------------------------------------

 SCF Done:  E(RB2PLYPD3) =  -76.3347818881     A.U. after   10 cycles
 E2(B2PLYPD3) =    -0.9019122819D-01 E(B2PLYPD3) =    -0.76424973116282D+02

 The electronic state is 1-A'.
 Alpha  occ. eigenvalues --  -19.73217  -1.15361  -0.61050  -0.47316  -0.39905
 Alpha virt. eigenvalues --    0.04471   0.10143   0.27548   0.30429   0.30886
 Alpha virt. eigenvalues --    0.35579   0.43799   0.50263   0.56130   0.62231
 Alpha virt. eigenvalues --    0.65781   0.80974   0.93603   0.96069   1.03447

 Mulliken charges:
               1
     1  O   -0.448639
     2  H    0.221632
     3  H    0.227007
 Sum of Mulliken charges =   0.00000

 Dipole moment (field-independent basis, Debye):
    X=              0.0063    Y=             -1.9602    Z=              0.0000  Tot=              1.9603
 Quadrupole moment (field-independent basis, Debye-Ang):
   XX=             -4.3095   YY=             -6.3391   ZZ=             -7.6084
   XY=              0.0340   XZ=              0.0000   YZ=              0.0000

 1\1\GINC-NODE16\SP\RB2PLYPD3-FC\def2QZVP\H2O1\BOITTIER\26-Aug-2020\0\\
 #p B2PLYPD3/Def2QZVP\\h2o\\0,1\O,0,-5.326605,-0.765056,0.917831\H,0,-4
 .368927,-0.728199,0.944995\H,0,-5.609308,0.153141,0.775195\\Version=ES
 64L-G09RevD.01\State=1-A'\HF=-76.3347819\MP2=-76.4249731\RMSD=4.060e-0
 9\PG=CS [SG(H2O1)]\\@

 WE ARE REACHING THE STAGE WHERE THE PROBLEMS WE MUST SOLVE ARE

 Normal termination of Gaussian 09 at Wed Aug 26 09:15:15 2020.
