 Gaussian 09, Revision D.01,
 Gaussian 09:  ES64L-G09RevD.01 24-Apr-2013

 --------------------
 #p B2PLYPD3/Def2QZVP
 --------------------

 ---
 h2o
 ---
 Symbolic Z-matrix:
 Charge =  0 Multiplicity = 1

                         Standard orientation:
 ---------------------------------------------------------------------
 Center     Atomic      Atomic             Coordinates (Angstroms)
 Number     Number       Type             X           Y           Z
 ---------------------------------------------------------------------
      1          8           0        0.000000    0.112836    0.000000
      2          1           0        0.762010   -0.467838    0.000000
      3          1           0       -0.762010   -0.434852    0.000000
 ---------------------------------------------------------------------

 SCF Done:  E(RB2PLYPD3) =  -76.3350584935     A.U. after   10 cycles
 E2(B2PLYPD3) =    -0.8958999866D-01 E(B2PLYPD3) =    -0.76424648492180D+02

 The electronic state is 1-A'.
 Alpha  occ. eigenvalues --  -19.72864  -1.16020  -0.62195  -0.47160  -0.40001
 Alpha virt. eigenvalues --    0.04691   0.10264   0.27409   0.30392   0.31394
 Alpha virt. eigenvalues --    0.35977   0.44275   0.50806   0.56036   0.62972
 Alpha virt. eigenvalues --    0.65316   0.81272   0.93897   0.95784   1.05045

 Mulliken charges:
               1
     1  O   -0.439272
     2  H    0.224348
     3  H    0.214925
 Sum of Mulliken charges =   0.00000

 Dipole moment (field-independent basis, Debye):
    X=             -0.0095    Y=             -1.9174    Z=              0.0000  Tot=              1.9174
 Quadrupole moment (field-independent basis, Debye-Ang):
   XX=             -4.2624   YY=             -6.3860   ZZ=             -7.5737
   XY=             -0.0557   XZ=              0.0000   YZ=              0.0000

 1\1\GINC-NODE18\SP\RB2PLYPD3-FC\def2QZVP\H2O1\BOITTIER\26-Aug-2020\0\\
 #p B2PLYPD3/Def2QZVP\\h2o\\0,1\O,0,-5.326605,-0.762007,0.916147\H,0,-4
 .368927,-0.750003,0.939595\H,0,-5.609308,0.126161,0.807253\\Version=ES
 64L-G09RevD.01\State=1-A'\HF=-76.3350585\MP2=-76.4246485\RMSD=4.251e-0
 9\PG=CS [SG(H2O1)]\\@

 IF IT HAPPENS, IT MUST BE POSSIBLE.

 Normal termination of Gaussian 09 at Wed Aug 26 12:31:05 2020.
