 Gaussian 09, Revision D.01,
 Gaussian 09:  ES64L-G09RevD.01 24-Apr-2013

 --------------------
 #p B2PLYPD3/Def2QZVP
 --------------------

 ---
 h2o
 ---
 Symbolic Z-matrix:
 Charge =  0 Multiplicity = 1

                         Standard orientation:
 ---------------------------------------------------------------------
 Center     Atomic      Atomic             Coordinates (Angstroms)
 Number     Number       Type             X           Y           Z
 ---------------------------------------------------------------------
      1          8           0        0.000000    0.115774    0.000000
      2          1           0        0.734982   -0.504406    0.000000
      3          1           0       -0.734982   -0.421789    0.000000
 ---------------------------------------------------------------------

 SCF Done:  E(RB2PLYPD3) =  -76.3332404016     A.U. after   10 cycles
 E2(B2PLYPD3) =    -0.8929208175D-01 E(B2PLYPD3) =    -0.76422532483351D+02

 The electronic state is 1-A'.
 Alpha  occ. eigenvalues --  -19.72788  -1.16916  -0.62139  -0.47948  -0.40191
 Alpha virt. eigenvalues --    0.04729   0.10437   0.27361   0.30350   0.31205
 Alpha virt. eigenvalues --    0.37089   0.44727   0.50285   0.56657   0.62086
 Alpha virt. eigenvalues --    0.65056   0.81718   0.94334   0.95514   1.04888

 Mulliken charges:
               1
     1  O   -0.419947
     2  H    0.223024
     3  H    0.196923
 Sum of Mulliken charges =   0.00000

 Dipole moment (field-independent basis, Debye):
    X=             -0.0266    Y=             -1.9607    Z=              0.0000  Tot=              1.9609
 Quadrupole moment (field-independent basis, Debye-Ang):
   XX=             -4.4310   YY=             -6.2755   ZZ=             -7.5390
   XY=             -0.1317   XZ=              0.0000   YZ=              0.0000

 1\1\GINC-NODE13\SP\RB2PLYPD3-FC\def2QZVP\H2O1\BOITTIER\26-Aug-2020\0\\
 #p B2PLYPD3/Def2QZVP\\h2o\\0,1\O,0,-5.326605,-0.762213,0.925878\H,0,-4
 .368927,-0.701068,0.863143\H,0,-5.609308,0.080522,0.72827\\Version=ES6
 4L-G09RevD.01\State=1-A'\HF=-76.3332404\MP2=-76.4225325\RMSD=5.675e-09
 \PG=CS [SG(H2O1)]\\@

 NOTHING MAKES A PERSON MORE PRODUCTIVE THAN THE LAST MINUTE.

 Normal termination of Gaussian 09 at Wed Aug 26 12:20:42 2020.
