 Gaussian 09, Revision D.01,
 Gaussian 09:  ES64L-G09RevD.01 24-Apr-2013

 --------------------
 #p B2PLYPD3/Def2QZVP
 --------------------

 ---
 h2o
 ---
 Symbolic Z-matrix:
 Charge =  0 Multiplicity = 1

                         Standard orientation:
 ---------------------------------------------------------------------
 Center     Atomic      Atomic             Coordinates (Angstroms)
 Number     Number       Type             X           Y           Z
 ---------------------------------------------------------------------
      1          8           0        0.000000    0.111914    0.000000
      2          1           0        0.799883   -0.419314    0.000000
      3          1           0       -0.799883   -0.476001    0.000000
 ---------------------------------------------------------------------

 SCF Done:  E(RB2PLYPD3) =  -76.3328082588     A.U. after   10 cycles
 E2(B2PLYPD3) =    -0.9043598919D-01 E(B2PLYPD3) =    -0.76423244247968D+02

 The electronic state is 1-A'.
 Alpha  occ. eigenvalues --  -19.73164  -1.14512  -0.61414  -0.46204  -0.39678
 Alpha virt. eigenvalues --    0.04399   0.09950   0.27513   0.30475   0.31107
 Alpha virt. eigenvalues --    0.34279   0.43479   0.51276   0.55226   0.63697
 Alpha virt. eigenvalues --    0.65969   0.80126   0.92790   0.96490   1.03458

 Mulliken charges:
               1
     1  O   -0.468938
     2  H    0.227731
     3  H    0.241207
 Sum of Mulliken charges =   0.00000

 Dipole moment (field-independent basis, Debye):
    X=              0.0143    Y=             -1.8855    Z=              0.0000  Tot=              1.8855
 Quadrupole moment (field-independent basis, Debye-Ang):
   XX=             -4.0605   YY=             -6.4950   ZZ=             -7.6448
   XY=              0.1017   XZ=              0.0000   YZ=              0.0000

 1\1\GINC-NODE27\SP\RB2PLYPD3-FC\def2QZVP\H2O1\BOITTIER\26-Aug-2020\0\\
 #p B2PLYPD3/Def2QZVP\\h2o\\0,1\O,0,-5.326605,-0.761532,0.91389\H,0,-4.
 368927,-0.817697,0.955296\H,0,-5.609308,0.186252,0.828793\\Version=ES6
 4L-G09RevD.01\State=1-A'\HF=-76.3328083\MP2=-76.4232442\RMSD=4.394e-09
 \PG=CS [SG(H2O1)]\\@

 The cat could very well be man's best friend

 Normal termination of Gaussian 09 at Wed Aug 26 09:13:38 2020.
