 Gaussian 09, Revision D.01,
 Gaussian 09:  ES64L-G09RevD.01 24-Apr-2013

 --------------------
 #p B2PLYPD3/Def2QZVP
 --------------------

 ---
 h2o
 ---
 Symbolic Z-matrix:
 Charge =  0 Multiplicity = 1

                         Standard orientation:
 ---------------------------------------------------------------------
 Center     Atomic      Atomic             Coordinates (Angstroms)
 Number     Number       Type             X           Y           Z
 ---------------------------------------------------------------------
      1          8           0        0.000000    0.113742    0.000000
      2          1           0        0.780816   -0.441188    0.000000
      3          1           0       -0.780816   -0.468750    0.000000
 ---------------------------------------------------------------------

 SCF Done:  E(RB2PLYPD3) =  -76.3344859252     A.U. after   10 cycles
 E2(B2PLYPD3) =    -0.9014571904D-01 E(B2PLYPD3) =    -0.76424631644268D+02

 The electronic state is 1-A'.
 Alpha  occ. eigenvalues --  -19.73108  -1.15115  -0.61519  -0.46757  -0.39823
 Alpha virt. eigenvalues --    0.04505   0.10084   0.27503   0.30441   0.31150
 Alpha virt. eigenvalues --    0.35048   0.43758   0.50846   0.55687   0.63097
 Alpha virt. eigenvalues --    0.65746   0.80703   0.93315   0.96179   1.03969

 Mulliken charges:
               1
     1  O   -0.456017
     2  H    0.224484
     3  H    0.231532
 Sum of Mulliken charges =   0.00000

 Dipole moment (field-independent basis, Debye):
    X=              0.0076    Y=             -1.9150    Z=              0.0000  Tot=              1.9151
 Quadrupole moment (field-independent basis, Debye-Ang):
   XX=             -4.1818   YY=             -6.4249   ZZ=             -7.6165
   XY=              0.0477   XZ=              0.0000   YZ=              0.0000

 1\1\GINC-NODE34\SP\RB2PLYPD3-FC\def2QZVP\H2O1\BOITTIER\26-Aug-2020\0\\
 #p B2PLYPD3/Def2QZVP\\h2o\\0,1\O,0,-5.326605,-0.762512,0.917377\H,0,-4
 .368927,-0.777381,0.933297\H,0,-5.609308,0.161617,0.794753\\Version=ES
 64L-G09RevD.01\State=1-A'\HF=-76.3344859\MP2=-76.4246316\RMSD=3.940e-0
 9\PG=CS [SG(H2O1)]\\@

 One man practicing sportsmanship is far better than 50 preaching it.

 Normal termination of Gaussian 09 at Wed Aug 26 08:31:42 2020.
