 Gaussian 09, Revision D.01,
 Gaussian 09:  ES64L-G09RevD.01 24-Apr-2013

 --------------------
 #p B2PLYPD3/Def2QZVP
 --------------------

 ---
 h2o
 ---
 Symbolic Z-matrix:
 Charge =  0 Multiplicity = 1

                         Standard orientation:
 ---------------------------------------------------------------------
 Center     Atomic      Atomic             Coordinates (Angstroms)
 Number     Number       Type             X           Y           Z
 ---------------------------------------------------------------------
      1          8           0        0.000000    0.113343    0.000000
      2          1           0        0.764913   -0.464477    0.000000
      3          1           0       -0.764913   -0.442267    0.000000
 ---------------------------------------------------------------------

 SCF Done:  E(RB2PLYPD3) =  -76.3351620538     A.U. after   10 cycles
 E2(B2PLYPD3) =    -0.8971327387D-01 E(B2PLYPD3) =    -0.76424875327644D+02

 The electronic state is 1-A'.
 Alpha  occ. eigenvalues --  -19.72928  -1.15837  -0.62008  -0.47119  -0.39968
 Alpha virt. eigenvalues --    0.04651   0.10231   0.27434   0.30402   0.31332
 Alpha virt. eigenvalues --    0.35815   0.44159   0.50765   0.55999   0.62926
 Alpha virt. eigenvalues --    0.65414   0.81176   0.93810   0.95858   1.04815

 Mulliken charges:
               1
     1  O   -0.442566
     2  H    0.224385
     3  H    0.218181
 Sum of Mulliken charges =   0.00000

 Dipole moment (field-independent basis, Debye):
    X=             -0.0064    Y=             -1.9207    Z=              0.0000  Tot=              1.9207
 Quadrupole moment (field-independent basis, Debye-Ang):
   XX=             -4.2551   YY=             -6.3881   ZZ=             -7.5824
   XY=             -0.0376   XZ=              0.0000   YZ=              0.0000

 1\1\GINC-NODE18\SP\RB2PLYPD3-FC\def2QZVP\H2O1\BOITTIER\26-Aug-2020\0\\
 #p B2PLYPD3/Def2QZVP\\h2o\\0,1\O,0,-5.326605,-0.762486,0.91452\H,0,-4.
 368927,-0.750586,0.955492\H,0,-5.609308,0.134406,0.817267\\Version=ES6
 4L-G09RevD.01\State=1-A'\HF=-76.3351621\MP2=-76.4248753\RMSD=4.059e-09
 \PG=CS [SG(H2O1)]\\@

 Boundary, n.  In political geography, an imaginary

 Normal termination of Gaussian 09 at Wed Aug 26 12:38:13 2020.
