 Gaussian 09, Revision D.01,
 Gaussian 09:  ES64L-G09RevD.01 24-Apr-2013

 --------------------
 #p B2PLYPD3/Def2QZVP
 --------------------

 ---
 h2o
 ---
 Symbolic Z-matrix:
 Charge =  0 Multiplicity = 1

                         Standard orientation:
 ---------------------------------------------------------------------
 Center     Atomic      Atomic             Coordinates (Angstroms)
 Number     Number       Type             X           Y           Z
 ---------------------------------------------------------------------
      1          8           0        0.000000    0.115829    0.000000
      2          1           0        0.765573   -0.459949    0.000000
      3          1           0       -0.765573   -0.466681    0.000000
 ---------------------------------------------------------------------

 SCF Done:  E(RB2PLYPD3) =  -76.3350890648     A.U. after   10 cycles
 E2(B2PLYPD3) =    -0.9000187174D-01 E(B2PLYPD3) =    -0.76425090936522D+02

 The electronic state is 1-A'.
 Alpha  occ. eigenvalues --  -19.73104  -1.15538  -0.61428  -0.47232  -0.39927
 Alpha virt. eigenvalues --    0.04544   0.10177   0.27503   0.30419   0.31076
 Alpha virt. eigenvalues --    0.35662   0.43933   0.50464   0.56075   0.62512
 Alpha virt. eigenvalues --    0.65639   0.81052   0.93690   0.95984   1.04012

 Mulliken charges:
               1
     1  O   -0.446602
     2  H    0.222397
     3  H    0.224205
 Sum of Mulliken charges =   0.00000

 Dipole moment (field-independent basis, Debye):
    X=              0.0020    Y=             -1.9442    Z=              0.0000  Tot=              1.9442
 Quadrupole moment (field-independent basis, Debye-Ang):
   XX=             -4.2857   YY=             -6.3603   ZZ=             -7.5985
   XY=              0.0113   XZ=              0.0000   YZ=              0.0000

 1\1\GINC-NODE09\SP\RB2PLYPD3-FC\def2QZVP\H2O1\BOITTIER\26-Aug-2020\0\\
 #p B2PLYPD3/Def2QZVP\\h2o\\0,1\O,0,-5.326605,-0.763551,0.920205\H,0,-4
 .368927,-0.742008,0.916941\H,0,-5.609308,0.142873,0.765628\\Version=ES
 64L-G09RevD.01\State=1-A'\HF=-76.3350891\MP2=-76.4250909\RMSD=3.955e-0
 9\PG=CS [SG(H2O1)]\\@

 IN THE WOODS WE RETURN TO REASON AND FAITH.

 Normal termination of Gaussian 09 at Wed Aug 26 09:07:07 2020.
