 Gaussian 09, Revision D.01,
 Gaussian 09:  ES64L-G09RevD.01 24-Apr-2013

 --------------------
 #p B2PLYPD3/Def2QZVP
 --------------------

 ---
 h2o
 ---
 Symbolic Z-matrix:
 Charge =  0 Multiplicity = 1

                         Standard orientation:
 ---------------------------------------------------------------------
 Center     Atomic      Atomic             Coordinates (Angstroms)
 Number     Number       Type             X           Y           Z
 ---------------------------------------------------------------------
      1          8           0        0.000000    0.113314    0.000000
      2          1           0        0.781201   -0.441022    0.000000
      3          1           0       -0.781201   -0.465489    0.000000
 ---------------------------------------------------------------------

 SCF Done:  E(RB2PLYPD3) =  -76.3345426555     A.U. after   10 cycles
 E2(B2PLYPD3) =    -0.9010862012D-01 E(B2PLYPD3) =    -0.76424651275581D+02

 The electronic state is 1-A'.
 Alpha  occ. eigenvalues --  -19.73084  -1.15143  -0.61604  -0.46727  -0.39826
 Alpha virt. eigenvalues --    0.04521   0.10089   0.27494   0.30439   0.31197
 Alpha virt. eigenvalues --    0.35047   0.43782   0.50905   0.55665   0.63175
 Alpha virt. eigenvalues --    0.65718   0.80708   0.93332   0.96169   1.04105

 Mulliken charges:
               1
     1  O   -0.455850
     2  H    0.224784
     3  H    0.231066
 Sum of Mulliken charges =   0.00000

 Dipole moment (field-independent basis, Debye):
    X=              0.0067    Y=             -1.9107    Z=              0.0000  Tot=              1.9107
 Quadrupole moment (field-independent basis, Debye-Ang):
   XX=             -4.1741   YY=             -6.4312   ZZ=             -7.6148
   XY=              0.0424   XZ=              0.0000   YZ=              0.0000

 1\1\GINC-NODE12\SP\RB2PLYPD3-FC\def2QZVP\H2O1\BOITTIER\26-Aug-2020\0\\
 #p B2PLYPD3/Def2QZVP\\h2o\\0,1\O,0,-5.326605,-0.762014,0.91889\H,0,-4.
 368927,-0.782401,0.918247\H,0,-5.609308,0.15867,0.78582\\Version=ES64L
 -G09RevD.01\State=1-A'\HF=-76.3345427\MP2=-76.4246513\RMSD=3.896e-09\P
 G=CS [SG(H2O1)]\\@

 ALL OUR THINKING ABOUT NATURE MUST NECESSARILY MOVE IN CIRCLES OR SPIRALS;

 Normal termination of Gaussian 09 at Wed Aug 26 12:10:41 2020.
