 Gaussian 09, Revision D.01,
 Gaussian 09:  ES64L-G09RevD.01 24-Apr-2013

 --------------------
 #p B2PLYPD3/Def2QZVP
 --------------------

 ---
 h2o
 ---
 Symbolic Z-matrix:
 Charge =  0 Multiplicity = 1

                         Standard orientation:
 ---------------------------------------------------------------------
 Center     Atomic      Atomic             Coordinates (Angstroms)
 Number     Number       Type             X           Y           Z
 ---------------------------------------------------------------------
      1          8           0        0.000000    0.118834    0.000000
      2          1           0        0.757341   -0.470824    0.000000
      3          1           0       -0.757341   -0.479849    0.000000
 ---------------------------------------------------------------------

 SCF Done:  E(RB2PLYPD3) =  -76.3349146906     A.U. after   10 cycles
 E2(B2PLYPD3) =    -0.9014928841D-01 E(B2PLYPD3) =    -0.76425063978969D+02

 The electronic state is 1-A'.
 Alpha  occ. eigenvalues --  -19.73229  -1.15558  -0.60935  -0.47579  -0.39955
 Alpha virt. eigenvalues --    0.04476   0.10187   0.27555   0.30419   0.30826
 Alpha virt. eigenvalues --    0.35878   0.43869   0.50063   0.56345   0.61892
 Alpha virt. eigenvalues --    0.65749   0.81110   0.93815   0.95996   1.03395

 Mulliken charges:
               1
     1  O   -0.444221
     2  H    0.220902
     3  H    0.223319
 Sum of Mulliken charges =   0.00000

 Dipole moment (field-independent basis, Debye):
    X=              0.0029    Y=             -1.9774    Z=              0.0000  Tot=              1.9774
 Quadrupole moment (field-independent basis, Debye-Ang):
   XX=             -4.3672   YY=             -6.3021   ZZ=             -7.6007
   XY=              0.0147   XZ=              0.0000   YZ=              0.0000

 1\1\GINC-NODE36\SP\RB2PLYPD3-FC\def2QZVP\H2O1\BOITTIER\26-Aug-2020\0\\
 #p B2PLYPD3/Def2QZVP\\h2o\\0,1\O,0,-5.326605,-0.765846,0.918663\H,0,-4
 .368927,-0.706527,0.943077\H,0,-5.609308,0.144106,0.763573\\Version=ES
 64L-G09RevD.01\State=1-A'\HF=-76.3349147\MP2=-76.425064\RMSD=4.125e-09
 \PG=CS [SG(H2O1)]\\@

 KEEP CLOSE TO NATURES HEART, YOURSELF;

 Normal termination of Gaussian 09 at Wed Aug 26 12:06:43 2020.
