 Gaussian 09, Revision D.01,
 Gaussian 09:  ES64L-G09RevD.01 24-Apr-2013

 --------------------
 #p B2PLYPD3/Def2QZVP
 --------------------

 ---
 h2o
 ---
 Symbolic Z-matrix:
 Charge =  0 Multiplicity = 1

                         Standard orientation:
 ---------------------------------------------------------------------
 Center     Atomic      Atomic             Coordinates (Angstroms)
 Number     Number       Type             X           Y           Z
 ---------------------------------------------------------------------
      1          8           0        0.000000    0.120978    0.000000
      2          1           0        0.757990   -0.471643    0.000000
      3          1           0       -0.757990   -0.496179    0.000000
 ---------------------------------------------------------------------

 SCF Done:  E(RB2PLYPD3) =  -76.3343148691     A.U. after   10 cycles
 E2(B2PLYPD3) =    -0.9041916869D-01 E(B2PLYPD3) =    -0.76424734037820D+02

 The electronic state is 1-A'.
 Alpha  occ. eigenvalues --  -19.73381  -1.15294  -0.60438  -0.47661  -0.39919
 Alpha virt. eigenvalues --    0.04375   0.10133   0.27618   0.30432   0.30574
 Alpha virt. eigenvalues --    0.35712   0.43681   0.49832   0.56395   0.61560
 Alpha virt. eigenvalues --    0.65946   0.80980   0.93686   0.96130   1.02680

 Mulliken charges:
               1
     1  O   -0.447383
     2  H    0.220526
     3  H    0.226858
 Sum of Mulliken charges =   0.00000

 Dipole moment (field-independent basis, Debye):
    X=              0.0081    Y=             -1.9969    Z=              0.0000  Tot=              1.9969
 Quadrupole moment (field-independent basis, Debye-Ang):
   XX=             -4.3939   YY=             -6.2770   ZZ=             -7.6152
   XY=              0.0394   XZ=              0.0000   YZ=              0.0000

 1\1\GINC-NODE12\SP\RB2PLYPD3-FC\def2QZVP\H2O1\BOITTIER\26-Aug-2020\0\\
 #p B2PLYPD3/Def2QZVP\\h2o\\0,1\O,0,-5.326605,-0.764748,0.92961\H,0,-4.
 368927,-0.71798,0.849523\H,0,-5.609308,0.137994,0.683507\\Version=ES64
 L-G09RevD.01\State=1-A'\HF=-76.3343149\MP2=-76.424734\RMSD=4.242e-09\P
 G=CS [SG(H2O1)]\\@

 The juvenile sea squirt wanders through the sea searching

 Normal termination of Gaussian 09 at Wed Aug 26 08:13:46 2020.
