 Gaussian 09, Revision D.01,
 Gaussian 09:  ES64L-G09RevD.01 24-Apr-2013

 --------------------
 #p B2PLYPD3/Def2QZVP
 --------------------

 ---
 h2o
 ---
 Symbolic Z-matrix:
 Charge =  0 Multiplicity = 1

                         Standard orientation:
 ---------------------------------------------------------------------
 Center     Atomic      Atomic             Coordinates (Angstroms)
 Number     Number       Type             X           Y           Z
 ---------------------------------------------------------------------
      1          8           0        0.000000    0.120941    0.000000
      2          1           0        0.735172   -0.501980    0.000000
      3          1           0       -0.735172   -0.465547    0.000000
 ---------------------------------------------------------------------

 SCF Done:  E(RB2PLYPD3) =  -76.3344956417     A.U. after   10 cycles
 E2(B2PLYPD3) =    -0.8988867769D-01 E(B2PLYPD3) =    -0.76424384319419D+02

 The electronic state is 1-A'.
 Alpha  occ. eigenvalues --  -19.73160  -1.16273  -0.60911  -0.48223  -0.40109
 Alpha virt. eigenvalues --    0.04529   0.10336   0.27524   0.30384   0.30779
 Alpha virt. eigenvalues --    0.36756   0.44200   0.49741   0.56872   0.61228
 Alpha virt. eigenvalues --    0.65524   0.81447   0.94399   0.95751   1.03644

 Mulliken charges:
               1
     1  O   -0.430194
     2  H    0.220395
     3  H    0.209799
 Sum of Mulliken charges =   0.00000

 Dipole moment (field-independent basis, Debye):
    X=             -0.0127    Y=             -2.0097    Z=              0.0000  Tot=              2.0098
 Quadrupole moment (field-independent basis, Debye-Ang):
   XX=             -4.5021   YY=             -6.2178   ZZ=             -7.5719
   XY=             -0.0564   XZ=              0.0000   YZ=              0.0000

 1\1\GINC-NODE39\SP\RB2PLYPD3-FC\def2QZVP\H2O1\BOITTIER\26-Aug-2020\0\\
 #p B2PLYPD3/Def2QZVP\\h2o\\0,1\O,0,-5.326605,-0.766189,0.924494\H,0,-4
 .368927,-0.66283,0.898469\H,0,-5.609308,0.105896,0.714752\\Version=ES6
 4L-G09RevD.01\State=1-A'\HF=-76.3344956\MP2=-76.4243843\RMSD=4.782e-09
 \PG=CS [SG(H2O1)]\\@

 BE NOT THE FIRST BY WHOM THE NEW ARE TRIED,

 Normal termination of Gaussian 09 at Wed Aug 26 12:14:27 2020.
