 Gaussian 09, Revision D.01,
 Gaussian 09:  ES64L-G09RevD.01 24-Apr-2013

 --------------------
 #p B2PLYPD3/Def2QZVP
 --------------------

 ---
 h2o
 ---
 Symbolic Z-matrix:
 Charge =  0 Multiplicity = 1

                         Standard orientation:
 ---------------------------------------------------------------------
 Center     Atomic      Atomic             Coordinates (Angstroms)
 Number     Number       Type             X           Y           Z
 ---------------------------------------------------------------------
      1          8           0        0.000000    0.116521    0.000000
      2          1           0        0.755128   -0.475278    0.000000
      3          1           0       -0.755128   -0.456889    0.000000
 ---------------------------------------------------------------------

 SCF Done:  E(RB2PLYPD3) =  -76.3351872456     A.U. after   10 cycles
 E2(B2PLYPD3) =    -0.8983138520D-01 E(B2PLYPD3) =    -0.76425018630805D+02

 The electronic state is 1-A'.
 Alpha  occ. eigenvalues --  -19.73049  -1.15912  -0.61513  -0.47519  -0.40007
 Alpha virt. eigenvalues --    0.04591   0.10254   0.27481   0.30400   0.31085
 Alpha virt. eigenvalues --    0.36119   0.44117   0.50312   0.56313   0.62240
 Alpha virt. eigenvalues --    0.65506   0.81277   0.93967   0.95833   1.04218

 Mulliken charges:
               1
     1  O   -0.439208
     2  H    0.222184
     3  H    0.217024
 Sum of Mulliken charges =   0.00000

 Dipole moment (field-independent basis, Debye):
    X=             -0.0057    Y=             -1.9569    Z=              0.0000  Tot=              1.9569
 Quadrupole moment (field-independent basis, Debye-Ang):
   XX=             -4.3459   YY=             -6.3243   ZZ=             -7.5823
   XY=             -0.0301   XZ=              0.0000   YZ=              0.0000

 1\1\GINC-NODE19\SP\RB2PLYPD3-FC\def2QZVP\H2O1\BOITTIER\26-Aug-2020\0\\
 #p B2PLYPD3/Def2QZVP\\h2o\\0,1\O,0,-5.326605,-0.763103,0.924582\H,0,-4
 .368927,-0.72783,0.879271\H,0,-5.609308,0.121527,0.733463\\Version=ES6
 4L-G09RevD.01\State=1-A'\HF=-76.3351872\MP2=-76.4250186\RMSD=4.185e-09
 \PG=CS [SG(H2O1)]\\@

 WISDOM IS KNOWING WHAT TO DO,

 Normal termination of Gaussian 09 at Wed Aug 26 10:51:50 2020.
