 Gaussian 09, Revision D.01,
 Gaussian 09:  ES64L-G09RevD.01 24-Apr-2013

 --------------------
 #p B2PLYPD3/Def2QZVP
 --------------------

 ---
 h2o
 ---
 Symbolic Z-matrix:
 Charge =  0 Multiplicity = 1

                         Standard orientation:
 ---------------------------------------------------------------------
 Center     Atomic      Atomic             Coordinates (Angstroms)
 Number     Number       Type             X           Y           Z
 ---------------------------------------------------------------------
      1          8           0        0.000000    0.121606    0.000000
      2          1           0        0.754856   -0.472833    0.000000
      3          1           0       -0.754856   -0.500015    0.000000
 ---------------------------------------------------------------------

 SCF Done:  E(RB2PLYPD3) =  -76.3342576868     A.U. after   10 cycles
 E2(B2PLYPD3) =    -0.9042147234D-01 E(B2PLYPD3) =    -0.76424679159105D+02

 The electronic state is 1-A'.
 Alpha  occ. eigenvalues --  -19.73395  -1.15354  -0.60362  -0.47767  -0.39936
 Alpha virt. eigenvalues --    0.04369   0.10146   0.27624   0.30429   0.30532
 Alpha virt. eigenvalues --    0.35812   0.43698   0.49751   0.56480   0.61415
 Alpha virt. eigenvalues --    0.65943   0.81017   0.93759   0.96117   1.02614

 Mulliken charges:
               1
     1  O   -0.445887
     2  H    0.219415
     3  H    0.226473
 Sum of Mulliken charges =   0.00000

 Dipole moment (field-independent basis, Debye):
    X=              0.0091    Y=             -2.0045    Z=              0.0000  Tot=              2.0045
 Quadrupole moment (field-independent basis, Debye-Ang):
   XX=             -4.4178   YY=             -6.2610   ZZ=             -7.6132
   XY=              0.0433   XZ=              0.0000   YZ=              0.0000

 1\1\GINC-NODE25\SP\RB2PLYPD3-FC\def2QZVP\H2O1\BOITTIER\26-Aug-2020\0\\
 #p B2PLYPD3/Def2QZVP\\h2o\\0,1\O,0,-5.326605,-0.766338,0.925773\H,0,-4
 .368927,-0.697685,0.889647\H,0,-5.609308,0.143144,0.704093\\Version=ES
 64L-G09RevD.01\State=1-A'\HF=-76.3342577\MP2=-76.4246792\RMSD=4.320e-0
 9\PG=CS [SG(H2O1)]\\@

 COMMON SENSE IS NOT SO COMMON.   -- VOLTAIRE

 Normal termination of Gaussian 09 at Wed Aug 26 11:57:41 2020.
