 Gaussian 09, Revision D.01,
 Gaussian 09:  ES64L-G09RevD.01 24-Apr-2013

 --------------------
 #p B2PLYPD3/Def2QZVP
 --------------------

 ---
 h2o
 ---
 Symbolic Z-matrix:
 Charge =  0 Multiplicity = 1

                         Standard orientation:
 ---------------------------------------------------------------------
 Center     Atomic      Atomic             Coordinates (Angstroms)
 Number     Number       Type             X           Y           Z
 ---------------------------------------------------------------------
      1          8           0        0.000000    0.121421    0.000000
      2          1           0        0.731648   -0.507283    0.000000
      3          1           0       -0.731648   -0.464083    0.000000
 ---------------------------------------------------------------------

 SCF Done:  E(RB2PLYPD3) =  -76.3342529138     A.U. after   10 cycles
 E2(B2PLYPD3) =    -0.8986823392D-01 E(B2PLYPD3) =    -0.76424121147752D+02

 The electronic state is 1-A'.
 Alpha  occ. eigenvalues --  -19.73159  -1.16372  -0.60868  -0.48331  -0.40131
 Alpha virt. eigenvalues --    0.04528   0.10356   0.27523   0.30379   0.30750
 Alpha virt. eigenvalues --    0.36877   0.44244   0.49684   0.56957   0.61103
 Alpha virt. eigenvalues --    0.65498   0.81479   0.94475   0.95726   1.03632

 Mulliken charges:
               1
     1  O   -0.428162
     2  H    0.220431
     3  H    0.207731
 Sum of Mulliken charges =   0.00000

 Dipole moment (field-independent basis, Debye):
    X=             -0.0152    Y=             -2.0161    Z=              0.0000  Tot=              2.0162
 Quadrupole moment (field-independent basis, Debye-Ang):
   XX=             -4.5252   YY=             -6.2024   ZZ=             -7.5684
   XY=             -0.0664   XZ=              0.0000   YZ=              0.0000

 1\1\GINC-NODE40\SP\RB2PLYPD3-FC\def2QZVP\H2O1\BOITTIER\26-Aug-2020\0\\
 #p B2PLYPD3/Def2QZVP\\h2o\\0,1\O,0,-5.326605,-0.766439,0.924818\H,0,-4
 .368927,-0.65385,0.897355\H,0,-5.609308,0.100913,0.710569\\Version=ES6
 4L-G09RevD.01\State=1-A'\HF=-76.3342529\MP2=-76.4241211\RMSD=4.946e-09
 \PG=CS [SG(H2O1)]\\@

 WE STILL HAVE JUDGEMENT HERE,

 Normal termination of Gaussian 09 at Wed Aug 26 12:36:47 2020.
