 Gaussian 09, Revision D.01,
 Gaussian 09:  ES64L-G09RevD.01 24-Apr-2013

 --------------------
 #p B2PLYPD3/Def2QZVP
 --------------------

 ---
 h2o
 ---
 Symbolic Z-matrix:
 Charge =  0 Multiplicity = 1

                         Standard orientation:
 ---------------------------------------------------------------------
 Center     Atomic      Atomic             Coordinates (Angstroms)
 Number     Number       Type             X           Y           Z
 ---------------------------------------------------------------------
      1          8           0        0.000000    0.121575    0.000000
      2          1           0        0.788318   -0.425043    0.000000
      3          1           0       -0.788318   -0.547558    0.000000
 ---------------------------------------------------------------------

 SCF Done:  E(RB2PLYPD3) =  -76.3291988754     A.U. after   10 cycles
 E2(B2PLYPD3) =    -0.9125289389D-01 E(B2PLYPD3) =    -0.76420451769243D+02

 The electronic state is 1-A'.
 Alpha  occ. eigenvalues --  -19.73677  -1.14058  -0.59655  -0.46885  -0.39660
 Alpha virt. eigenvalues --    0.04019   0.09836   0.27710   0.29807   0.30498
 Alpha virt. eigenvalues --    0.34498   0.43107   0.49951   0.55678   0.61984
 Alpha virt. eigenvalues --    0.66473   0.80088   0.92077   0.96663   1.01081

 Mulliken charges:
               1
     1  O   -0.467325
     2  H    0.220259
     3  H    0.247066
 Sum of Mulliken charges =   0.00000

 Dipole moment (field-independent basis, Debye):
    X=              0.0379    Y=             -1.9825    Z=              0.0000  Tot=              1.9828
 Quadrupole moment (field-independent basis, Debye-Ang):
   XX=             -4.2519   YY=             -6.3371   ZZ=             -7.6780
   XY=              0.2058   XZ=              0.0000   YZ=              0.0000

 1\1\GINC-NODE34\SP\RB2PLYPD3-FC\def2QZVP\H2O1\BOITTIER\26-Aug-2020\0\\
 #p B2PLYPD3/Def2QZVP\\h2o\\0,1\O,0,-5.326605,-0.767879,0.917209\H,0,-4
 .368927,-0.744646,0.96771\H,0,-5.609308,0.214748,0.763234\\Version=ES6
 4L-G09RevD.01\State=1-A'\HF=-76.3291989\MP2=-76.4204518\RMSD=5.735e-09
 \PG=CS [SG(H2O1)]\\@

 THEREFORE SHALL EVIL COME UPON THEE...

 Normal termination of Gaussian 09 at Wed Aug 26 08:55:56 2020.
