 Gaussian 09, Revision D.01,
 Gaussian 09:  ES64L-G09RevD.01 24-Apr-2013

 --------------------
 #p B2PLYPD3/Def2QZVP
 --------------------

 ---
 h2o
 ---
 Symbolic Z-matrix:
 Charge =  0 Multiplicity = 1

                         Standard orientation:
 ---------------------------------------------------------------------
 Center     Atomic      Atomic             Coordinates (Angstroms)
 Number     Number       Type             X           Y           Z
 ---------------------------------------------------------------------
      1          8           0        0.000000    0.110710    0.000000
      2          1           0        0.763845   -0.467795    0.000000
      3          1           0       -0.763845   -0.417883    0.000000
 ---------------------------------------------------------------------

 SCF Done:  E(RB2PLYPD3) =  -76.3346347663     A.U. after   10 cycles
 E2(B2PLYPD3) =    -0.8941234026D-01 E(B2PLYPD3) =    -0.76424047106568D+02

 The electronic state is 1-A'.
 Alpha  occ. eigenvalues --  -19.72737  -1.16172  -0.62636  -0.46997  -0.40015
 Alpha virt. eigenvalues --    0.04757   0.10285   0.27360   0.30382   0.31565
 Alpha virt. eigenvalues --    0.35978   0.44419   0.51097   0.55912   0.63377
 Alpha virt. eigenvalues --    0.65172   0.81301   0.93904   0.95740   1.05463

 Mulliken charges:
               1
     1  O   -0.437368
     2  H    0.225956
     3  H    0.211412
 Sum of Mulliken charges =   0.00000

 Dipole moment (field-independent basis, Debye):
    X=             -0.0137    Y=             -1.8954    Z=              0.0000  Tot=              1.8954
 Quadrupole moment (field-independent basis, Debye-Ang):
   XX=             -4.2250   YY=             -6.4149   ZZ=             -7.5651
   XY=             -0.0855   XZ=              0.0000   YZ=              0.0000

 1\1\GINC-NODE16\SP\RB2PLYPD3-FC\def2QZVP\H2O1\BOITTIER\26-Aug-2020\0\\
 #p B2PLYPD3/Def2QZVP\\h2o\\0,1\O,0,-5.326605,-0.760658,0.914389\H,0,-4
 .368927,-0.765545,0.945307\H,0,-5.609308,0.120109,0.829547\\Version=ES
 64L-G09RevD.01\State=1-A'\HF=-76.3346348\MP2=-76.4240471\RMSD=4.594e-0
 9\PG=CS [SG(H2O1)]\\@

 LAWS OF PROGRAMMING DEFINITION:  A WORKING PROGRAM

 Normal termination of Gaussian 09 at Wed Aug 26 08:50:21 2020.
