 Gaussian 09, Revision D.01,
 Gaussian 09:  ES64L-G09RevD.01 24-Apr-2013

 --------------------
 #p B2PLYPD3/Def2QZVP
 --------------------

 ---
 h2o
 ---
 Symbolic Z-matrix:
 Charge =  0 Multiplicity = 1

                         Standard orientation:
 ---------------------------------------------------------------------
 Center     Atomic      Atomic             Coordinates (Angstroms)
 Number     Number       Type             X           Y           Z
 ---------------------------------------------------------------------
      1          8           0        0.000000    0.119523    0.000000
      2          1           0        0.756178   -0.471612    0.000000
      3          1           0       -0.756178   -0.484575    0.000000
 ---------------------------------------------------------------------

 SCF Done:  E(RB2PLYPD3) =  -76.3348058928     A.U. after   10 cycles
 E2(B2PLYPD3) =    -0.9020286177D-01 E(B2PLYPD3) =    -0.76425008754592D+02

 The electronic state is 1-A'.
 Alpha  occ. eigenvalues --  -19.73265  -1.15531  -0.60804  -0.47640  -0.39955
 Alpha virt. eigenvalues --    0.04454   0.10182   0.27570   0.30420   0.30760
 Alpha virt. eigenvalues --    0.35889   0.43838   0.49980   0.56391   0.61764
 Alpha virt. eigenvalues --    0.65788   0.81100   0.93821   0.96015   1.03223

 Mulliken charges:
               1
     1  O   -0.444249
     2  H    0.220397
     3  H    0.223852
 Sum of Mulliken charges =   0.00000

 Dipole moment (field-independent basis, Debye):
    X=              0.0042    Y=             -1.9845    Z=              0.0000  Tot=              1.9845
 Quadrupole moment (field-independent basis, Debye-Ang):
   XX=             -4.3824   YY=             -6.2906   ZZ=             -7.6027
   XY=              0.0209   XZ=              0.0000   YZ=              0.0000

 1\1\GINC-NODE23\SP\RB2PLYPD3-FC\def2QZVP\H2O1\BOITTIER\26-Aug-2020\0\\
 #p B2PLYPD3/Def2QZVP\\h2o\\0,1\O,0,-5.326605,-0.76517,0.924704\H,0,-4.
 368927,-0.710744,0.890993\H,0,-5.609308,0.13751,0.719793\\Version=ES64
 L-G09RevD.01\State=1-A'\HF=-76.3348059\MP2=-76.4250088\RMSD=4.171e-09\
 PG=CS [SG(H2O1)]\\@

 There are more things in heaven and earth, Horatio,

 Normal termination of Gaussian 09 at Wed Aug 26 10:03:17 2020.
