 Gaussian 09, Revision D.01,
 Gaussian 09:  ES64L-G09RevD.01 24-Apr-2013

 --------------------
 #p B2PLYPD3/Def2QZVP
 --------------------

 ---
 h2o
 ---
 Symbolic Z-matrix:
 Charge =  0 Multiplicity = 1

                         Standard orientation:
 ---------------------------------------------------------------------
 Center     Atomic      Atomic             Coordinates (Angstroms)
 Number     Number       Type             X           Y           Z
 ---------------------------------------------------------------------
      1          8           0        0.000000    0.116288    0.000000
      2          1           0        0.754624   -0.476118    0.000000
      3          1           0       -0.754624   -0.454187    0.000000
 ---------------------------------------------------------------------

 SCF Done:  E(RB2PLYPD3) =  -76.3351758000     A.U. after   10 cycles
 E2(B2PLYPD3) =    -0.8979342759D-01 E(B2PLYPD3) =    -0.76424969227633D+02

 The electronic state is 1-A'.
 Alpha  occ. eigenvalues --  -19.73028  -1.15961  -0.61578  -0.47519  -0.40015
 Alpha virt. eigenvalues --    0.04604   0.10263   0.27472   0.30397   0.31111
 Alpha virt. eigenvalues --    0.36156   0.44150   0.50336   0.56314   0.62271
 Alpha virt. eigenvalues --    0.65476   0.81300   0.93986   0.95812   1.04305

 Mulliken charges:
               1
     1  O   -0.438434
     2  H    0.222314
     3  H    0.216121
 Sum of Mulliken charges =   0.00000

 Dipole moment (field-independent basis, Debye):
    X=             -0.0068    Y=             -1.9550    Z=              0.0000  Tot=              1.9550
 Quadrupole moment (field-independent basis, Debye-Ang):
   XX=             -4.3452   YY=             -6.3257   ZZ=             -7.5799
   XY=             -0.0360   XZ=              0.0000   YZ=              0.0000

 1\1\GINC-NODE25\SP\RB2PLYPD3-FC\def2QZVP\H2O1\BOITTIER\26-Aug-2020\0\\
 #p B2PLYPD3/Def2QZVP\\h2o\\0,1\O,0,-5.326605,-0.762965,0.92448\H,0,-4.
 368927,-0.728226,0.879223\H,0,-5.609308,0.119712,0.735112\\Version=ES6
 4L-G09RevD.01\State=1-A'\HF=-76.3351758\MP2=-76.4249692\RMSD=4.222e-09
 \PG=CS [SG(H2O1)]\\@

 ERWIN WITH HIS PSI CAN DO

 Normal termination of Gaussian 09 at Wed Aug 26 10:33:08 2020.
