 Gaussian 09, Revision D.01,
 Gaussian 09:  ES64L-G09RevD.01 24-Apr-2013

 --------------------
 #p B2PLYPD3/Def2QZVP
 --------------------

 ---
 h2o
 ---
 Symbolic Z-matrix:
 Charge =  0 Multiplicity = 1

                         Standard orientation:
 ---------------------------------------------------------------------
 Center     Atomic      Atomic             Coordinates (Angstroms)
 Number     Number       Type             X           Y           Z
 ---------------------------------------------------------------------
      1          8           0        0.000000    0.115275    0.000000
      2          1           0        0.703305   -0.549317    0.000000
      3          1           0       -0.703305   -0.372883    0.000000
 ---------------------------------------------------------------------

 SCF Done:  E(RB2PLYPD3) =  -76.3229287992     A.U. after   10 cycles
 E2(B2PLYPD3) =    -0.8858108961D-01 E(B2PLYPD3) =    -0.76411509888794D+02

 The electronic state is 1-A'.
 Alpha  occ. eigenvalues --  -19.72387  -1.18569  -0.62932  -0.48592  -0.40470
 Alpha virt. eigenvalues --    0.04827   0.10690   0.27136   0.30279   0.31145
 Alpha virt. eigenvalues --    0.38296   0.45830   0.50212   0.57091   0.61801
 Alpha virt. eigenvalues --    0.64419   0.82155   0.94195   0.95380   1.05161

 Mulliken charges:
               1
     1  O   -0.383415
     2  H    0.225073
     3  H    0.158342
 Sum of Mulliken charges =   0.00000

 Dipole moment (field-independent basis, Debye):
    X=             -0.0604    Y=             -1.9712    Z=              0.0000  Tot=              1.9721
 Quadrupole moment (field-independent basis, Debye-Ang):
   XX=             -4.5665   YY=             -6.1801   ZZ=             -7.4768
   XY=             -0.2679   XZ=              0.0000   YZ=              0.0000

 1\1\GINC-NODE26\SP\RB2PLYPD3-FC\def2QZVP\H2O1\BOITTIER\26-Aug-2020\0\\
 #p B2PLYPD3/Def2QZVP\\h2o\\0,1\O,0,-5.326605,-0.761092,0.928246\H,0,-4
 .368927,-0.657056,0.836872\H,0,-5.609308,0.018569,0.715777\\Version=ES
 64L-G09RevD.01\State=1-A'\HF=-76.3229288\MP2=-76.4115099\RMSD=6.624e-0
 9\PG=CS [SG(H2O1)]\\@

 THE MOST INCOMPREHENSIBLE THING ABOUT THE WORLD

 Normal termination of Gaussian 09 at Wed Aug 26 08:36:32 2020.
