 Gaussian 09, Revision D.01,
 Gaussian 09:  ES64L-G09RevD.01 24-Apr-2013

 --------------------
 #p B2PLYPD3/Def2QZVP
 --------------------

 ---
 h2o
 ---
 Symbolic Z-matrix:
 Charge =  0 Multiplicity = 1

                         Standard orientation:
 ---------------------------------------------------------------------
 Center     Atomic      Atomic             Coordinates (Angstroms)
 Number     Number       Type             X           Y           Z
 ---------------------------------------------------------------------
      1          8           0        0.000000    0.121157    0.000000
      2          1           0        0.797843   -0.410435    0.000000
      3          1           0       -0.797843   -0.558821    0.000000
 ---------------------------------------------------------------------

 SCF Done:  E(RB2PLYPD3) =  -76.3271486931     A.U. after   10 cycles
 E2(B2PLYPD3) =    -0.9145631265D-01 E(B2PLYPD3) =    -0.76418605005711D+02

 The electronic state is 1-A'.
 Alpha  occ. eigenvalues --  -19.73724  -1.13752  -0.59528  -0.46610  -0.39586
 Alpha virt. eigenvalues --    0.03910   0.09756   0.27707   0.29557   0.30515
 Alpha virt. eigenvalues --    0.34233   0.42983   0.50078   0.55428   0.62218
 Alpha virt. eigenvalues --    0.66580   0.79782   0.91542   0.96777   1.00800

 Mulliken charges:
               1
     1  O   -0.472677
     2  H    0.220776
     3  H    0.251901
 Sum of Mulliken charges =   0.00000

 Dipole moment (field-independent basis, Debye):
    X=              0.0444    Y=             -1.9720    Z=              0.0000  Tot=              1.9725
 Quadrupole moment (field-independent basis, Debye-Ang):
   XX=             -4.1977   YY=             -6.3615   ZZ=             -7.6945
   XY=              0.2534   XZ=              0.0000   YZ=              0.0000

 1\1\GINC-NODE28\SP\RB2PLYPD3-FC\def2QZVP\H2O1\BOITTIER\26-Aug-2020\0\\
 #p B2PLYPD3/Def2QZVP\\h2o\\0,1\O,0,-5.326605,-0.767551,0.917666\H,0,-4
 .368927,-0.764937,0.962274\H,0,-5.609308,0.229803,0.761818\\Version=ES
 64L-G09RevD.01\State=1-A'\HF=-76.3271487\MP2=-76.418605\RMSD=6.358e-09
 \PG=CS [SG(H2O1)]\\@

 THE WORLD OF CHEMICAL REACTIONS IS LIKE A STAGE,

 Normal termination of Gaussian 09 at Wed Aug 26 08:42:57 2020.
