 Gaussian 09, Revision D.01,
 Gaussian 09:  ES64L-G09RevD.01 24-Apr-2013

 --------------------
 #p B2PLYPD3/Def2QZVP
 --------------------

 ---
 h2o
 ---
 Symbolic Z-matrix:
 Charge =  0 Multiplicity = 1

                         Standard orientation:
 ---------------------------------------------------------------------
 Center     Atomic      Atomic             Coordinates (Angstroms)
 Number     Number       Type             X           Y           Z
 ---------------------------------------------------------------------
      1          8           0        0.000000    0.121938    0.000000
      2          1           0        0.784117   -0.429528    0.000000
      3          1           0       -0.784117   -0.545975    0.000000
 ---------------------------------------------------------------------

 SCF Done:  E(RB2PLYPD3) =  -76.3297382240     A.U. after   10 cycles
 E2(B2PLYPD3) =    -0.9118948882D-01 E(B2PLYPD3) =    -0.76420927712836D+02

 The electronic state is 1-A'.
 Alpha  occ. eigenvalues --  -19.73666  -1.14181  -0.59672  -0.47008  -0.39690
 Alpha virt. eigenvalues --    0.04048   0.09867   0.27711   0.29854   0.30491
 Alpha virt. eigenvalues --    0.34632   0.43159   0.49880   0.55784   0.61860
 Alpha virt. eigenvalues --    0.66434   0.80200   0.92247   0.96624   1.01152

 Mulliken charges:
               1
     1  O   -0.464941
     2  H    0.219529
     3  H    0.245412
 Sum of Mulliken charges =   0.00000

 Dipole moment (field-independent basis, Debye):
    X=              0.0366    Y=             -1.9885    Z=              0.0000  Tot=              1.9889
 Quadrupole moment (field-independent basis, Debye-Ang):
   XX=             -4.2781   YY=             -6.3228   ZZ=             -7.6720
   XY=              0.1940   XZ=              0.0000   YZ=              0.0000

 1\1\GINC-NODE22\SP\RB2PLYPD3-FC\def2QZVP\H2O1\BOITTIER\26-Aug-2020\0\\
 #p B2PLYPD3/Def2QZVP\\h2o\\0,1\O,0,-5.326605,-0.767844,0.91948\H,0,-4.
 368927,-0.73765,0.949398\H,0,-5.609308,0.207196,0.745348\\Version=ES64
 L-G09RevD.01\State=1-A'\HF=-76.3297382\MP2=-76.4209277\RMSD=5.595e-09\
 PG=CS [SG(H2O1)]\\@

 THOUGH I SPEAK WITH THE TONGUES OF MEN AND OF ANGELS,

 Normal termination of Gaussian 09 at Wed Aug 26 09:21:30 2020.
