 Gaussian 09, Revision D.01,
 Gaussian 09:  ES64L-G09RevD.01 24-Apr-2013

 --------------------
 #p B2PLYPD3/Def2QZVP
 --------------------

 ---
 h2o
 ---
 Symbolic Z-matrix:
 Charge =  0 Multiplicity = 1

                         Standard orientation:
 ---------------------------------------------------------------------
 Center     Atomic      Atomic             Coordinates (Angstroms)
 Number     Number       Type             X           Y           Z
 ---------------------------------------------------------------------
      1          8           0        0.000000    0.116198    0.000000
      2          1           0        0.754148   -0.476715    0.000000
      3          1           0       -0.754148   -0.452872    0.000000
 ---------------------------------------------------------------------

 SCF Done:  E(RB2PLYPD3) =  -76.3351643624     A.U. after   10 cycles
 E2(B2PLYPD3) =    -0.8977221499D-01 E(B2PLYPD3) =    -0.76424936577428D+02

 The electronic state is 1-A'.
 Alpha  occ. eigenvalues --  -19.73017  -1.15992  -0.61610  -0.47526  -0.40021
 Alpha virt. eigenvalues --    0.04611   0.10269   0.27467   0.30395   0.31122
 Alpha virt. eigenvalues --    0.36184   0.44170   0.50343   0.56320   0.62279
 Alpha virt. eigenvalues --    0.65460   0.81315   0.94001   0.95800   1.04348

 Mulliken charges:
               1
     1  O   -0.437900
     2  H    0.222330
     3  H    0.215571
 Sum of Mulliken charges =   0.00000

 Dipole moment (field-independent basis, Debye):
    X=             -0.0074    Y=             -1.9544    Z=              0.0000  Tot=              1.9544
 Quadrupole moment (field-independent basis, Debye-Ang):
   XX=             -4.3462   YY=             -6.3255   ZZ=             -7.5784
   XY=             -0.0391   XZ=              0.0000   YZ=              0.0000

 1\1\GINC-NODE36\SP\RB2PLYPD3-FC\def2QZVP\H2O1\BOITTIER\26-Aug-2020\0\\
 #p B2PLYPD3/Def2QZVP\\h2o\\0,1\O,0,-5.326605,-0.762957,0.924259\H,0,-4
 .368927,-0.727475,0.880915\H,0,-5.609308,0.118834,0.736901\\Version=ES
 64L-G09RevD.01\State=1-A'\HF=-76.3351644\MP2=-76.4249366\RMSD=4.248e-0
 9\PG=CS [SG(H2O1)]\\@

 IT IS A QUALITY OF REVOLUTIONS NOT TO GO BY OLD LINES OR OLD LAWS,

 Normal termination of Gaussian 09 at Wed Aug 26 09:33:18 2020.
