 Gaussian 09, Revision D.01,
 Gaussian 09:  ES64L-G09RevD.01 24-Apr-2013

 --------------------
 #p B2PLYPD3/Def2QZVP
 --------------------

 ---
 h2o
 ---
 Symbolic Z-matrix:
 Charge =  0 Multiplicity = 1

                         Standard orientation:
 ---------------------------------------------------------------------
 Center     Atomic      Atomic             Coordinates (Angstroms)
 Number     Number       Type             X           Y           Z
 ---------------------------------------------------------------------
      1          8           0        0.000000    0.115704    0.000000
      2          1           0        0.739415   -0.496705    0.000000
      3          1           0       -0.739415   -0.428926    0.000000
 ---------------------------------------------------------------------

 SCF Done:  E(RB2PLYPD3) =  -76.3339714246     A.U. after   10 cycles
 E2(B2PLYPD3) =    -0.8938122353D-01 E(B2PLYPD3) =    -0.76423352648177D+02

 The electronic state is 1-A'.
 Alpha  occ. eigenvalues --  -19.72831  -1.16715  -0.62058  -0.47845  -0.40155
 Alpha virt. eigenvalues --    0.04713   0.10402   0.27383   0.30359   0.31216
 Alpha virt. eigenvalues --    0.36897   0.44602   0.50315   0.56579   0.62155
 Alpha virt. eigenvalues --    0.65137   0.81644   0.94298   0.95556   1.04863

 Mulliken charges:
               1
     1  O   -0.424088
     2  H    0.222510
     3  H    0.201579
 Sum of Mulliken charges =   0.00000

 Dipole moment (field-independent basis, Debye):
    X=             -0.0216    Y=             -1.9578    Z=              0.0000  Tot=              1.9579
 Quadrupole moment (field-independent basis, Debye-Ang):
   XX=             -4.4094   YY=             -6.2897   ZZ=             -7.5470
   XY=             -0.1088   XZ=              0.0000   YZ=              0.0000

 1\1\GINC-NODE17\SP\RB2PLYPD3-FC\def2QZVP\H2O1\BOITTIER\26-Aug-2020\0\\
 #p B2PLYPD3/Def2QZVP\\h2o\\0,1\O,0,-5.326605,-0.762961,0.922733\H,0,-4
 .368927,-0.701852,0.892762\H,0,-5.609308,0.093279,0.748696\\Version=ES
 64L-G09RevD.01\State=1-A'\HF=-76.3339714\MP2=-76.4233526\RMSD=5.283e-0
 9\PG=CS [SG(H2O1)]\\@

 "A LITTLE BIT GOES A LONG WAY"

 Normal termination of Gaussian 09 at Wed Aug 26 08:32:32 2020.
