 Gaussian 09, Revision D.01,
 Gaussian 09:  ES64L-G09RevD.01 24-Apr-2013

 --------------------
 #p B2PLYPD3/Def2QZVP
 --------------------

 ---
 h2o
 ---
 Symbolic Z-matrix:
 Charge =  0 Multiplicity = 1

                         Standard orientation:
 ---------------------------------------------------------------------
 Center     Atomic      Atomic             Coordinates (Angstroms)
 Number     Number       Type             X           Y           Z
 ---------------------------------------------------------------------
      1          8           0        0.000000    0.119326    0.000000
      2          1           0        0.796006   -0.415460    0.000000
      3          1           0       -0.796006   -0.539145    0.000000
 ---------------------------------------------------------------------

 SCF Done:  E(RB2PLYPD3) =  -76.3291941072     A.U. after   10 cycles
 E2(B2PLYPD3) =    -0.9118196623D-01 E(B2PLYPD3) =    -0.76420376073442D+02

 The electronic state is 1-A'.
 Alpha  occ. eigenvalues --  -19.73597  -1.13981  -0.59947  -0.46601  -0.39622
 Alpha virt. eigenvalues --    0.04050   0.09819   0.27668   0.29967   0.30504
 Alpha virt. eigenvalues --    0.34307   0.43106   0.50283   0.55459   0.62452
 Alpha virt. eigenvalues --    0.66431   0.79946   0.91985   0.96681   1.01303

 Mulliken charges:
               1
     1  O   -0.470846
     2  H    0.221946
     3  H    0.248900
 Sum of Mulliken charges =   0.00000

 Dipole moment (field-independent basis, Debye):
    X=              0.0361    Y=             -1.9571    Z=              0.0000  Tot=              1.9574
 Quadrupole moment (field-independent basis, Debye-Ang):
   XX=             -4.1817   YY=             -6.3847   ZZ=             -7.6798
   XY=              0.2126   XZ=              0.0000   YZ=              0.0000

 1\1\GINC-NODE40\SP\RB2PLYPD3-FC\def2QZVP\H2O1\BOITTIER\26-Aug-2020\0\\
 #p B2PLYPD3/Def2QZVP\\h2o\\0,1\O,0,-5.326605,-0.766447,0.916345\H,0,-4
 .368927,-0.77045,0.965925\H,0,-5.609308,0.217644,0.779039\\Version=ES6
 4L-G09RevD.01\State=1-A'\HF=-76.3291941\MP2=-76.4203761\RMSD=5.858e-09
 \PG=CS [SG(H2O1)]\\@

 NATURE GIVES TO EVERY TIME AND SEASON SOME BEAUTY OF ITS OWN.

 Normal termination of Gaussian 09 at Wed Aug 26 08:34:21 2020.
