 Gaussian 09, Revision D.01,
 Gaussian 09:  ES64L-G09RevD.01 24-Apr-2013

 --------------------
 #p B2PLYPD3/Def2QZVP
 --------------------

 ---
 h2o
 ---
 Symbolic Z-matrix:
 Charge =  0 Multiplicity = 1

                         Standard orientation:
 ---------------------------------------------------------------------
 Center     Atomic      Atomic             Coordinates (Angstroms)
 Number     Number       Type             X           Y           Z
 ---------------------------------------------------------------------
      1          8           0        0.000000    0.115768    0.000000
      2          1           0        0.775491   -0.446297    0.000000
      3          1           0       -0.775491   -0.479846    0.000000
 ---------------------------------------------------------------------

 SCF Done:  E(RB2PLYPD3) =  -76.3344411199     A.U. after   10 cycles
 E2(B2PLYPD3) =    -0.9023811862D-01 E(B2PLYPD3) =    -0.76424679238474D+02

 The electronic state is 1-A'.
 Alpha  occ. eigenvalues --  -19.73193  -1.15129  -0.61204  -0.46984  -0.39843
 Alpha virt. eigenvalues --    0.04462   0.10090   0.27537   0.30441   0.30968
 Alpha virt. eigenvalues --    0.35208   0.43721   0.50547   0.55861   0.62676
 Alpha virt. eigenvalues --    0.65813   0.80778   0.93354   0.96167   1.03527

 Mulliken charges:
               1
     1  O   -0.454132
     2  H    0.222783
     3  H    0.231349
 Sum of Mulliken charges =   0.00000

 Dipole moment (field-independent basis, Debye):
    X=              0.0098    Y=             -1.9376    Z=              0.0000  Tot=              1.9376
 Quadrupole moment (field-independent basis, Debye-Ang):
   XX=             -4.2359   YY=             -6.3861   ZZ=             -7.6177
   XY=              0.0570   XZ=              0.0000   YZ=              0.0000

 1\1\GINC-NODE30\SP\RB2PLYPD3-FC\def2QZVP\H2O1\BOITTIER\26-Aug-2020\0\\
 #p B2PLYPD3/Def2QZVP\\h2o\\0,1\O,0,-5.326605,-0.763735,0.918764\H,0,-4
 .368927,-0.75759,0.929695\H,0,-5.609308,0.1614,0.77612\\Version=ES64L-
 G09RevD.01\State=1-A'\HF=-76.3344411\MP2=-76.4246792\RMSD=4.080e-09\PG
 =CS [SG(H2O1)]\\@

 IF IT'S NOT TRUE, IT'S WELL INVENTED -- DANTE

 Normal termination of Gaussian 09 at Wed Aug 26 09:57:38 2020.
