 Gaussian 09, Revision D.01,
 Gaussian 09:  ES64L-G09RevD.01 24-Apr-2013

 --------------------
 #p B2PLYPD3/Def2QZVP
 --------------------

 ---
 h2o
 ---
 Symbolic Z-matrix:
 Charge =  0 Multiplicity = 1

                         Standard orientation:
 ---------------------------------------------------------------------
 Center     Atomic      Atomic             Coordinates (Angstroms)
 Number     Number       Type             X           Y           Z
 ---------------------------------------------------------------------
      1          8           0        0.000000    0.116307    0.000000
      2          1           0        0.755692   -0.474122    0.000000
      3          1           0       -0.755692   -0.456335    0.000000
 ---------------------------------------------------------------------

 SCF Done:  E(RB2PLYPD3) =  -76.3352001642     A.U. after   10 cycles
 E2(B2PLYPD3) =    -0.8982045565D-01 E(B2PLYPD3) =    -0.76425020619839D+02

 The electronic state is 1-A'.
 Alpha  occ. eigenvalues --  -19.73040  -1.15912  -0.61549  -0.47495  -0.40006
 Alpha virt. eigenvalues --    0.04596   0.10254   0.27477   0.30400   0.31103
 Alpha virt. eigenvalues --    0.36104   0.44122   0.50340   0.56294   0.62284
 Alpha virt. eigenvalues --    0.65498   0.81275   0.93959   0.95831   1.04264

 Mulliken charges:
               1
     1  O   -0.439349
     2  H    0.222171
     3  H    0.217178
 Sum of Mulliken charges =   0.00000

 Dipole moment (field-independent basis, Debye):
    X=             -0.0055    Y=             -1.9545    Z=              0.0000  Tot=              1.9545
 Quadrupole moment (field-independent basis, Debye-Ang):
   XX=             -4.3403   YY=             -6.3284   ZZ=             -7.5820
   XY=             -0.0292   XZ=              0.0000   YZ=              0.0000

 1\1\GINC-NODE21\SP\RB2PLYPD3-FC\def2QZVP\H2O1\BOITTIER\26-Aug-2020\0\\
 #p B2PLYPD3/Def2QZVP\\h2o\\0,1\O,0,-5.326605,-0.764217,0.917884\H,0,-4
 .368927,-0.718687,0.939243\H,0,-5.609308,0.130203,0.779751\\Version=ES
 64L-G09RevD.01\State=1-A'\HF=-76.3352002\MP2=-76.4250206\RMSD=4.169e-0
 9\PG=CS [SG(H2O1)]\\@

 CONFIDENCE IS WHAT YOU FEEL BEFORE YOU FULLY

 Normal termination of Gaussian 09 at Wed Aug 26 12:11:34 2020.
