 Gaussian 09, Revision D.01,
 Gaussian 09:  ES64L-G09RevD.01 24-Apr-2013

 --------------------
 #p B2PLYPD3/Def2QZVP
 --------------------

 ---
 h2o
 ---
 Symbolic Z-matrix:
 Charge =  0 Multiplicity = 1

                         Standard orientation:
 ---------------------------------------------------------------------
 Center     Atomic      Atomic             Coordinates (Angstroms)
 Number     Number       Type             X           Y           Z
 ---------------------------------------------------------------------
      1          8           0        0.000000    0.119374    0.000000
      2          1           0        0.768937   -0.455758    0.000000
      3          1           0       -0.768937   -0.499233    0.000000
 ---------------------------------------------------------------------

 SCF Done:  E(RB2PLYPD3) =  -76.3339126345     A.U. after   10 cycles
 E2(B2PLYPD3) =    -0.9049256146D-01 E(B2PLYPD3) =    -0.76424405196007D+02

 The electronic state is 1-A'.
 Alpha  occ. eigenvalues --  -19.73373  -1.15021  -0.60558  -0.47313  -0.39850
 Alpha virt. eigenvalues --    0.04355   0.10070   0.27610   0.30447   0.30613
 Alpha virt. eigenvalues --    0.35322   0.43585   0.50071   0.56106   0.61987
 Alpha virt. eigenvalues --    0.65998   0.80788   0.93349   0.96229   1.02663

 Mulliken charges:
               1
     1  O   -0.453244
     2  H    0.221184
     3  H    0.232060
 Sum of Mulliken charges =   0.00000

 Dipole moment (field-independent basis, Debye):
    X=              0.0136    Y=             -1.9754    Z=              0.0000  Tot=              1.9754
 Quadrupole moment (field-independent basis, Debye-Ang):
   XX=             -4.3181   YY=             -6.3243   ZZ=             -7.6265
   XY=              0.0717   XZ=              0.0000   YZ=              0.0000

 1\1\GINC-NODE18\SP\RB2PLYPD3-FC\def2QZVP\H2O1\BOITTIER\26-Aug-2020\0\\
 #p B2PLYPD3/Def2QZVP\\h2o\\0,1\O,0,-5.326605,-0.766511,0.915913\H,0,-4
 .368927,-0.72119,0.9692\H,0,-5.609308,0.169414,0.781522\\Version=ES64L
 -G09RevD.01\State=1-A'\HF=-76.3339126\MP2=-76.4244052\RMSD=4.307e-09\P
 G=CS [SG(H2O1)]\\@

 IF THE FACTS DO NOT CONFORM TO THE THEORY, THEY MUST BE DISPOSED OF.

 Normal termination of Gaussian 09 at Wed Aug 26 08:30:18 2020.
