 Gaussian 09, Revision D.01,
 Gaussian 09:  ES64L-G09RevD.01 24-Apr-2013

 --------------------
 #p B2PLYPD3/Def2QZVP
 --------------------

 ---
 h2o
 ---
 Symbolic Z-matrix:
 Charge =  0 Multiplicity = 1

                         Standard orientation:
 ---------------------------------------------------------------------
 Center     Atomic      Atomic             Coordinates (Angstroms)
 Number     Number       Type             X           Y           Z
 ---------------------------------------------------------------------
      1          8           0        0.000000    0.119062    0.000000
      2          1           0        0.758189   -0.470718    0.000000
      3          1           0       -0.758189   -0.481780    0.000000
 ---------------------------------------------------------------------

 SCF Done:  E(RB2PLYPD3) =  -76.3348371978     A.U. after   10 cycles
 E2(B2PLYPD3) =    -0.9019608225D-01 E(B2PLYPD3) =    -0.76425033280004D+02

 The electronic state is 1-A'.
 Alpha  occ. eigenvalues --  -19.73253  -1.15497  -0.60865  -0.47569  -0.39944
 Alpha virt. eigenvalues --    0.04460   0.10174   0.27565   0.30422   0.30793
 Alpha virt. eigenvalues --    0.35825   0.43831   0.50042   0.56335   0.61868
 Alpha virt. eigenvalues --    0.65784   0.81078   0.93777   0.96023   1.03285

 Mulliken charges:
               1
     1  O   -0.445157
     2  H    0.221109
     3  H    0.224048
 Sum of Mulliken charges =   0.00000

 Dipole moment (field-independent basis, Debye):
    X=              0.0035    Y=             -1.9790    Z=              0.0000  Tot=              1.9790
 Quadrupole moment (field-independent basis, Debye-Ang):
   XX=             -4.3662   YY=             -6.3015   ZZ=             -7.6037
   XY=              0.0180   XZ=              0.0000   YZ=              0.0000

 1\1\GINC-NODE35\SP\RB2PLYPD3-FC\def2QZVP\H2O1\BOITTIER\26-Aug-2020\0\\
 #p B2PLYPD3/Def2QZVP\\h2o\\0,1\O,0,-5.326605,-0.766204,0.916941\H,0,-4
 .368927,-0.704717,0.958941\H,0,-5.609308,0.14802,0.775042\\Version=ES6
 4L-G09RevD.01\State=1-A'\HF=-76.3348372\MP2=-76.4250333\RMSD=4.124e-09
 \PG=CS [SG(H2O1)]\\@

 I WANT IT ALL - RICH, THIN, AND CHOCOLATE.

 Normal termination of Gaussian 09 at Wed Aug 26 07:31:12 2020.
