 Gaussian 09, Revision D.01,
 Gaussian 09:  ES64L-G09RevD.01 24-Apr-2013

 --------------------
 #p B2PLYPD3/Def2QZVP
 --------------------

 ---
 h2o
 ---
 Symbolic Z-matrix:
 Charge =  0 Multiplicity = 1

                         Standard orientation:
 ---------------------------------------------------------------------
 Center     Atomic      Atomic             Coordinates (Angstroms)
 Number     Number       Type             X           Y           Z
 ---------------------------------------------------------------------
      1          8           0        0.000000    0.121785    0.000000
      2          1           0        0.752250   -0.477764    0.000000
      3          1           0       -0.752250   -0.496519    0.000000
 ---------------------------------------------------------------------

 SCF Done:  E(RB2PLYPD3) =  -76.3343821632     A.U. after   10 cycles
 E2(B2PLYPD3) =    -0.9038155514D-01 E(B2PLYPD3) =    -0.76424763718347D+02

 The electronic state is 1-A'.
 Alpha  occ. eigenvalues --  -19.73383  -1.15441  -0.60374  -0.47841  -0.39955
 Alpha virt. eigenvalues --    0.04382   0.10166   0.27620   0.30425   0.30547
 Alpha virt. eigenvalues --    0.35916   0.43736   0.49721   0.56544   0.61345
 Alpha virt. eigenvalues --    0.65914   0.81066   0.93855   0.96082   1.02683

 Mulliken charges:
               1
     1  O   -0.444301
     2  H    0.219690
     3  H    0.224611
 Sum of Mulliken charges =   0.00000

 Dipole moment (field-independent basis, Debye):
    X=              0.0064    Y=             -2.0077    Z=              0.0000  Tot=              2.0077
 Quadrupole moment (field-independent basis, Debye-Ang):
   XX=             -4.4329   YY=             -6.2523   ZZ=             -7.6094
   XY=              0.0297   XZ=              0.0000   YZ=              0.0000

 1\1\GINC-NODE37\SP\RB2PLYPD3-FC\def2QZVP\H2O1\BOITTIER\26-Aug-2020\0\\
 #p B2PLYPD3/Def2QZVP\\h2o\\0,1\O,0,-5.326605,-0.765818,0.928043\H,0,-4
 .368927,-0.697737,0.868397\H,0,-5.609308,0.134866,0.689238\\Version=ES
 64L-G09RevD.01\State=1-A'\HF=-76.3343822\MP2=-76.4247637\RMSD=4.302e-0
 9\PG=CS [SG(H2O1)]\\@

 THERE'S NOTHING WRONG WITH FOLLOWING A TRAIN OF THOUGHT...

 Normal termination of Gaussian 09 at Wed Aug 26 08:32:23 2020.
