 Gaussian 09, Revision D.01,
 Gaussian 09:  ES64L-G09RevD.01 24-Apr-2013

 --------------------
 #p B2PLYPD3/Def2QZVP
 --------------------

 ---
 h2o
 ---
 Symbolic Z-matrix:
 Charge =  0 Multiplicity = 1

                         Standard orientation:
 ---------------------------------------------------------------------
 Center     Atomic      Atomic             Coordinates (Angstroms)
 Number     Number       Type             X           Y           Z
 ---------------------------------------------------------------------
      1          8           0        0.000000    0.117081    0.000000
      2          1           0        0.710894   -0.539614    0.000000
      3          1           0       -0.710894   -0.397030    0.000000
 ---------------------------------------------------------------------

 SCF Done:  E(RB2PLYPD3) =  -76.3277873080     A.U. after   10 cycles
 E2(B2PLYPD3) =    -0.8892946635D-01 E(B2PLYPD3) =    -0.76416716774305D+02

 The electronic state is 1-A'.
 Alpha  occ. eigenvalues --  -19.72613  -1.17931  -0.62329  -0.48549  -0.40375
 Alpha virt. eigenvalues --    0.04754   0.10607   0.27255   0.30307   0.31058
 Alpha virt. eigenvalues --    0.37979   0.45365   0.50046   0.57087   0.61578
 Alpha virt. eigenvalues --    0.64701   0.81986   0.94385   0.95414   1.04886

 Mulliken charges:
               1
     1  O   -0.397953
     2  H    0.224134
     3  H    0.173820
 Sum of Mulliken charges =   0.00000

 Dipole moment (field-independent basis, Debye):
    X=             -0.0494    Y=             -1.9852    Z=              0.0000  Tot=              1.9858
 Quadrupole moment (field-independent basis, Debye-Ang):
   XX=             -4.5583   YY=             -6.1870   ZZ=             -7.5023
   XY=             -0.2170   XZ=              0.0000   YZ=              0.0000

 1\1\GINC-NODE27\SP\RB2PLYPD3-FC\def2QZVP\H2O1\BOITTIER\26-Aug-2020\0\\
 #p B2PLYPD3/Def2QZVP\\h2o\\0,1\O,0,-5.326605,-0.762013,0.929363\H,0,-4
 .368927,-0.660346,0.83379\H,0,-5.609308,0.036599,0.701376\\Version=ES6
 4L-G09RevD.01\State=1-A'\HF=-76.3277873\MP2=-76.4167168\RMSD=6.727e-09
 \PG=CS [SG(H2O1)]\\@

 EVERYBODY NEEDS BEAUTY AS WELL AS BREAD, PLACES TO PLAY IN AND PRAY IN,

 Normal termination of Gaussian 09 at Wed Aug 26 09:06:44 2020.
