 Gaussian 09, Revision D.01,
 Gaussian 09:  ES64L-G09RevD.01 24-Apr-2013

 --------------------
 #p B2PLYPD3/Def2QZVP
 --------------------

 ---
 h2o
 ---
 Symbolic Z-matrix:
 Charge =  0 Multiplicity = 1

                         Standard orientation:
 ---------------------------------------------------------------------
 Center     Atomic      Atomic             Coordinates (Angstroms)
 Number     Number       Type             X           Y           Z
 ---------------------------------------------------------------------
      1          8           0        0.000000    0.119457    0.000000
      2          1           0        0.780289   -0.436663    0.000000
      3          1           0       -0.780289   -0.518993    0.000000
 ---------------------------------------------------------------------

 SCF Done:  E(RB2PLYPD3) =  -76.3321766109     A.U. after   10 cycles
 E2(B2PLYPD3) =    -0.9078838614D-01 E(B2PLYPD3) =    -0.76422964997007D+02

 The electronic state is 1-A'.
 Alpha  occ. eigenvalues --  -19.73476  -1.14566  -0.60285  -0.47019  -0.39753
 Alpha virt. eigenvalues --    0.04232   0.09964   0.27643   0.30361   0.30471
 Alpha virt. eigenvalues --    0.34856   0.43373   0.50141   0.55839   0.62165
 Alpha virt. eigenvalues --    0.66190   0.80453   0.92793   0.96438   1.02020

 Mulliken charges:
               1
     1  O   -0.460878
     2  H    0.220736
     3  H    0.240142
 Sum of Mulliken charges =   0.00000

 Dipole moment (field-independent basis, Debye):
    X=              0.0251    Y=             -1.9688    Z=              0.0000  Tot=              1.9690
 Quadrupole moment (field-independent basis, Debye-Ang):
   XX=             -4.2628   YY=             -6.3490   ZZ=             -7.6494
   XY=              0.1381   XZ=              0.0000   YZ=              0.0000

 1\1\GINC-NODE36\SP\RB2PLYPD3-FC\def2QZVP\H2O1\BOITTIER\26-Aug-2020\0\\
 #p B2PLYPD3/Def2QZVP\\h2o\\0,1\O,0,-5.326605,-0.766207,0.919171\H,0,-4
 .368927,-0.744637,0.941727\H,0,-5.609308,0.187996,0.757785\\Version=ES
 64L-G09RevD.01\State=1-A'\HF=-76.3321766\MP2=-76.422965\RMSD=4.933e-09
 \PG=CS [SG(H2O1)]\\@

 Statistics are no substitute for judgment.

 Normal termination of Gaussian 09 at Wed Aug 26 08:30:40 2020.
