 Gaussian 09, Revision D.01,
 Gaussian 09:  ES64L-G09RevD.01 24-Apr-2013

 --------------------
 #p B2PLYPD3/Def2QZVP
 --------------------

 ---
 h2o
 ---
 Symbolic Z-matrix:
 Charge =  0 Multiplicity = 1

                         Standard orientation:
 ---------------------------------------------------------------------
 Center     Atomic      Atomic             Coordinates (Angstroms)
 Number     Number       Type             X           Y           Z
 ---------------------------------------------------------------------
      1          8           0        0.000000    0.113477    0.000000
      2          1           0        0.759420   -0.470595    0.000000
      3          1           0       -0.759420   -0.437225    0.000000
 ---------------------------------------------------------------------

 SCF Done:  E(RB2PLYPD3) =  -76.3350729845     A.U. after   10 cycles
 E2(B2PLYPD3) =    -0.8959727793D-01 E(B2PLYPD3) =    -0.76424670262471D+02

 The electronic state is 1-A'.
 Alpha  occ. eigenvalues --  -19.72882  -1.16064  -0.62112  -0.47256  -0.40014
 Alpha virt. eigenvalues --    0.04684   0.10275   0.27415   0.30390   0.31348
 Alpha virt. eigenvalues --    0.36072   0.44283   0.50707   0.56112   0.62822
 Alpha virt. eigenvalues --    0.65322   0.81312   0.93941   0.95764   1.04950

 Mulliken charges:
               1
     1  O   -0.438044
     2  H    0.223810
     3  H    0.214234
 Sum of Mulliken charges =   0.00000

 Dipole moment (field-independent basis, Debye):
    X=             -0.0097    Y=             -1.9251    Z=              0.0000  Tot=              1.9252
 Quadrupole moment (field-independent basis, Debye-Ang):
   XX=             -4.2837   YY=             -6.3715   ZZ=             -7.5724
   XY=             -0.0560   XZ=              0.0000   YZ=              0.0000

 1\1\GINC-NODE07\SP\RB2PLYPD3-FC\def2QZVP\H2O1\BOITTIER\26-Aug-2020\0\\
 #p B2PLYPD3/Def2QZVP\\h2o\\0,1\O,0,-5.326605,-0.762362,0.917034\H,0,-4
 .368927,-0.742317,0.93468\H,0,-5.609308,0.124147,0.797984\\Version=ES6
 4L-G09RevD.01\State=1-A'\HF=-76.335073\MP2=-76.4246703\RMSD=4.291e-09\
 PG=CS [SG(H2O1)]\\@

 WHEN YOU'VE SEEN ONE NUCLEAR WAR YOU'VE SEEN THEM ALL.

 Normal termination of Gaussian 09 at Wed Aug 26 08:33:03 2020.
