 Gaussian 09, Revision D.01,
 Gaussian 09:  ES64L-G09RevD.01 24-Apr-2013

 --------------------
 #p B2PLYPD3/Def2QZVP
 --------------------

 ---
 h2o
 ---
 Symbolic Z-matrix:
 Charge =  0 Multiplicity = 1

                         Standard orientation:
 ---------------------------------------------------------------------
 Center     Atomic      Atomic             Coordinates (Angstroms)
 Number     Number       Type             X           Y           Z
 ---------------------------------------------------------------------
      1          8           0        0.000000    0.119128    0.000000
      2          1           0        0.761885   -0.463846    0.000000
      3          1           0       -0.761885   -0.489181    0.000000
 ---------------------------------------------------------------------

 SCF Done:  E(RB2PLYPD3) =  -76.3345818094     A.U. after   10 cycles
 E2(B2PLYPD3) =    -0.9029258343D-01 E(B2PLYPD3) =    -0.76424874392814D+02

 The electronic state is 1-A'.
 Alpha  occ. eigenvalues --  -19.73292  -1.15336  -0.60769  -0.47479  -0.39912
 Alpha virt. eigenvalues --    0.04427   0.10140   0.27580   0.30430   0.30739
 Alpha virt. eigenvalues --    0.35652   0.43749   0.50056   0.56255   0.61916
 Alpha virt. eigenvalues --    0.65855   0.80983   0.93636   0.96093   1.03082

 Mulliken charges:
               1
     1  O   -0.447930
     2  H    0.220667
     3  H    0.227264
 Sum of Mulliken charges =   0.00000

 Dipole moment (field-independent basis, Debye):
    X=              0.0081    Y=             -1.9774    Z=              0.0000  Tot=              1.9774
 Quadrupole moment (field-independent basis, Debye-Ang):
   XX=             -4.3492   YY=             -6.3099   ZZ=             -7.6113
   XY=              0.0414   XZ=              0.0000   YZ=              0.0000

 1\1\GINC-NODE22\SP\RB2PLYPD3-FC\def2QZVP\H2O1\BOITTIER\26-Aug-2020\0\\
 #p B2PLYPD3/Def2QZVP\\h2o\\0,1\O,0,-5.326605,-0.764801,0.925093\H,0,-4
 .368927,-0.724368,0.885759\H,0,-5.609308,0.145228,0.719093\\Version=ES
 64L-G09RevD.01\State=1-A'\HF=-76.3345818\MP2=-76.4248744\RMSD=4.170e-0
 9\PG=CS [SG(H2O1)]\\@

 TIME IS NATURE'S WAY OF MAKING SURE EVERYTHING

 Normal termination of Gaussian 09 at Wed Aug 26 11:52:20 2020.
