 Gaussian 09, Revision D.01,
 Gaussian 09:  ES64L-G09RevD.01 24-Apr-2013

 --------------------
 #p B2PLYPD3/Def2QZVP
 --------------------

 ---
 h2o
 ---
 Symbolic Z-matrix:
 Charge =  0 Multiplicity = 1

                         Standard orientation:
 ---------------------------------------------------------------------
 Center     Atomic      Atomic             Coordinates (Angstroms)
 Number     Number       Type             X           Y           Z
 ---------------------------------------------------------------------
      1          8           0        0.000000    0.114719    0.000000
      2          1           0        0.763507   -0.463816    0.000000
      3          1           0       -0.763507   -0.453936    0.000000
 ---------------------------------------------------------------------

 SCF Done:  E(RB2PLYPD3) =  -76.3352225236     A.U. after   10 cycles
 E2(B2PLYPD3) =    -0.8982891926D-01 E(B2PLYPD3) =    -0.76425051442883D+02

 The electronic state is 1-A'.
 Alpha  occ. eigenvalues --  -19.73008  -1.15748  -0.61729  -0.47226  -0.39961
 Alpha virt. eigenvalues --    0.04606   0.10217   0.27466   0.30407   0.31209
 Alpha virt. eigenvalues --    0.35816   0.44073   0.50583   0.56079   0.62668
 Alpha virt. eigenvalues --    0.65506   0.81156   0.93801   0.95892   1.04462

 Mulliken charges:
               1
     1  O   -0.443422
     2  H    0.223074
     3  H    0.220348
 Sum of Mulliken charges =   0.00000

 Dipole moment (field-independent basis, Debye):
    X=             -0.0029    Y=             -1.9348    Z=              0.0000  Tot=              1.9348
 Quadrupole moment (field-independent basis, Debye-Ang):
   XX=             -4.2807   YY=             -6.3682   ZZ=             -7.5878
   XY=             -0.0166   XZ=              0.0000   YZ=              0.0000

 1\1\GINC-NODE09\SP\RB2PLYPD3-FC\def2QZVP\H2O1\BOITTIER\26-Aug-2020\0\\
 #p B2PLYPD3/Def2QZVP\\h2o\\0,1\O,0,-5.326605,-0.763054,0.918414\H,0,-4
 .368927,-0.74293,0.928056\H,0,-5.609308,0.135841,0.782851\\Version=ES6
 4L-G09RevD.01\State=1-A'\HF=-76.3352225\MP2=-76.4250514\RMSD=3.986e-09
 \PG=CS [SG(H2O1)]\\@

 Children are likely to live up to what you believe of them.

 Normal termination of Gaussian 09 at Wed Aug 26 09:47:18 2020.
