 Gaussian 09, Revision D.01,
 Gaussian 09:  ES64L-G09RevD.01 24-Apr-2013

 --------------------
 #p B2PLYPD3/Def2QZVP
 --------------------

 ---
 h2o
 ---
 Symbolic Z-matrix:
 Charge =  0 Multiplicity = 1

                         Standard orientation:
 ---------------------------------------------------------------------
 Center     Atomic      Atomic             Coordinates (Angstroms)
 Number     Number       Type             X           Y           Z
 ---------------------------------------------------------------------
      1          8           0        0.000000    0.113110    0.000000
      2          1           0        0.763801   -0.464930    0.000000
      3          1           0       -0.763801   -0.439952    0.000000
 ---------------------------------------------------------------------

 SCF Done:  E(RB2PLYPD3) =  -76.3351472741     A.U. after   10 cycles
 E2(B2PLYPD3) =    -0.8966158411D-01 E(B2PLYPD3) =    -0.76424808858227D+02

 The electronic state is 1-A'.
 Alpha  occ. eigenvalues --  -19.72901  -1.15911  -0.62088  -0.47133  -0.39981
 Alpha virt. eigenvalues --    0.04668   0.10244   0.27424   0.30398   0.31362
 Alpha virt. eigenvalues --    0.35878   0.44205   0.50785   0.56013   0.62950
 Alpha virt. eigenvalues --    0.65373   0.81215   0.93848   0.95827   1.04927

 Mulliken charges:
               1
     1  O   -0.441273
     2  H    0.224157
     3  H    0.217116
 Sum of Mulliken charges =   0.00000

 Dipole moment (field-independent basis, Debye):
    X=             -0.0072    Y=             -1.9191    Z=              0.0000  Tot=              1.9191
 Quadrupole moment (field-independent basis, Debye-Ang):
   XX=             -4.2574   YY=             -6.3878   ZZ=             -7.5789
   XY=             -0.0422   XZ=              0.0000   YZ=              0.0000

 1\1\GINC-NODE07\SP\RB2PLYPD3-FC\def2QZVP\H2O1\BOITTIER\26-Aug-2020\0\\
 #p B2PLYPD3/Def2QZVP\\h2o\\0,1\O,0,-5.326605,-0.762112,0.916993\H,0,-4
 .368927,-0.752047,0.933561\H,0,-5.609308,0.129878,0.799935\\Version=ES
 64L-G09RevD.01\State=1-A'\HF=-76.3351473\MP2=-76.4248089\RMSD=4.109e-0
 9\PG=CS [SG(H2O1)]\\@

 SIC AS THE CAWSE OF EWERY THING IS, SIC WILBE THE EFFECT.

 Normal termination of Gaussian 09 at Wed Aug 26 08:30:55 2020.
