 Gaussian 09, Revision D.01,
 Gaussian 09:  ES64L-G09RevD.01 24-Apr-2013

 --------------------
 #p B2PLYPD3/Def2QZVP
 --------------------

 ---
 h2o
 ---
 Symbolic Z-matrix:
 Charge =  0 Multiplicity = 1

                         Standard orientation:
 ---------------------------------------------------------------------
 Center     Atomic      Atomic             Coordinates (Angstroms)
 Number     Number       Type             X           Y           Z
 ---------------------------------------------------------------------
      1          8           0        0.000000    0.117835    0.000000
      2          1           0        0.770447   -0.454506    0.000000
      3          1           0       -0.770447   -0.488172    0.000000
 ---------------------------------------------------------------------

 SCF Done:  E(RB2PLYPD3) =  -76.3343321777     A.U. after   10 cycles
 E2(B2PLYPD3) =    -0.9034910699D-01 E(B2PLYPD3) =    -0.76424681284700D+02

 The electronic state is 1-A'.
 Alpha  occ. eigenvalues --  -19.73284  -1.15121  -0.60865  -0.47207  -0.39858
 Alpha virt. eigenvalues --    0.04414   0.10091   0.27574   0.30441   0.30788
 Alpha virt. eigenvalues --    0.35335   0.43669   0.50260   0.56032   0.62257
 Alpha virt. eigenvalues --    0.65896   0.80825   0.93405   0.96174   1.03101

 Mulliken charges:
               1
     1  O   -0.452695
     2  H    0.222070
     3  H    0.230625
 Sum of Mulliken charges =   0.00000

 Dipole moment (field-independent basis, Debye):
    X=              0.0103    Y=             -1.9602    Z=              0.0000  Tot=              1.9602
 Quadrupole moment (field-independent basis, Debye-Ang):
   XX=             -4.2893   YY=             -6.3477   ZZ=             -7.6201
   XY=              0.0561   XZ=              0.0000   YZ=              0.0000

 1\1\GINC-NODE13\SP\RB2PLYPD3-FC\def2QZVP\H2O1\BOITTIER\26-Aug-2020\0\\
 #p B2PLYPD3/Def2QZVP\\h2o\\0,1\O,0,-5.326605,-0.765527,0.91514\H,0,-4.
 368927,-0.732679,0.969327\H,0,-5.609308,0.165157,0.793739\\Version=ES6
 4L-G09RevD.01\State=1-A'\HF=-76.3343322\MP2=-76.4246813\RMSD=4.145e-09
 \PG=CS [SG(H2O1)]\\@

 A MAN IS EXACTLY AS GREAT AS THE TIDE SURGING

 Normal termination of Gaussian 09 at Wed Aug 26 12:18:55 2020.
