 Gaussian 09, Revision D.01,
 Gaussian 09:  ES64L-G09RevD.01 24-Apr-2013

 --------------------
 #p B2PLYPD3/Def2QZVP
 --------------------

 ---
 h2o
 ---
 Symbolic Z-matrix:
 Charge =  0 Multiplicity = 1

                         Standard orientation:
 ---------------------------------------------------------------------
 Center     Atomic      Atomic             Coordinates (Angstroms)
 Number     Number       Type             X           Y           Z
 ---------------------------------------------------------------------
      1          8           0        0.000000    0.111053    0.000000
      2          1           0        0.753378   -0.480739    0.000000
      3          1           0       -0.753378   -0.407685    0.000000
 ---------------------------------------------------------------------

 SCF Done:  E(RB2PLYPD3) =  -76.3338213578     A.U. after   10 cycles
 E2(B2PLYPD3) =    -0.8920383297D-01 E(B2PLYPD3) =    -0.76423025190774D+02

 The electronic state is 1-A'.
 Alpha  occ. eigenvalues --  -19.72651  -1.16613  -0.62823  -0.47255  -0.40103
 Alpha virt. eigenvalues --    0.04808   0.10365   0.27319   0.30360   0.31554
 Alpha virt. eigenvalues --    0.36460   0.44669   0.50972   0.56118   0.63167
 Alpha virt. eigenvalues --    0.64999   0.81549   0.94076   0.95581   1.05535

 Mulliken charges:
               1
     1  O   -0.428017
     2  H    0.225210
     3  H    0.202807
 Sum of Mulliken charges =   0.00000

 Dipole moment (field-independent basis, Debye):
    X=             -0.0208    Y=             -1.9046    Z=              0.0000  Tot=              1.9047
 Quadrupole moment (field-independent basis, Debye-Ang):
   XX=             -4.2802   YY=             -6.3809   ZZ=             -7.5463
   XY=             -0.1229   XZ=              0.0000   YZ=              0.0000

 1\1\GINC-NODE37\SP\RB2PLYPD3-FC\def2QZVP\H2O1\BOITTIER\26-Aug-2020\0\\
 #p B2PLYPD3/Def2QZVP\\h2o\\0,1\O,0,-5.326605,-0.760812,0.915558\H,0,-4
 .368927,-0.74671,0.936784\H,0,-5.609308,0.103739,0.819131\\Version=ES6
 4L-G09RevD.01\State=1-A'\HF=-76.3338214\MP2=-76.4230252\RMSD=5.303e-09
 \PG=CS [SG(H2O1)]\\@

 Any fool can criticize, condemn, and complain -- and most do.

 Normal termination of Gaussian 09 at Wed Aug 26 08:33:46 2020.
