 Gaussian 09, Revision D.01,
 Gaussian 09:  ES64L-G09RevD.01 24-Apr-2013

 --------------------
 #p B2PLYPD3/Def2QZVP
 --------------------

 ---
 h2o
 ---
 Symbolic Z-matrix:
 Charge =  0 Multiplicity = 1

                         Standard orientation:
 ---------------------------------------------------------------------
 Center     Atomic      Atomic             Coordinates (Angstroms)
 Number     Number       Type             X           Y           Z
 ---------------------------------------------------------------------
      1          8           0        0.000000    0.119631    0.000000
      2          1           0        0.737597   -0.498426    0.000000
      3          1           0       -0.737597   -0.458623    0.000000
 ---------------------------------------------------------------------

 SCF Done:  E(RB2PLYPD3) =  -76.3346053219     A.U. after   10 cycles
 E2(B2PLYPD3) =    -0.8978756045D-01 E(B2PLYPD3) =    -0.76424392882301D+02

 The electronic state is 1-A'.
 Alpha  occ. eigenvalues --  -19.73092  -1.16324  -0.61170  -0.48099  -0.40109
 Alpha virt. eigenvalues --    0.04570   0.10343   0.27495   0.30381   0.30888
 Alpha virt. eigenvalues --    0.36740   0.44264   0.49882   0.56775   0.61473
 Alpha virt. eigenvalues --    0.65453   0.81476   0.94349   0.95715   1.03928

 Mulliken charges:
               1
     1  O   -0.429909
     2  H    0.220791
     3  H    0.209118
 Sum of Mulliken charges =   0.00000

 Dipole moment (field-independent basis, Debye):
    X=             -0.0135    Y=             -1.9961    Z=              0.0000  Tot=              1.9962
 Quadrupole moment (field-independent basis, Debye-Ang):
   XX=             -4.4724   YY=             -6.2399   ZZ=             -7.5680
   XY=             -0.0624   XZ=              0.0000   YZ=              0.0000

 1\1\GINC-NODE13\SP\RB2PLYPD3-FC\def2QZVP\H2O1\BOITTIER\26-Aug-2020\0\\
 #p B2PLYPD3/Def2QZVP\\h2o\\0,1\O,0,-5.326605,-0.765675,0.92278\H,0,-4.
 368927,-0.672374,0.908968\H,0,-5.609308,0.107218,0.731565\\Version=ES6
 4L-G09RevD.01\State=1-A'\HF=-76.3346053\MP2=-76.4243929\RMSD=4.770e-09
 \PG=CS [SG(H2O1)]\\@

 GARLIC THEN HAVE POWER TO SAVE FROM DEATH

 Normal termination of Gaussian 09 at Wed Aug 26 12:38:46 2020.
