 Gaussian 09, Revision D.01,
 Gaussian 09:  ES64L-G09RevD.01 24-Apr-2013

 --------------------
 #p B2PLYPD3/Def2QZVP
 --------------------

 ---
 h2o
 ---
 Symbolic Z-matrix:
 Charge =  0 Multiplicity = 1

                         Standard orientation:
 ---------------------------------------------------------------------
 Center     Atomic      Atomic             Coordinates (Angstroms)
 Number     Number       Type             X           Y           Z
 ---------------------------------------------------------------------
      1          8           0        0.000000    0.120024    0.000000
      2          1           0        0.772814   -0.458690    0.000000
      3          1           0       -0.772814   -0.501502    0.000000
 ---------------------------------------------------------------------

 SCF Done:  E(RB2PLYPD3) =  -76.3334482605     A.U. after   10 cycles
 E2(B2PLYPD3) =    -0.9066211145D-01 E(B2PLYPD3) =    -0.76424110371960D+02

 The electronic state is 1-A'.
 Alpha  occ. eigenvalues --  -19.73452  -1.14792  -0.60329  -0.47250  -0.39809
 Alpha virt. eigenvalues --    0.04296   0.10019   0.27642   0.30458   0.30503
 Alpha virt. eigenvalues --    0.35107   0.43450   0.50019   0.56046   0.61937
 Alpha virt. eigenvalues --    0.66126   0.80656   0.93188   0.96316   1.02330

 Mulliken charges:
               1
     1  O   -0.456762
     2  H    0.223185
     3  H    0.233577
 Sum of Mulliken charges =   0.00000

 Dipole moment (field-independent basis, Debye):
    X=              0.0135    Y=             -1.9791    Z=              0.0000  Tot=              1.9792
 Quadrupole moment (field-independent basis, Debye-Ang):
   XX=             -4.3080   YY=             -6.3262   ZZ=             -7.6378
   XY=              0.0708   XZ=              0.0000   YZ=              0.0000

 1\1\GINC-NODE21\SP\RB2PLYPD3-FC\def2QZVP\H2O1\BOITTIER\26-Aug-2020\0\\
 #p B2PLYPD3/Def2QZVP\\h2o\\0,1\O,0,-5.326605,-0.767104,0.909529\H,0,-4
 .368927,-0.722326,1.023548\H,0,-5.609308,0.180031,0.82859\\Version=ES6
 4L-G09RevD.01\State=1-A'\HF=-76.3334483\MP2=-76.4241104\RMSD=4.252e-09
 \PG=CS [SG(H2O1)]\\@

 TO DRY ONE'S EYES AND LAUGH AT A FALL

 Normal termination of Gaussian 09 at Wed Aug 26 09:22:07 2020.
