 Gaussian 09, Revision D.01,
 Gaussian 09:  ES64L-G09RevD.01 24-Apr-2013

 --------------------
 #p B2PLYPD3/Def2QZVP
 --------------------

 ---
 h2o
 ---
 Symbolic Z-matrix:
 Charge =  0 Multiplicity = 1

                         Standard orientation:
 ---------------------------------------------------------------------
 Center     Atomic      Atomic             Coordinates (Angstroms)
 Number     Number       Type             X           Y           Z
 ---------------------------------------------------------------------
      1          8           0        0.000000    0.115138    0.000000
      2          1           0        0.731790   -0.507791    0.000000
      3          1           0       -0.731790   -0.413313    0.000000
 ---------------------------------------------------------------------

 SCF Done:  E(RB2PLYPD3) =  -76.3324246924     A.U. after   10 cycles
 E2(B2PLYPD3) =    -0.8915207444D-01 E(B2PLYPD3) =    -0.76421576766841D+02

 The electronic state is 1-A'.
 Alpha  occ. eigenvalues --  -19.72708  -1.17145  -0.62362  -0.47984  -0.40229
 Alpha virt. eigenvalues --    0.04766   0.10474   0.27324   0.30339   0.31258
 Alpha virt. eigenvalues --    0.37259   0.44883   0.50340   0.56684   0.62152
 Alpha virt. eigenvalues --    0.64941   0.81804   0.94355   0.95459   1.05077

 Mulliken charges:
               1
     1  O   -0.415466
     2  H    0.223064
     3  H    0.192401
 Sum of Mulliken charges =   0.00000

 Dipole moment (field-independent basis, Debye):
    X=             -0.0304    Y=             -1.9563    Z=              0.0000  Tot=              1.9565
 Quadrupole moment (field-independent basis, Debye-Ang):
   XX=             -4.4371   YY=             -6.2731   ZZ=             -7.5290
   XY=             -0.1503   XZ=              0.0000   YZ=              0.0000

 1\1\GINC-NODE02\SP\RB2PLYPD3-FC\def2QZVP\H2O1\BOITTIER\26-Aug-2020\0\\
 #p B2PLYPD3/Def2QZVP\\h2o\\0,1\O,0,-5.326605,-0.762333,0.923713\H,0,-4
 .368927,-0.694628,0.880988\H,0,-5.609308,0.075994,0.744648\\Version=ES
 64L-G09RevD.01\State=1-A'\HF=-76.3324247\MP2=-76.4215768\RMSD=5.993e-0
 9\PG=CS [SG(H2O1)]\\@

 CONFIDENCE IS WHAT YOU FEEL BEFORE YOU FULLY

 Normal termination of Gaussian 09 at Wed Aug 26 11:35:50 2020.
