 Gaussian 09, Revision D.01,
 Gaussian 09:  ES64L-G09RevD.01 24-Apr-2013

 --------------------
 #p B2PLYPD3/Def2QZVP
 --------------------

 ---
 h2o
 ---
 Symbolic Z-matrix:
 Charge =  0 Multiplicity = 1

                         Standard orientation:
 ---------------------------------------------------------------------
 Center     Atomic      Atomic             Coordinates (Angstroms)
 Number     Number       Type             X           Y           Z
 ---------------------------------------------------------------------
      1          8           0        0.000000    0.117139    0.000000
      2          1           0        0.764745   -0.461393    0.000000
      3          1           0       -0.764745   -0.475718    0.000000
 ---------------------------------------------------------------------

 SCF Done:  E(RB2PLYPD3) =  -76.3349146525     A.U. after   10 cycles
 E2(B2PLYPD3) =    -0.9013028807D-01 E(B2PLYPD3) =    -0.76425044940564D+02

 The electronic state is 1-A'.
 Alpha  occ. eigenvalues --  -19.73184  -1.15432  -0.61152  -0.47316  -0.39916
 Alpha virt. eigenvalues --    0.04494   0.10157   0.27536   0.30425   0.30939
 Alpha virt. eigenvalues --    0.35632   0.43845   0.50302   0.56134   0.62282
 Alpha virt. eigenvalues --    0.65736   0.81011   0.93650   0.96035   1.03612

 Mulliken charges:
               1
     1  O   -0.447639
     2  H    0.221925
     3  H    0.225714
 Sum of Mulliken charges =   0.00000

 Dipole moment (field-independent basis, Debye):
    X=              0.0044    Y=             -1.9571    Z=              0.0000  Tot=              1.9571
 Quadrupole moment (field-independent basis, Debye-Ang):
   XX=             -4.3077   YY=             -6.3421   ZZ=             -7.6047
   XY=              0.0238   XZ=              0.0000   YZ=              0.0000

 1\1\GINC-NODE39\SP\RB2PLYPD3-FC\def2QZVP\H2O1\BOITTIER\26-Aug-2020\0\\
 #p B2PLYPD3/Def2QZVP\\h2o\\0,1\O,0,-5.326605,-0.76488,0.917098\H,0,-4.
 368927,-0.728513,0.949717\H,0,-5.609308,0.150633,0.782084\\Version=ES6
 4L-G09RevD.01\State=1-A'\HF=-76.3349147\MP2=-76.4250449\RMSD=4.019e-09
 \PG=CS [SG(H2O1)]\\@

 WE ARE PERHAPS NOT FAR REMOVED FROM THE TIME WHEN WE SHALL BE ABLE TO SUBMIT

 Normal termination of Gaussian 09 at Wed Aug 26 09:30:28 2020.
