 Gaussian 09, Revision D.01,
 Gaussian 09:  ES64L-G09RevD.01 24-Apr-2013

 --------------------
 #p B2PLYPD3/Def2QZVP
 --------------------

 ---
 h2o
 ---
 Symbolic Z-matrix:
 Charge =  0 Multiplicity = 1

                         Standard orientation:
 ---------------------------------------------------------------------
 Center     Atomic      Atomic             Coordinates (Angstroms)
 Number     Number       Type             X           Y           Z
 ---------------------------------------------------------------------
      1          8           0        0.000000    0.121390    0.000000
      2          1           0        0.802393   -0.404301    0.000000
      3          1           0       -0.802393   -0.566819    0.000000
 ---------------------------------------------------------------------

 SCF Done:  E(RB2PLYPD3) =  -76.3257734208     A.U. after   10 cycles
 E2(B2PLYPD3) =    -0.9160821150D-01 E(B2PLYPD3) =    -0.76417381632336D+02

 The electronic state is 1-A'.
 Alpha  occ. eigenvalues --  -19.73773  -1.13569  -0.59376  -0.46494  -0.39546
 Alpha virt. eigenvalues --    0.03829   0.09707   0.27709   0.29362   0.30526
 Alpha virt. eigenvalues --    0.34108   0.42899   0.50089   0.55316   0.62265
 Alpha virt. eigenvalues --    0.66663   0.79607   0.91218   0.96834   1.00609

 Mulliken charges:
               1
     1  O   -0.475413
     2  H    0.221119
     3  H    0.254294
 Sum of Mulliken charges =   0.00000

 Dipole moment (field-independent basis, Debye):
    X=              0.0482    Y=             -1.9708    Z=              0.0000  Tot=              1.9714
 Quadrupole moment (field-independent basis, Debye-Ang):
   XX=             -4.1777   YY=             -6.3668   ZZ=             -7.7049
   XY=              0.2790   XZ=              0.0000   YZ=              0.0000

 1\1\GINC-NODE04\SP\RB2PLYPD3-FC\def2QZVP\H2O1\BOITTIER\26-Aug-2020\0\\
 #p B2PLYPD3/Def2QZVP\\h2o\\0,1\O,0,-5.326605,-0.767808,0.916685\H,0,-4
 .368927,-0.770918,0.971724\H,0,-5.609308,0.239898,0.768108\\Version=ES
 64L-G09RevD.01\State=1-A'\HF=-76.3257734\MP2=-76.4173816\RMSD=6.708e-0
 9\PG=CS [SG(H2O1)]\\@

 THE WORLD IS NOT A HAMBURGER - YOU CAN'T HAVE IT YOUR WAY.

 Normal termination of Gaussian 09 at Wed Aug 26 08:45:49 2020.
