 Gaussian 09, Revision D.01,
 Gaussian 09:  ES64L-G09RevD.01 24-Apr-2013

 --------------------
 #p B2PLYPD3/Def2QZVP
 --------------------

 ---
 h2o
 ---
 Symbolic Z-matrix:
 Charge =  0 Multiplicity = 1

                         Standard orientation:
 ---------------------------------------------------------------------
 Center     Atomic      Atomic             Coordinates (Angstroms)
 Number     Number       Type             X           Y           Z
 ---------------------------------------------------------------------
      1          8           0        0.000000    0.116278    0.000000
      2          1           0        0.752170   -0.480043    0.000000
      3          1           0       -0.752170   -0.450179    0.000000
 ---------------------------------------------------------------------

 SCF Done:  E(RB2PLYPD3) =  -76.3350968402     A.U. after   10 cycles
 E2(B2PLYPD3) =    -0.8973527946D-01 E(B2PLYPD3) =    -0.76424832119699D+02

 The electronic state is 1-A'.
 Alpha  occ. eigenvalues --  -19.73003  -1.16070  -0.61636  -0.47577  -0.40036
 Alpha virt. eigenvalues --    0.04620   0.10285   0.27461   0.30392   0.31124
 Alpha virt. eigenvalues --    0.36273   0.44212   0.50322   0.56362   0.62238
 Alpha virt. eigenvalues --    0.65429   0.81356   0.94045   0.95772   1.04385

 Mulliken charges:
               1
     1  O   -0.436363
     2  H    0.222454
     3  H    0.213910
 Sum of Mulliken charges =   0.00000

 Dipole moment (field-independent basis, Debye):
    X=             -0.0093    Y=             -1.9563    Z=              0.0000  Tot=              1.9563
 Quadrupole moment (field-independent basis, Debye-Ang):
   XX=             -4.3568   YY=             -6.3191   ZZ=             -7.5750
   XY=             -0.0488   XZ=              0.0000   YZ=              0.0000

 1\1\GINC-NODE22\SP\RB2PLYPD3-FC\def2QZVP\H2O1\BOITTIER\26-Aug-2020\0\\
 #p B2PLYPD3/Def2QZVP\\h2o\\0,1\O,0,-5.326605,-0.762758,0.925239\H,0,-4
 .368927,-0.725841,0.871878\H,0,-5.609308,0.114007,0.730315\\Version=ES
 64L-G09RevD.01\State=1-A'\HF=-76.3350968\MP2=-76.4248321\RMSD=4.348e-0
 9\PG=CS [SG(H2O1)]\\@

 At the touch of love, everyone becomves a poet.

 Normal termination of Gaussian 09 at Wed Aug 26 09:04:13 2020.
