 Gaussian 09, Revision D.01,
 Gaussian 09:  ES64L-G09RevD.01 24-Apr-2013

 --------------------
 #p B2PLYPD3/Def2QZVP
 --------------------

 ---
 h2o
 ---
 Symbolic Z-matrix:
 Charge =  0 Multiplicity = 1

                         Standard orientation:
 ---------------------------------------------------------------------
 Center     Atomic      Atomic             Coordinates (Angstroms)
 Number     Number       Type             X           Y           Z
 ---------------------------------------------------------------------
      1          8           0        0.000000    0.117146    0.000000
      2          1           0        0.741923   -0.492696    0.000000
      3          1           0       -0.741923   -0.444470    0.000000
 ---------------------------------------------------------------------

 SCF Done:  E(RB2PLYPD3) =  -76.3346293323     A.U. after   10 cycles
 E2(B2PLYPD3) =    -0.8959829878D-01 E(B2PLYPD3) =    -0.76424227631037D+02

 The electronic state is 1-A'.
 Alpha  occ. eigenvalues --  -19.72960  -1.16427  -0.61662  -0.47867  -0.40111
 Alpha virt. eigenvalues --    0.04646   0.10355   0.27439   0.30374   0.31092
 Alpha virt. eigenvalues --    0.36702   0.44392   0.50166   0.56595   0.61945
 Alpha virt. eigenvalues --    0.65314   0.81526   0.94265   0.95652   1.04465

 Mulliken charges:
               1
     1  O   -0.429133
     2  H    0.221753
     3  H    0.207380
 Sum of Mulliken charges =   0.00000

 Dipole moment (field-independent basis, Debye):
    X=             -0.0156    Y=             -1.9703    Z=              0.0000  Tot=              1.9703
 Quadrupole moment (field-independent basis, Debye-Ang):
   XX=             -4.4175   YY=             -6.2807   ZZ=             -7.5607
   XY=             -0.0771   XZ=              0.0000   YZ=              0.0000

 1\1\GINC-NODE16\SP\RB2PLYPD3-FC\def2QZVP\H2O1\BOITTIER\26-Aug-2020\0\\
 #p B2PLYPD3/Def2QZVP\\h2o\\0,1\O,0,-5.326605,-0.763871,0.923175\H,0,-4
 .368927,-0.697471,0.894872\H,0,-5.609308,0.103454,0.739629\\Version=ES
 64L-G09RevD.01\State=1-A'\HF=-76.3346293\MP2=-76.4242276\RMSD=4.821e-0
 9\PG=CS [SG(H2O1)]\\@

 LAWS OF PROGRAMMING DEFINITION:  A WORKING PROGRAM

 Normal termination of Gaussian 09 at Wed Aug 26 10:31:06 2020.
