 Gaussian 09, Revision D.01,
 Gaussian 09:  ES64L-G09RevD.01 24-Apr-2013

 --------------------
 #p B2PLYPD3/Def2QZVP
 --------------------

 ---
 h2o
 ---
 Symbolic Z-matrix:
 Charge =  0 Multiplicity = 1

                         Standard orientation:
 ---------------------------------------------------------------------
 Center     Atomic      Atomic             Coordinates (Angstroms)
 Number     Number       Type             X           Y           Z
 ---------------------------------------------------------------------
      1          8           0        0.000000    0.118527    0.000000
      2          1           0        0.754377   -0.474341    0.000000
      3          1           0       -0.754377   -0.473872    0.000000
 ---------------------------------------------------------------------

 SCF Done:  E(RB2PLYPD3) =  -76.3350544441     A.U. after   10 cycles
 E2(B2PLYPD3) =    -0.9004341754D-01 E(B2PLYPD3) =    -0.76425097861690D+02

 The electronic state is 1-A'.
 Alpha  occ. eigenvalues --  -19.73180  -1.15718  -0.61070  -0.47638  -0.39984
 Alpha virt. eigenvalues --    0.04512   0.10220   0.27535   0.30410   0.30888
 Alpha virt. eigenvalues --    0.36035   0.43960   0.50080   0.56398   0.61897
 Alpha virt. eigenvalues --    0.65669   0.81194   0.93924   0.95927   1.03625

 Mulliken charges:
               1
     1  O   -0.441552
     2  H    0.220840
     3  H    0.220712
 Sum of Mulliken charges =   0.00000

 Dipole moment (field-independent basis, Debye):
    X=             -0.0002    Y=             -1.9763    Z=              0.0000  Tot=              1.9763
 Quadrupole moment (field-independent basis, Debye-Ang):
   XX=             -4.3772   YY=             -6.2982   ZZ=             -7.5931
   XY=             -0.0008   XZ=              0.0000   YZ=              0.0000

 1\1\GINC-NODE11\SP\RB2PLYPD3-FC\def2QZVP\H2O1\BOITTIER\26-Aug-2020\0\\
 #p B2PLYPD3/Def2QZVP\\h2o\\0,1\O,0,-5.326605,-0.765255,0.921085\H,0,-4
 .368927,-0.706692,0.92018\H,0,-5.609308,0.134812,0.74794\\Version=ES64
 L-G09RevD.01\State=1-A'\HF=-76.3350544\MP2=-76.4250979\RMSD=4.152e-09\
 PG=CS [SG(H2O1)]\\@

 REALITY IS FOR PEOPLE WHO CAN'T FACE SCIENCE FICTION.

 Normal termination of Gaussian 09 at Wed Aug 26 10:25:46 2020.
