 Gaussian 09, Revision D.01,
 Gaussian 09:  ES64L-G09RevD.01 24-Apr-2013

 --------------------
 #p B2PLYPD3/Def2QZVP
 --------------------

 ---
 h2o
 ---
 Symbolic Z-matrix:
 Charge =  0 Multiplicity = 1

                         Standard orientation:
 ---------------------------------------------------------------------
 Center     Atomic      Atomic             Coordinates (Angstroms)
 Number     Number       Type             X           Y           Z
 ---------------------------------------------------------------------
      1          8           0        0.000000    0.117866    0.000000
      2          1           0        0.759380   -0.469399    0.000000
      3          1           0       -0.759380   -0.473533    0.000000
 ---------------------------------------------------------------------

 SCF Done:  E(RB2PLYPD3) =  -76.3350237277     A.U. after   10 cycles
 E2(B2PLYPD3) =    -0.9008523183D-01 E(B2PLYPD3) =    -0.76425108959536D+02

 The electronic state is 1-A'.
 Alpha  occ. eigenvalues --  -19.73183  -1.15579  -0.61109  -0.47483  -0.39952
 Alpha virt. eigenvalues --    0.04504   0.10190   0.27536   0.30417   0.30913
 Alpha virt. eigenvalues --    0.35841   0.43904   0.50184   0.56272   0.62080
 Alpha virt. eigenvalues --    0.65702   0.81110   0.93793   0.95978   1.03620

 Mulliken charges:
               1
     1  O   -0.444491
     2  H    0.221690
     3  H    0.222802
 Sum of Mulliken charges =   0.00000

 Dipole moment (field-independent basis, Debye):
    X=              0.0013    Y=             -1.9672    Z=              0.0000  Tot=              1.9672
 Quadrupole moment (field-independent basis, Debye-Ang):
   XX=             -4.3439   YY=             -6.3193   ZZ=             -7.5987
   XY=              0.0068   XZ=              0.0000   YZ=              0.0000

 1\1\GINC-NODE07\SP\RB2PLYPD3-FC\def2QZVP\H2O1\BOITTIER\26-Aug-2020\0\\
 #p B2PLYPD3/Def2QZVP\\h2o\\0,1\O,0,-5.326605,-0.763588,0.926303\H,0,-4
 .368927,-0.73086,0.868675\H,0,-5.609308,0.132316,0.716908\\Version=ES6
 4L-G09RevD.01\State=1-A'\HF=-76.3350237\MP2=-76.425109\RMSD=4.066e-09\
 PG=CS [SG(H2O1)]\\@

 KNOWLEDGE IS OF TWO KINDS:  WE KNOW A SUBJECT OURSELVES OR WE KNOW

 Normal termination of Gaussian 09 at Wed Aug 26 12:14:57 2020.
