 Gaussian 09, Revision D.01,
 Gaussian 09:  ES64L-G09RevD.01 24-Apr-2013

 --------------------
 #p B2PLYPD3/Def2QZVP
 --------------------

 ---
 h2o
 ---
 Symbolic Z-matrix:
 Charge =  0 Multiplicity = 1

                         Standard orientation:
 ---------------------------------------------------------------------
 Center     Atomic      Atomic             Coordinates (Angstroms)
 Number     Number       Type             X           Y           Z
 ---------------------------------------------------------------------
      1          8           0        0.000000    0.111098    0.000000
      2          1           0        0.756152   -0.476642    0.000000
      3          1           0       -0.756152   -0.412145    0.000000
 ---------------------------------------------------------------------

 SCF Done:  E(RB2PLYPD3) =  -76.3341784363     A.U. after   10 cycles
 E2(B2PLYPD3) =    -0.8927195734D-01 E(B2PLYPD3) =    -0.76423450393628D+02

 The electronic state is 1-A'.
 Alpha  occ. eigenvalues --  -19.72683  -1.16480  -0.62743  -0.47196  -0.40077
 Alpha virt. eigenvalues --    0.04791   0.10342   0.27335   0.30366   0.31551
 Alpha virt. eigenvalues --    0.36329   0.44588   0.50986   0.56071   0.63197
 Alpha virt. eigenvalues --    0.65057   0.81483   0.94038   0.95622   1.05514

 Mulliken charges:
               1
     1  O   -0.430823
     2  H    0.225149
     3  H    0.205674
 Sum of Mulliken charges =   0.00000

 Dipole moment (field-independent basis, Debye):
    X=             -0.0182    Y=             -1.9036    Z=              0.0000  Tot=              1.9036
 Quadrupole moment (field-independent basis, Debye-Ang):
   XX=             -4.2675   YY=             -6.3886   ZZ=             -7.5520
   XY=             -0.1090   XZ=              0.0000   YZ=              0.0000

 1\1\GINC-NODE34\SP\RB2PLYPD3-FC\def2QZVP\H2O1\BOITTIER\26-Aug-2020\0\\
 #p B2PLYPD3/Def2QZVP\\h2o\\0,1\O,0,-5.326605,-0.760569,0.918052\H,0,-4
 .368927,-0.753405,0.915564\H,0,-5.609308,0.106554,0.80089\\Version=ES6
 4L-G09RevD.01\State=1-A'\HF=-76.3341784\MP2=-76.4234504\RMSD=5.047e-09
 \PG=CS [SG(H2O1)]\\@

 IT MATTERS NOT HOW DEEP YOU PLOW,

 Normal termination of Gaussian 09 at Wed Aug 26 09:28:45 2020.
