 Gaussian 09, Revision D.01,
 Gaussian 09:  ES64L-G09RevD.01 24-Apr-2013

 --------------------
 #p B2PLYPD3/Def2QZVP
 --------------------

 ---
 h2o
 ---
 Symbolic Z-matrix:
 Charge =  0 Multiplicity = 1

                         Standard orientation:
 ---------------------------------------------------------------------
 Center     Atomic      Atomic             Coordinates (Angstroms)
 Number     Number       Type             X           Y           Z
 ---------------------------------------------------------------------
      1          8           0        0.000000    0.119674    0.000000
      2          1           0        0.764443   -0.460248    0.000000
      3          1           0       -0.764443   -0.497146    0.000000
 ---------------------------------------------------------------------

 SCF Done:  E(RB2PLYPD3) =  -76.3341950526     A.U. after   10 cycles
 E2(B2PLYPD3) =    -0.9041903903D-01 E(B2PLYPD3) =    -0.76424614091603D+02

 The electronic state is 1-A'.
 Alpha  occ. eigenvalues --  -19.73352  -1.15172  -0.60591  -0.47439  -0.39883
 Alpha virt. eigenvalues --    0.04380   0.10104   0.27603   0.30439   0.30637
 Alpha virt. eigenvalues --    0.35505   0.43655   0.50010   0.56214   0.61869
 Alpha virt. eigenvalues --    0.65945   0.80890   0.93501   0.96169   1.02776

 Mulliken charges:
               1
     1  O   -0.450382
     2  H    0.220490
     3  H    0.229892
 Sum of Mulliken charges =   0.00000

 Dipole moment (field-independent basis, Debye):
    X=              0.0118    Y=             -1.9809    Z=              0.0000  Tot=              1.9809
 Quadrupole moment (field-independent basis, Debye-Ang):
   XX=             -4.3443   YY=             -6.3093   ZZ=             -7.6196
   XY=              0.0603   XZ=              0.0000   YZ=              0.0000

 1\1\GINC-NODE01\SP\RB2PLYPD3-FC\def2QZVP\H2O1\BOITTIER\26-Aug-2020\0\\
 #p B2PLYPD3/Def2QZVP\\h2o\\0,1\O,0,-5.326605,-0.766421,0.918648\H,0,-4
 .368927,-0.714073,0.946863\H,0,-5.609308,0.160856,0.760292\\Version=ES
 64L-G09RevD.01\State=1-A'\HF=-76.3341951\MP2=-76.4246141\RMSD=4.271e-0
 9\PG=CS [SG(H2O1)]\\@

 THE VALUE OF PHILOSOPHY IS, IN FACT, TO BE SOUGHT LARGELY IN ITS

 Normal termination of Gaussian 09 at Wed Aug 26 11:32:15 2020.
