 Gaussian 09, Revision D.01,
 Gaussian 09:  ES64L-G09RevD.01 24-Apr-2013

 --------------------
 #p B2PLYPD3/Def2QZVP
 --------------------

 ---
 h2o
 ---
 Symbolic Z-matrix:
 Charge =  0 Multiplicity = 1

                         Standard orientation:
 ---------------------------------------------------------------------
 Center     Atomic      Atomic             Coordinates (Angstroms)
 Number     Number       Type             X           Y           Z
 ---------------------------------------------------------------------
      1          8           0        0.000000    0.116768    0.000000
      2          1           0        0.732805   -0.506036    0.000000
      3          1           0       -0.732805   -0.428112    0.000000
 ---------------------------------------------------------------------

 SCF Done:  E(RB2PLYPD3) =  -76.3333810159     A.U. after   10 cycles
 E2(B2PLYPD3) =    -0.8935373856D-01 E(B2PLYPD3) =    -0.76422734754477D+02

 The electronic state is 1-A'.
 Alpha  occ. eigenvalues --  -19.72837  -1.16895  -0.61949  -0.48056  -0.40195
 Alpha virt. eigenvalues --    0.04703   0.10438   0.27381   0.30352   0.31137
 Alpha virt. eigenvalues --    0.37134   0.44684   0.50163   0.56742   0.61886
 Alpha virt. eigenvalues --    0.65104   0.81707   0.94392   0.95523   1.04747

 Mulliken charges:
               1
     1  O   -0.420089
     2  H    0.222309
     3  H    0.197780
 Sum of Mulliken charges =   0.00000

 Dipole moment (field-independent basis, Debye):
    X=             -0.0256    Y=             -1.9715    Z=              0.0000  Tot=              1.9717
 Quadrupole moment (field-independent basis, Debye-Ang):
   XX=             -4.4549   YY=             -6.2585   ZZ=             -7.5410
   XY=             -0.1231   XZ=              0.0000   YZ=              0.0000

 1\1\GINC-NODE21\SP\RB2PLYPD3-FC\def2QZVP\H2O1\BOITTIER\26-Aug-2020\0\\
 #p B2PLYPD3/Def2QZVP\\h2o\\0,1\O,0,-5.326605,-0.763293,0.924469\H,0,-4
 .368927,-0.686857,0.880888\H,0,-5.609308,0.083595,0.732745\\Version=ES
 64L-G09RevD.01\State=1-A'\HF=-76.333381\MP2=-76.4227348\RMSD=5.597e-09
 \PG=CS [SG(H2O1)]\\@

 SCIENCE IS LONG AND LIFE IS SHORT.

 Normal termination of Gaussian 09 at Wed Aug 26 12:22:58 2020.
