 Gaussian 09, Revision D.01,
 Gaussian 09:  ES64L-G09RevD.01 24-Apr-2013

 --------------------
 #p B2PLYPD3/Def2QZVP
 --------------------

 ---
 h2o
 ---
 Symbolic Z-matrix:
 Charge =  0 Multiplicity = 1

                         Standard orientation:
 ---------------------------------------------------------------------
 Center     Atomic      Atomic             Coordinates (Angstroms)
 Number     Number       Type             X           Y           Z
 ---------------------------------------------------------------------
      1          8           0        0.000000    0.118663    0.000000
      2          1           0        0.743575   -0.489826    0.000000
      3          1           0       -0.743575   -0.459476    0.000000
 ---------------------------------------------------------------------

 SCF Done:  E(RB2PLYPD3) =  -76.3349070231     A.U. after   10 cycles
 E2(B2PLYPD3) =    -0.8980937309D-01 E(B2PLYPD3) =    -0.76424716396202D+02

 The electronic state is 1-A'.
 Alpha  occ. eigenvalues --  -19.73084  -1.16173  -0.61272  -0.47907  -0.40074
 Alpha virt. eigenvalues --    0.04576   0.10311   0.27493   0.30388   0.30949
 Alpha virt. eigenvalues --    0.36531   0.44205   0.50010   0.56623   0.61716
 Alpha virt. eigenvalues --    0.65481   0.81416   0.94221   0.95754   1.04002

 Mulliken charges:
               1
     1  O   -0.433186
     2  H    0.220972
     3  H    0.212214
 Sum of Mulliken charges =   0.00000

 Dipole moment (field-independent basis, Debye):
    X=             -0.0100    Y=             -1.9837    Z=              0.0000  Tot=              1.9838
 Quadrupole moment (field-independent basis, Debye-Ang):
   XX=             -4.4307   YY=             -6.2677   ZZ=             -7.5733
   XY=             -0.0483   XZ=              0.0000   YZ=              0.0000

 1\1\GINC-NODE07\SP\RB2PLYPD3-FC\def2QZVP\H2O1\BOITTIER\26-Aug-2020\0\\
 #p B2PLYPD3/Def2QZVP\\h2o\\0,1\O,0,-5.326605,-0.764983,0.922911\H,0,-4
 .368927,-0.689821,0.90381\H,0,-5.609308,0.113586,0.734913\\Version=ES6
 4L-G09RevD.01\State=1-A'\HF=-76.334907\MP2=-76.4247164\RMSD=4.521e-09\
 PG=CS [SG(H2O1)]\\@

 THE POLHOLDE ROLLS WITHOUT SLIPPING ON THE HERPOLHOLDE LYING IN

 Normal termination of Gaussian 09 at Wed Aug 26 11:00:27 2020.
