 Gaussian 09, Revision D.01,
 Gaussian 09:  ES64L-G09RevD.01 24-Apr-2013

 --------------------
 #p B2PLYPD3/Def2QZVP
 --------------------

 ---
 h2o
 ---
 Symbolic Z-matrix:
 Charge =  0 Multiplicity = 1

                         Standard orientation:
 ---------------------------------------------------------------------
 Center     Atomic      Atomic             Coordinates (Angstroms)
 Number     Number       Type             X           Y           Z
 ---------------------------------------------------------------------
      1          8           0        0.000000    0.121123    0.000000
      2          1           0        0.741170   -0.493079    0.000000
      3          1           0       -0.741170   -0.475908    0.000000
 ---------------------------------------------------------------------

 SCF Done:  E(RB2PLYPD3) =  -76.3347378749     A.U. after   10 cycles
 E2(B2PLYPD3) =    -0.9004538634D-01 E(B2PLYPD3) =    -0.76424783261226D+02

 The electronic state is 1-A'.
 Alpha  occ. eigenvalues --  -19.73233  -1.15987  -0.60749  -0.48087  -0.40056
 Alpha virt. eigenvalues --    0.04488   0.10280   0.27557   0.30398   0.30725
 Alpha virt. eigenvalues --    0.36469   0.44036   0.49744   0.56759   0.61283
 Alpha virt. eigenvalues --    0.65654   0.81329   0.94245   0.95855   1.03367

 Mulliken charges:
               1
     1  O   -0.435227
     2  H    0.220026
     3  H    0.215201
 Sum of Mulliken charges =   0.00000

 Dipole moment (field-independent basis, Debye):
    X=             -0.0059    Y=             -2.0081    Z=              0.0000  Tot=              2.0081
 Quadrupole moment (field-independent basis, Debye-Ang):
   XX=             -4.4765   YY=             -6.2319   ZZ=             -7.5843
   XY=             -0.0268   XZ=              0.0000   YZ=              0.0000

 1\1\GINC-NODE15\SP\RB2PLYPD3-FC\def2QZVP\H2O1\BOITTIER\26-Aug-2020\0\\
 #p B2PLYPD3/Def2QZVP\\h2o\\0,1\O,0,-5.326605,-0.766512,0.923653\H,0,-4
 .368927,-0.670805,0.907238\H,0,-5.609308,0.119039,0.719552\\Version=ES
 64L-G09RevD.01\State=1-A'\HF=-76.3347379\MP2=-76.4247833\RMSD=4.482e-0
 9\PG=CS [SG(H2O1)]\\@

 IN THE WOODS WE RETURN TO REASON AND FAITH.

 Normal termination of Gaussian 09 at Wed Aug 26 11:17:09 2020.
