 Gaussian 09, Revision D.01,
 Gaussian 09:  ES64L-G09RevD.01 24-Apr-2013

 --------------------
 #p B2PLYPD3/Def2QZVP
 --------------------

 ---
 h2o
 ---
 Symbolic Z-matrix:
 Charge =  0 Multiplicity = 1

                         Standard orientation:
 ---------------------------------------------------------------------
 Center     Atomic      Atomic             Coordinates (Angstroms)
 Number     Number       Type             X           Y           Z
 ---------------------------------------------------------------------
      1          8           0        0.000000    0.118280    0.000000
      2          1           0        0.756997   -0.470860    0.000000
      3          1           0       -0.756997   -0.475384    0.000000
 ---------------------------------------------------------------------

 SCF Done:  E(RB2PLYPD3) =  -76.3350268193     A.U. after   10 cycles
 E2(B2PLYPD3) =    -0.9007663256D-01 E(B2PLYPD3) =    -0.76425103451896D+02

 The electronic state is 1-A'.
 Alpha  occ. eigenvalues --  -19.73188  -1.15634  -0.61069  -0.47561  -0.39966
 Alpha virt. eigenvalues --    0.04503   0.10202   0.27538   0.30414   0.30890
 Alpha virt. eigenvalues --    0.35928   0.43922   0.50123   0.56335   0.61977
 Alpha virt. eigenvalues --    0.65695   0.81146   0.93851   0.95959   1.03590

 Mulliken charges:
               1
     1  O   -0.443220
     2  H    0.220998
     3  H    0.222222
 Sum of Mulliken charges =   0.00000

 Dipole moment (field-independent basis, Debye):
    X=              0.0014    Y=             -1.9724    Z=              0.0000  Tot=              1.9724
 Quadrupole moment (field-independent basis, Debye-Ang):
   XX=             -4.3612   YY=             -6.3081   ZZ=             -7.5966
   XY=              0.0074   XZ=              0.0000   YZ=              0.0000

 1\1\GINC-NODE17\SP\RB2PLYPD3-FC\def2QZVP\H2O1\BOITTIER\26-Aug-2020\0\\
 #p B2PLYPD3/Def2QZVP\\h2o\\0,1\O,0,-5.326605,-0.764554,0.923676\H,0,-4
 .368927,-0.717834,0.89538\H,0,-5.609308,0.134738,0.731752\\Version=ES6
 4L-G09RevD.01\State=1-A'\HF=-76.3350268\MP2=-76.4251035\RMSD=4.110e-09
 \PG=CS [SG(H2O1)]\\@

 LIFE IS SO UNCERTAIN - EAT DESSERT FIRST.

 Normal termination of Gaussian 09 at Wed Aug 26 09:49:07 2020.
