 Gaussian 09, Revision D.01,
 Gaussian 09:  ES64L-G09RevD.01 24-Apr-2013

 --------------------
 #p B2PLYPD3/Def2QZVP
 --------------------

 ---
 h2o
 ---
 Symbolic Z-matrix:
 Charge =  0 Multiplicity = 1

                         Standard orientation:
 ---------------------------------------------------------------------
 Center     Atomic      Atomic             Coordinates (Angstroms)
 Number     Number       Type             X           Y           Z
 ---------------------------------------------------------------------
      1          8           0        0.000000    0.119571    0.000000
      2          1           0        0.756484   -0.471099    0.000000
      3          1           0       -0.756484   -0.485471    0.000000
 ---------------------------------------------------------------------

 SCF Done:  E(RB2PLYPD3) =  -76.3347792296     A.U. after   10 cycles
 E2(B2PLYPD3) =    -0.9021578262D-01 E(B2PLYPD3) =    -0.76424995012261D+02

 The electronic state is 1-A'.
 Alpha  occ. eigenvalues --  -19.73272  -1.15512  -0.60787  -0.47635  -0.39951
 Alpha virt. eigenvalues --    0.04450   0.10178   0.27572   0.30421   0.30751
 Alpha virt. eigenvalues --    0.35872   0.43827   0.49977   0.56386   0.61761
 Alpha virt. eigenvalues --    0.65797   0.81091   0.93808   0.96023   1.03193

 Mulliken charges:
               1
     1  O   -0.444535
     2  H    0.220357
     3  H    0.224178
 Sum of Mulliken charges =   0.00000

 Dipole moment (field-independent basis, Debye):
    X=              0.0047    Y=             -1.9848    Z=              0.0000  Tot=              1.9848
 Quadrupole moment (field-independent basis, Debye-Ang):
   XX=             -4.3816   YY=             -6.2908   ZZ=             -7.6036
   XY=              0.0232   XZ=              0.0000   YZ=              0.0000

 1\1\GINC-NODE30\SP\RB2PLYPD3-FC\def2QZVP\H2O1\BOITTIER\26-Aug-2020\0\\
 #p B2PLYPD3/Def2QZVP\\h2o\\0,1\O,0,-5.326605,-0.765233,0.924585\H,0,-4
 .368927,-0.710721,0.892327\H,0,-5.609308,0.138489,0.720357\\Version=ES
 64L-G09RevD.01\State=1-A'\HF=-76.3347792\MP2=-76.424995\RMSD=4.174e-09
 \PG=CS [SG(H2O1)]\\@

 A MAN SHOULD NEVER BE ASHAMED TO OWN HE HAS BEEN IN THE WRONG

 Normal termination of Gaussian 09 at Wed Aug 26 10:50:37 2020.
