 Gaussian 09, Revision D.01,
 Gaussian 09:  ES64L-G09RevD.01 24-Apr-2013

 --------------------
 #p B2PLYPD3/Def2QZVP
 --------------------

 ---
 h2o
 ---
 Symbolic Z-matrix:
 Charge =  0 Multiplicity = 1

                         Standard orientation:
 ---------------------------------------------------------------------
 Center     Atomic      Atomic             Coordinates (Angstroms)
 Number     Number       Type             X           Y           Z
 ---------------------------------------------------------------------
      1          8           0        0.000000    0.113031    0.000000
      2          1           0        0.788837   -0.431139    0.000000
      3          1           0       -0.788837   -0.473107    0.000000
 ---------------------------------------------------------------------

 SCF Done:  E(RB2PLYPD3) =  -76.3338523090     A.U. after   10 cycles
 E2(B2PLYPD3) =    -0.9027125646D-01 E(B2PLYPD3) =    -0.76424123565413D+02

 The electronic state is 1-A'.
 Alpha  occ. eigenvalues --  -19.73136  -1.14855  -0.61468  -0.46526  -0.39762
 Alpha virt. eigenvalues --    0.04461   0.10027   0.27510   0.30456   0.31130
 Alpha virt. eigenvalues --    0.34716   0.43637   0.51014   0.55494   0.63340
 Alpha virt. eigenvalues --    0.65839   0.80472   0.93087   0.96309   1.03749

 Mulliken charges:
               1
     1  O   -0.461475
     2  H    0.225538
     3  H    0.235938
 Sum of Mulliken charges =   0.00000

 Dipole moment (field-independent basis, Debye):
    X=              0.0112    Y=             -1.9032    Z=              0.0000  Tot=              1.9032
 Quadrupole moment (field-independent basis, Debye-Ang):
   XX=             -4.1318   YY=             -6.4538   ZZ=             -7.6286
   XY=              0.0737   XZ=              0.0000   YZ=              0.0000

 1\1\GINC-NODE01\SP\RB2PLYPD3-FC\def2QZVP\H2O1\BOITTIER\26-Aug-2020\0\\
 #p B2PLYPD3/Def2QZVP\\h2o\\0,1\O,0,-5.326605,-0.76199,0.917617\H,0,-4.
 368927,-0.795488,0.928338\H,0,-5.609308,0.17137,0.796209\\Version=ES64
 L-G09RevD.01\State=1-A'\HF=-76.3338523\MP2=-76.4241236\RMSD=4.109e-09\
 PG=CS [SG(H2O1)]\\@

 Where a calculator on the ENIAC is equipped with 18,000

 Normal termination of Gaussian 09 at Wed Aug 26 08:32:36 2020.
