 Gaussian 09, Revision D.01,
 Gaussian 09:  ES64L-G09RevD.01 24-Apr-2013

 --------------------
 #p B2PLYPD3/Def2QZVP
 --------------------

 ---
 h2o
 ---
 Symbolic Z-matrix:
 Charge =  0 Multiplicity = 1

                         Standard orientation:
 ---------------------------------------------------------------------
 Center     Atomic      Atomic             Coordinates (Angstroms)
 Number     Number       Type             X           Y           Z
 ---------------------------------------------------------------------
      1          8           0        0.000000    0.120149    0.000000
      2          1           0        0.759379   -0.469833    0.000000
      3          1           0       -0.759379   -0.491360    0.000000
 ---------------------------------------------------------------------

 SCF Done:  E(RB2PLYPD3) =  -76.3344896227     A.U. after   10 cycles
 E2(B2PLYPD3) =    -0.9035291688D-01 E(B2PLYPD3) =    -0.76424842539526D+02

 The electronic state is 1-A'.
 Alpha  occ. eigenvalues --  -19.73338  -1.15327  -0.60594  -0.47589  -0.39919
 Alpha virt. eigenvalues --    0.04402   0.10139   0.27600   0.30430   0.30655
 Alpha virt. eigenvalues --    0.35702   0.43718   0.49929   0.56342   0.61712
 Alpha virt. eigenvalues --    0.65899   0.80992   0.93680   0.96105   1.02881

 Mulliken charges:
               1
     1  O   -0.447383
     2  H    0.220897
     3  H    0.226486
 Sum of Mulliken charges =   0.00000

 Dipole moment (field-independent basis, Debye):
    X=              0.0070    Y=             -1.9884    Z=              0.0000  Tot=              1.9884
 Quadrupole moment (field-independent basis, Debye-Ang):
   XX=             -4.3756   YY=             -6.2910   ZZ=             -7.6127
   XY=              0.0348   XZ=              0.0000   YZ=              0.0000

 1\1\GINC-NODE33\SP\RB2PLYPD3-FC\def2QZVP\H2O1\BOITTIER\26-Aug-2020\0\\
 #p B2PLYPD3/Def2QZVP\\h2o\\0,1\O,0,-5.326605,-0.767019,0.916072\H,0,-4
 .368927,-0.699297,0.97086\H,0,-5.609308,0.155651,0.776939\\Version=ES6
 4L-G09RevD.01\State=1-A'\HF=-76.3344896\MP2=-76.4248425\RMSD=4.186e-09
 \PG=CS [SG(H2O1)]\\@

 THE UNDERLYING PHYSICAL LAWS NECESSARY FOR THE

 Normal termination of Gaussian 09 at Wed Aug 26 09:23:55 2020.
