 Gaussian 09, Revision D.01,
 Gaussian 09:  ES64L-G09RevD.01 24-Apr-2013

 --------------------
 #p B2PLYPD3/Def2QZVP
 --------------------

 ---
 h2o
 ---
 Symbolic Z-matrix:
 Charge =  0 Multiplicity = 1

                         Standard orientation:
 ---------------------------------------------------------------------
 Center     Atomic      Atomic             Coordinates (Angstroms)
 Number     Number       Type             X           Y           Z
 ---------------------------------------------------------------------
      1          8           0        0.000000    0.120380    0.000000
      2          1           0        0.731758   -0.507016    0.000000
      3          1           0       -0.731758   -0.456027    0.000000
 ---------------------------------------------------------------------

 SCF Done:  E(RB2PLYPD3) =  -76.3341804855     A.U. after   10 cycles
 E2(B2PLYPD3) =    -0.8974646570D-01 E(B2PLYPD3) =    -0.76423926951225D+02

 The electronic state is 1-A'.
 Alpha  occ. eigenvalues --  -19.73086  -1.16495  -0.61111  -0.48276  -0.40146
 Alpha virt. eigenvalues --    0.04569   0.10377   0.27490   0.30373   0.30843
 Alpha virt. eigenvalues --    0.36950   0.44344   0.49785   0.56915   0.61272
 Alpha virt. eigenvalues --    0.65407   0.81535   0.94466   0.95672   1.03909

 Mulliken charges:
               1
     1  O   -0.426367
     2  H    0.220802
     3  H    0.205564
 Sum of Mulliken charges =   0.00000

 Dipole moment (field-independent basis, Debye):
    X=             -0.0177    Y=             -2.0063    Z=              0.0000  Tot=              2.0064
 Quadrupole moment (field-independent basis, Debye-Ang):
   XX=             -4.5101   YY=             -6.2148   ZZ=             -7.5619
   XY=             -0.0788   XZ=              0.0000   YZ=              0.0000

 1\1\GINC-NODE14\SP\RB2PLYPD3-FC\def2QZVP\H2O1\BOITTIER\26-Aug-2020\0\\
 #p B2PLYPD3/Def2QZVP\\h2o\\0,1\O,0,-5.326605,-0.765742,0.924735\H,0,-4
 .368927,-0.660914,0.893744\H,0,-5.609308,0.096826,0.71552\\Version=ES6
 4L-G09RevD.01\State=1-A'\HF=-76.3341805\MP2=-76.423927\RMSD=5.060e-09\
 PG=CS [SG(H2O1)]\\@

 WE ARE REACHING THE STAGE WHERE THE PROBLEMS WE MUST SOLVE ARE

 Normal termination of Gaussian 09 at Wed Aug 26 12:07:28 2020.
