 Gaussian 09, Revision D.01,
 Gaussian 09:  ES64L-G09RevD.01 24-Apr-2013

 --------------------
 #p B2PLYPD3/Def2QZVP
 --------------------

 ---
 h2o
 ---
 Symbolic Z-matrix:
 Charge =  0 Multiplicity = 1

                         Standard orientation:
 ---------------------------------------------------------------------
 Center     Atomic      Atomic             Coordinates (Angstroms)
 Number     Number       Type             X           Y           Z
 ---------------------------------------------------------------------
      1          8           0        0.000000    0.119402    0.000000
      2          1           0        0.748267   -0.482838    0.000000
      3          1           0       -0.748267   -0.472382    0.000000
 ---------------------------------------------------------------------

 SCF Done:  E(RB2PLYPD3) =  -76.3349981283     A.U. after   10 cycles
 E2(B2PLYPD3) =    -0.9000337348D-01 E(B2PLYPD3) =    -0.76425001501796D+02

 The electronic state is 1-A'.
 Alpha  occ. eigenvalues --  -19.73182  -1.15881  -0.61001  -0.47830  -0.40023
 Alpha virt. eigenvalues --    0.04516   0.10255   0.27535   0.30402   0.30847
 Alpha virt. eigenvalues --    0.36264   0.44024   0.49953   0.56555   0.61663
 Alpha virt. eigenvalues --    0.65634   0.81282   0.94081   0.95872   1.03606

 Mulliken charges:
               1
     1  O   -0.438098
     2  H    0.220504
     3  H    0.217594
 Sum of Mulliken charges =   0.00000

 Dipole moment (field-independent basis, Debye):
    X=             -0.0035    Y=             -1.9880    Z=              0.0000  Tot=              1.9880
 Quadrupole moment (field-independent basis, Debye-Ang):
   XX=             -4.4187   YY=             -6.2715   ZZ=             -7.5868
   XY=             -0.0167   XZ=              0.0000   YZ=              0.0000

 1\1\GINC-NODE12\SP\RB2PLYPD3-FC\def2QZVP\H2O1\BOITTIER\26-Aug-2020\0\\
 #p B2PLYPD3/Def2QZVP\\h2o\\0,1\O,0,-5.326605,-0.765455,0.923098\H,0,-4
 .368927,-0.693808,0.905314\H,0,-5.609308,0.12513,0.730615\\Version=ES6
 4L-G09RevD.01\State=1-A'\HF=-76.3349981\MP2=-76.4250015\RMSD=4.290e-09
 \PG=CS [SG(H2O1)]\\@

 THERE IS NO SUBJECT, HOWEVER COMPLEX,

 Normal termination of Gaussian 09 at Wed Aug 26 08:03:10 2020.
