 Gaussian 09, Revision D.01,
 Gaussian 09:  ES64L-G09RevD.01 24-Apr-2013

 --------------------
 #p B2PLYPD3/Def2QZVP
 --------------------

 ---
 h2o
 ---
 Symbolic Z-matrix:
 Charge =  0 Multiplicity = 1

                         Standard orientation:
 ---------------------------------------------------------------------
 Center     Atomic      Atomic             Coordinates (Angstroms)
 Number     Number       Type             X           Y           Z
 ---------------------------------------------------------------------
      1          8           0        0.000000    0.116112    0.000000
      2          1           0        0.742943   -0.491648    0.000000
      3          1           0       -0.742943   -0.437250    0.000000
 ---------------------------------------------------------------------

 SCF Done:  E(RB2PLYPD3) =  -76.3344981333     A.U. after   10 cycles
 E2(B2PLYPD3) =    -0.8950544213D-01 E(B2PLYPD3) =    -0.76424003575408D+02

 The electronic state is 1-A'.
 Alpha  occ. eigenvalues --  -19.72897  -1.16504  -0.61883  -0.47787  -0.40118
 Alpha virt. eigenvalues --    0.04680   0.10366   0.27413   0.30370   0.31176
 Alpha virt. eigenvalues --    0.36714   0.44465   0.50288   0.56533   0.62134
 Alpha virt. eigenvalues --    0.65241   0.81557   0.94246   0.95619   1.04697

 Mulliken charges:
               1
     1  O   -0.428109
     2  H    0.222246
     3  H    0.205863
 Sum of Mulliken charges =   0.00000

 Dipole moment (field-independent basis, Debye):
    X=             -0.0173    Y=             -1.9598    Z=              0.0000  Tot=              1.9599
 Quadrupole moment (field-independent basis, Debye-Ang):
   XX=             -4.3984   YY=             -6.2953   ZZ=             -7.5562
   XY=             -0.0876   XZ=              0.0000   YZ=              0.0000

 1\1\GINC-NODE33\SP\RB2PLYPD3-FC\def2QZVP\H2O1\BOITTIER\26-Aug-2020\0\\
 #p B2PLYPD3/Def2QZVP\\h2o\\0,1\O,0,-5.326605,-0.763226,0.922838\H,0,-4
 .368927,-0.705464,0.893613\H,0,-5.609308,0.101117,0.746302\\Version=ES
 64L-G09RevD.01\State=1-A'\HF=-76.3344981\MP2=-76.4240036\RMSD=4.928e-0
 9\PG=CS [SG(H2O1)]\\@

 ERROR IS A HARDY PLANT... IT FLOURISHETH IN EVERY SOIL.

 Normal termination of Gaussian 09 at Wed Aug 26 10:07:47 2020.
