 Gaussian 09, Revision D.01,
 Gaussian 09:  ES64L-G09RevD.01 24-Apr-2013

 --------------------
 #p B2PLYPD3/Def2QZVP
 --------------------

 ---
 h2o
 ---
 Symbolic Z-matrix:
 Charge =  0 Multiplicity = 1

                         Standard orientation:
 ---------------------------------------------------------------------
 Center     Atomic      Atomic             Coordinates (Angstroms)
 Number     Number       Type             X           Y           Z
 ---------------------------------------------------------------------
      1          8           0        0.000000    0.118303    0.000000
      2          1           0        0.756140   -0.473862    0.000000
      3          1           0       -0.756140   -0.472559    0.000000
 ---------------------------------------------------------------------

 SCF Done:  E(RB2PLYPD3) =  -76.3350481955     A.U. after   10 cycles
 E2(B2PLYPD3) =    -0.9005892736D-01 E(B2PLYPD3) =    -0.76425107122877D+02

 The electronic state is 1-A'.
 Alpha  occ. eigenvalues --  -19.73182  -1.15668  -0.61082  -0.47583  -0.39973
 Alpha virt. eigenvalues --    0.04509   0.10209   0.27535   0.30413   0.30896
 Alpha virt. eigenvalues --    0.35967   0.43940   0.50115   0.56354   0.61960
 Alpha virt. eigenvalues --    0.65681   0.81165   0.93877   0.95945   1.03621

 Mulliken charges:
               1
     1  O   -0.442596
     2  H    0.221475
     3  H    0.221121
 Sum of Mulliken charges =   0.00000

 Dipole moment (field-independent basis, Debye):
    X=             -0.0004    Y=             -1.9732    Z=              0.0000  Tot=              1.9732
 Quadrupole moment (field-independent basis, Debye-Ang):
   XX=             -4.3656   YY=             -6.3056   ZZ=             -7.5951
   XY=             -0.0021   XZ=              0.0000   YZ=              0.0000

 1\1\GINC-NODE20\SP\RB2PLYPD3-FC\def2QZVP\H2O1\BOITTIER\26-Aug-2020\0\\
 #p B2PLYPD3/Def2QZVP\\h2o\\0,1\O,0,-5.326605,-0.765707,0.916746\H,0,-4
 .368927,-0.705651,0.957409\H,0,-5.609308,0.141011,0.779609\\Version=ES
 64L-G09RevD.01\State=1-A'\HF=-76.3350482\MP2=-76.4251071\RMSD=4.120e-0
 9\PG=CS [SG(H2O1)]\\@

 IT IS THE GODS' CUSTOM TO BRING LOW ALL THINGS OF SURPASSING GREATNESS.

 Normal termination of Gaussian 09 at Wed Aug 26 09:24:21 2020.
