 Gaussian 09, Revision D.01,
 Gaussian 09:  ES64L-G09RevD.01 24-Apr-2013

 --------------------
 #p B2PLYPD3/Def2QZVP
 --------------------

 ---
 h2o
 ---
 Symbolic Z-matrix:
 Charge =  0 Multiplicity = 1

                         Standard orientation:
 ---------------------------------------------------------------------
 Center     Atomic      Atomic             Coordinates (Angstroms)
 Number     Number       Type             X           Y           Z
 ---------------------------------------------------------------------
      1          8           0        0.000000    0.115077    0.000000
      2          1           0        0.788335   -0.429189    0.000000
      3          1           0       -0.788335   -0.491431    0.000000
 ---------------------------------------------------------------------

 SCF Done:  E(RB2PLYPD3) =  -76.3331600087     A.U. after   10 cycles
 E2(B2PLYPD3) =    -0.9048546472D-01 E(B2PLYPD3) =    -0.76423645473425D+02

 The electronic state is 1-A'.
 Alpha  occ. eigenvalues --  -19.73264  -1.14676  -0.61037  -0.46631  -0.39740
 Alpha virt. eigenvalues --    0.04368   0.09989   0.27557   0.30466   0.30850
 Alpha virt. eigenvalues --    0.34680   0.43507   0.50744   0.55558   0.62993
 Alpha virt. eigenvalues --    0.65988   0.80406   0.92910   0.96381   1.03016

 Mulliken charges:
               1
     1  O   -0.462905
     2  H    0.223939
     3  H    0.238966
 Sum of Mulliken charges =   0.00000

 Dipole moment (field-independent basis, Debye):
    X=              0.0173    Y=             -1.9230    Z=              0.0000  Tot=              1.9231
 Quadrupole moment (field-independent basis, Debye-Ang):
   XX=             -4.1622   YY=             -6.4260   ZZ=             -7.6394
   XY=              0.1081   XZ=              0.0000   YZ=              0.0000

 1\1\GINC-NODE09\SP\RB2PLYPD3-FC\def2QZVP\H2O1\BOITTIER\26-Aug-2020\0\\
 #p B2PLYPD3/Def2QZVP\\h2o\\0,1\O,0,-5.326605,-0.763315,0.918374\H,0,-4
 .368927,-0.783428,0.930462\H,0,-5.609308,0.180517,0.782049\\Version=ES
 64L-G09RevD.01\State=1-A'\HF=-76.33316\MP2=-76.4236455\RMSD=4.521e-09\
 PG=CS [SG(H2O1)]\\@

 LIFE IS SO UNCERTAIN - EAT DESSERT FIRST.

 Normal termination of Gaussian 09 at Wed Aug 26 08:44:07 2020.
