 Gaussian 09, Revision D.01,
 Gaussian 09:  ES64L-G09RevD.01 24-Apr-2013

 --------------------
 #p B2PLYPD3/Def2QZVP
 --------------------

 ---
 h2o
 ---
 Symbolic Z-matrix:
 Charge =  0 Multiplicity = 1

                         Standard orientation:
 ---------------------------------------------------------------------
 Center     Atomic      Atomic             Coordinates (Angstroms)
 Number     Number       Type             X           Y           Z
 ---------------------------------------------------------------------
      1          8           0        0.000000    0.118085    0.000000
      2          1           0        0.762285   -0.464424    0.000000
      3          1           0       -0.762285   -0.480257    0.000000
 ---------------------------------------------------------------------

 SCF Done:  E(RB2PLYPD3) =  -76.3348440977     A.U. after   10 cycles
 E2(B2PLYPD3) =    -0.9018007528D-01 E(B2PLYPD3) =    -0.76425024172940D+02

 The electronic state is 1-A'.
 Alpha  occ. eigenvalues --  -19.73225  -1.15433  -0.60995  -0.47421  -0.39924
 Alpha virt. eigenvalues --    0.04471   0.10159   0.27552   0.30425   0.30858
 Alpha virt. eigenvalues --    0.35694   0.43822   0.50177   0.56216   0.62089
 Alpha virt. eigenvalues --    0.65773   0.81027   0.93684   0.96042   1.03413

 Mulliken charges:
               1
     1  O   -0.446966
     2  H    0.221392
     3  H    0.225573
 Sum of Mulliken charges =   0.00000

 Dipole moment (field-independent basis, Debye):
    X=              0.0050    Y=             -1.9675    Z=              0.0000  Tot=              1.9675
 Quadrupole moment (field-independent basis, Debye-Ang):
   XX=             -4.3328   YY=             -6.3241   ZZ=             -7.6057
   XY=              0.0260   XZ=              0.0000   YZ=              0.0000

 1\1\GINC-NODE26\SP\RB2PLYPD3-FC\def2QZVP\H2O1\BOITTIER\26-Aug-2020\0\\
 #p B2PLYPD3/Def2QZVP\\h2o\\0,1\O,0,-5.326605,-0.76548,0.917509\H,0,-4.
 368927,-0.718708,0.950084\H,0,-5.609308,0.150427,0.77508\\Version=ES64
 L-G09RevD.01\State=1-A'\HF=-76.3348441\MP2=-76.4250242\RMSD=4.075e-09\
 PG=CS [SG(H2O1)]\\@

 IN THE FIGHT BETWEEN YOU AND THE WORLD, BACK THE WORLD

 Normal termination of Gaussian 09 at Wed Aug 26 09:13:04 2020.
