 Gaussian 09, Revision D.01,
 Gaussian 09:  ES64L-G09RevD.01 24-Apr-2013

 --------------------
 #p B2PLYPD3/Def2QZVP
 --------------------

 ---
 h2o
 ---
 Symbolic Z-matrix:
 Charge =  0 Multiplicity = 1

                         Standard orientation:
 ---------------------------------------------------------------------
 Center     Atomic      Atomic             Coordinates (Angstroms)
 Number     Number       Type             X           Y           Z
 ---------------------------------------------------------------------
      1          8           0        0.000000    0.113113    0.000000
      2          1           0        0.708716   -0.540588    0.000000
      3          1           0       -0.708716   -0.364320    0.000000
 ---------------------------------------------------------------------

 SCF Done:  E(RB2PLYPD3) =  -76.3229483254     A.U. after   10 cycles
 E2(B2PLYPD3) =    -0.8846013217D-01 E(B2PLYPD3) =    -0.76411408457529D+02

 The electronic state is 1-A'.
 Alpha  occ. eigenvalues --  -19.72290  -1.18572  -0.63360  -0.48343  -0.40460
 Alpha virt. eigenvalues --    0.04893   0.10678   0.27104   0.30275   0.31310
 Alpha virt. eigenvalues --    0.38187   0.45858   0.50477   0.56910   0.62230
 Alpha virt. eigenvalues --    0.64353   0.82206   0.94121   0.95370   1.05407

 Mulliken charges:
               1
     1  O   -0.383372
     2  H    0.225119
     3  H    0.158253
 Sum of Mulliken charges =   0.00000

 Dipole moment (field-independent basis, Debye):
    X=             -0.0578    Y=             -1.9475    Z=              0.0000  Tot=              1.9484
 Quadrupole moment (field-independent basis, Debye-Ang):
   XX=             -4.5133   YY=             -6.2191   ZZ=             -7.4733
   XY=             -0.2734   XZ=              0.0000   YZ=              0.0000

 1\1\GINC-NODE33\SP\RB2PLYPD3-FC\def2QZVP\H2O1\BOITTIER\26-Aug-2020\0\\
 #p B2PLYPD3/Def2QZVP\\h2o\\0,1\O,0,-5.326605,-0.760394,0.925525\H,0,-4
 .368927,-0.674465,0.854299\H,0,-5.609308,0.024806,0.741782\\Version=ES
 64L-G09RevD.01\State=1-A'\HF=-76.3229483\MP2=-76.4114085\RMSD=6.639e-0
 9\PG=CS [SG(H2O1)]\\@

 WISDOM IS KNOWING WHAT TO DO,

 Normal termination of Gaussian 09 at Wed Aug 26 09:27:28 2020.
