 Gaussian 09, Revision D.01,
 Gaussian 09:  ES64L-G09RevD.01 24-Apr-2013

 --------------------
 #p B2PLYPD3/Def2QZVP
 --------------------

 ---
 h2o
 ---
 Symbolic Z-matrix:
 Charge =  0 Multiplicity = 1

                         Standard orientation:
 ---------------------------------------------------------------------
 Center     Atomic      Atomic             Coordinates (Angstroms)
 Number     Number       Type             X           Y           Z
 ---------------------------------------------------------------------
      1          8           0        0.000000    0.120333    0.000000
      2          1           0        0.740672   -0.493880    0.000000
      3          1           0       -0.740672   -0.468784    0.000000
 ---------------------------------------------------------------------

 SCF Done:  E(RB2PLYPD3) =  -76.3347801753     A.U. after   10 cycles
 E2(B2PLYPD3) =    -0.8993964821D-01 E(B2PLYPD3) =    -0.76424719823478D+02

 The electronic state is 1-A'.
 Alpha  occ. eigenvalues --  -19.73172  -1.16103  -0.60943  -0.48060  -0.40073
 Alpha virt. eigenvalues --    0.04524   0.10301   0.27530   0.30392   0.30807
 Alpha virt. eigenvalues --    0.36550   0.44121   0.49822   0.56741   0.61403
 Alpha virt. eigenvalues --    0.65575   0.81382   0.94271   0.95801   1.03620

 Mulliken charges:
               1
     1  O   -0.433586
     2  H    0.220373
     3  H    0.213213
 Sum of Mulliken charges =   0.00000

 Dipole moment (field-independent basis, Debye):
    X=             -0.0086    Y=             -2.0010    Z=              0.0000  Tot=              2.0010
 Quadrupole moment (field-independent basis, Debye-Ang):
   XX=             -4.4677   YY=             -6.2400   ZZ=             -7.5783
   XY=             -0.0394   XZ=              0.0000   YZ=              0.0000

 1\1\GINC-NODE29\SP\RB2PLYPD3-FC\def2QZVP\H2O1\BOITTIER\26-Aug-2020\0\\
 #p B2PLYPD3/Def2QZVP\\h2o\\0,1\O,0,-5.326605,-0.766119,0.922966\H,0,-4
 .368927,-0.673683,0.910281\H,0,-5.609308,0.115637,0.727417\\Version=ES
 64L-G09RevD.01\State=1-A'\HF=-76.3347802\MP2=-76.4247198\RMSD=4.541e-0
 9\PG=CS [SG(H2O1)]\\@

 IT IS THE GODS' CUSTOM TO BRING LOW ALL THINGS OF SURPASSING GREATNESS.

 Normal termination of Gaussian 09 at Wed Aug 26 12:45:51 2020.
