 Gaussian 09, Revision D.01,
 Gaussian 09:  ES64L-G09RevD.01 24-Apr-2013

 --------------------
 #p B2PLYPD3/Def2QZVP
 --------------------

 ---
 h2o
 ---
 Symbolic Z-matrix:
 Charge =  0 Multiplicity = 1

                         Standard orientation:
 ---------------------------------------------------------------------
 Center     Atomic      Atomic             Coordinates (Angstroms)
 Number     Number       Type             X           Y           Z
 ---------------------------------------------------------------------
      1          8           0        0.000000    0.118570    0.000000
      2          1           0        0.789761   -0.424363    0.000000
      3          1           0       -0.789761   -0.524195    0.000000
 ---------------------------------------------------------------------

 SCF Done:  E(RB2PLYPD3) =  -76.3310289285     A.U. after   10 cycles
 E2(B2PLYPD3) =    -0.9092688771D-01 E(B2PLYPD3) =    -0.76421955816252D+02

 The electronic state is 1-A'.
 Alpha  occ. eigenvalues --  -19.73499  -1.14287  -0.60254  -0.46738  -0.39684
 Alpha virt. eigenvalues --    0.04171   0.09897   0.27642   0.30272   0.30487
 Alpha virt. eigenvalues --    0.34532   0.43258   0.50322   0.55598   0.62461
 Alpha virt. eigenvalues --    0.66276   0.80197   0.92430   0.96554   1.01803

 Mulliken charges:
               1
     1  O   -0.466443
     2  H    0.221859
     3  H    0.244584
 Sum of Mulliken charges =   0.00000

 Dipole moment (field-independent basis, Debye):
    X=              0.0293    Y=             -1.9545    Z=              0.0000  Tot=              1.9547
 Quadrupole moment (field-independent basis, Debye-Ang):
   XX=             -4.2029   YY=             -6.3821   ZZ=             -7.6629
   XY=              0.1707   XZ=              0.0000   YZ=              0.0000

 1\1\GINC-NODE20\SP\RB2PLYPD3-FC\def2QZVP\H2O1\BOITTIER\26-Aug-2020\0\\
 #p B2PLYPD3/Def2QZVP\\h2o\\0,1\O,0,-5.326605,-0.765834,0.917349\H,0,-4
 .368927,-0.76456,0.954078\H,0,-5.609308,0.201949,0.77472\\Version=ES64
 L-G09RevD.01\State=1-A'\HF=-76.3310289\MP2=-76.4219558\RMSD=5.323e-09\
 PG=CS [SG(H2O1)]\\@

 WERE I TO AWAIT PERFECTION, MY BOOK WOULD NEVER BE FINISHED.

 Normal termination of Gaussian 09 at Wed Aug 26 12:54:33 2020.
