 Gaussian 09, Revision D.01,
 Gaussian 09:  ES64L-G09RevD.01 24-Apr-2013

 --------------------
 #p B2PLYPD3/Def2QZVP
 --------------------

 ---
 h2o
 ---
 Symbolic Z-matrix:
 Charge =  0 Multiplicity = 1

                         Standard orientation:
 ---------------------------------------------------------------------
 Center     Atomic      Atomic             Coordinates (Angstroms)
 Number     Number       Type             X           Y           Z
 ---------------------------------------------------------------------
      1          8           0        0.000000    0.118751    0.000000
      2          1           0        0.791841   -0.421366    0.000000
      3          1           0       -0.791841   -0.528646    0.000000
 ---------------------------------------------------------------------

 SCF Done:  E(RB2PLYPD3) =  -76.3304919331     A.U. after   10 cycles
 E2(B2PLYPD3) =    -0.9100308287D-01 E(B2PLYPD3) =    -0.76421495015922D+02

 The electronic state is 1-A'.
 Alpha  occ. eigenvalues --  -19.73528  -1.14191  -0.60166  -0.46690  -0.39664
 Alpha virt. eigenvalues --    0.04136   0.09873   0.27649   0.30185   0.30493
 Alpha virt. eigenvalues --    0.34456   0.43210   0.50317   0.55551   0.62468
 Alpha virt. eigenvalues --    0.66323   0.80118   0.92295   0.96595   1.01647

 Mulliken charges:
               1
     1  O   -0.467896
     2  H    0.221901
     3  H    0.245996
 Sum of Mulliken charges =   0.00000

 Dipole moment (field-independent basis, Debye):
    X=              0.0314    Y=             -1.9547    Z=              0.0000  Tot=              1.9550
 Quadrupole moment (field-independent basis, Debye-Ang):
   XX=             -4.1949   YY=             -6.3840   ZZ=             -7.6681
   XY=              0.1838   XZ=              0.0000   YZ=              0.0000

 1\1\GINC-NODE10\SP\RB2PLYPD3-FC\def2QZVP\H2O1\BOITTIER\26-Aug-2020\0\\
 #p B2PLYPD3/Def2QZVP\\h2o\\0,1\O,0,-5.326605,-0.765984,0.917103\H,0,-4
 .368927,-0.766978,0.956988\H,0,-5.609308,0.206767,0.775788\\Version=ES
 64L-G09RevD.01\State=1-A'\HF=-76.3304919\MP2=-76.421495\RMSD=5.490e-09
 \PG=CS [SG(H2O1)]\\@

 ALL SCIENCE IS EITHER PHYSICS, OR STAMP COLLECTING.

 Normal termination of Gaussian 09 at Wed Aug 26 12:34:54 2020.
