 Gaussian 09, Revision D.01,
 Gaussian 09:  ES64L-G09RevD.01 24-Apr-2013

 --------------------
 #p B2PLYPD3/Def2QZVP
 --------------------

 ---
 h2o
 ---
 Symbolic Z-matrix:
 Charge =  0 Multiplicity = 1

                         Standard orientation:
 ---------------------------------------------------------------------
 Center     Atomic      Atomic             Coordinates (Angstroms)
 Number     Number       Type             X           Y           Z
 ---------------------------------------------------------------------
      1          8           0        0.000000    0.118704    0.000000
      2          1           0        0.744129   -0.489068    0.000000
      3          1           0       -0.744129   -0.460563    0.000000
 ---------------------------------------------------------------------

 SCF Done:  E(RB2PLYPD3) =  -76.3349317024     A.U. after   10 cycles
 E2(B2PLYPD3) =    -0.8982679182D-01 E(B2PLYPD3) =    -0.76424758494258D+02

 The electronic state is 1-A'.
 Alpha  occ. eigenvalues --  -19.73092  -1.16143  -0.61250  -0.47896  -0.40068
 Alpha virt. eigenvalues --    0.04571   0.10306   0.27497   0.30389   0.30942
 Alpha virt. eigenvalues --    0.36502   0.44187   0.50008   0.56613   0.61717
 Alpha virt. eigenvalues --    0.65495   0.81403   0.94206   0.95765   1.03971

 Mulliken charges:
               1
     1  O   -0.433707
     2  H    0.220952
     3  H    0.212756
 Sum of Mulliken charges =   0.00000

 Dipole moment (field-independent basis, Debye):
    X=             -0.0094    Y=             -1.9838    Z=              0.0000  Tot=              1.9838
 Quadrupole moment (field-independent basis, Debye-Ang):
   XX=             -4.4287   YY=             -6.2687   ZZ=             -7.5746
   XY=             -0.0454   XZ=              0.0000   YZ=              0.0000

 1\1\GINC-NODE01\SP\RB2PLYPD3-FC\def2QZVP\H2O1\BOITTIER\26-Aug-2020\0\\
 #p B2PLYPD3/Def2QZVP\\h2o\\0,1\O,0,-5.326605,-0.764885,0.923481\H,0,-4
 .368927,-0.691715,0.898702\H,0,-5.609308,0.113926,0.730999\\Version=ES
 64L-G09RevD.01\State=1-A'\HF=-76.3349317\MP2=-76.4247585\RMSD=4.489e-0
 9\PG=CS [SG(H2O1)]\\@

 OLD AGE AND TREACHERY WILL ALWAYS PREVAIL OVER YOUTH AND SKILL.

 Normal termination of Gaussian 09 at Wed Aug 26 09:50:20 2020.
