 Gaussian 09, Revision D.01,
 Gaussian 09:  ES64L-G09RevD.01 24-Apr-2013

 --------------------
 #p B2PLYPD3/Def2QZVP
 --------------------

 ---
 h2o
 ---
 Symbolic Z-matrix:
 Charge =  0 Multiplicity = 1

                         Standard orientation:
 ---------------------------------------------------------------------
 Center     Atomic      Atomic             Coordinates (Angstroms)
 Number     Number       Type             X           Y           Z
 ---------------------------------------------------------------------
      1          8           0        0.000000    0.111417    0.000000
      2          1           0        0.812275   -0.403154    0.000000
      3          1           0       -0.812275   -0.488182    0.000000
 ---------------------------------------------------------------------

 SCF Done:  E(RB2PLYPD3) =  -76.3308761951     A.U. after   10 cycles
 E2(B2PLYPD3) =    -0.9071353127D-01 E(B2PLYPD3) =    -0.76421589726340D+02

 The electronic state is 1-A'.
 Alpha  occ. eigenvalues --  -19.73241  -1.14065  -0.61175  -0.45876  -0.39574
 Alpha virt. eigenvalues --    0.04278   0.09846   0.27520   0.30502   0.30906
 Alpha virt. eigenvalues --    0.33836   0.43257   0.51487   0.54941   0.63970
 Alpha virt. eigenvalues --    0.66181   0.79668   0.92348   0.96720   1.02730

 Mulliken charges:
               1
     1  O   -0.477780
     2  H    0.229343
     3  H    0.248437
 Sum of Mulliken charges =   0.00000

 Dipole moment (field-independent basis, Debye):
    X=              0.0205    Y=             -1.8725    Z=              0.0000  Tot=              1.8726
 Quadrupole moment (field-independent basis, Debye-Ang):
   XX=             -3.9897   YY=             -6.5302   ZZ=             -7.6677
   XY=              0.1555   XZ=              0.0000   YZ=              0.0000

 1\1\GINC-NODE20\SP\RB2PLYPD3-FC\def2QZVP\H2O1\BOITTIER\26-Aug-2020\0\\
 #p B2PLYPD3/Def2QZVP\\h2o\\0,1\O,0,-5.326605,-0.76113,0.914847\H,0,-4.
 368927,-0.841685,0.945474\H,0,-5.609308,0.203815,0.823904\\Version=ES6
 4L-G09RevD.01\State=1-A'\HF=-76.3308762\MP2=-76.4215897\RMSD=5.165e-09
 \PG=CS [SG(H2O1)]\\@

 When I told the people of Northern Ireland that I was

 Normal termination of Gaussian 09 at Wed Aug 26 08:38:01 2020.
