 Gaussian 09, Revision D.01,
 Gaussian 09:  ES64L-G09RevD.01 24-Apr-2013

 --------------------
 #p B2PLYPD3/Def2QZVP
 --------------------

 ---
 h2o
 ---
 Symbolic Z-matrix:
 Charge =  0 Multiplicity = 1

                         Standard orientation:
 ---------------------------------------------------------------------
 Center     Atomic      Atomic             Coordinates (Angstroms)
 Number     Number       Type             X           Y           Z
 ---------------------------------------------------------------------
      1          8           0        0.000000    0.116463    0.000000
      2          1           0        0.759250   -0.469472    0.000000
      3          1           0       -0.759250   -0.462235    0.000000
 ---------------------------------------------------------------------

 SCF Done:  E(RB2PLYPD3) =  -76.3351905944     A.U. after   10 cycles
 E2(B2PLYPD3) =    -0.8992201624D-01 E(B2PLYPD3) =    -0.76425112610627D+02

 The electronic state is 1-A'.
 Alpha  occ. eigenvalues --  -19.73086  -1.15740  -0.61432  -0.47417  -0.39973
 Alpha virt. eigenvalues --    0.04565   0.10220   0.27496   0.30408   0.31062
 Alpha virt. eigenvalues --    0.35927   0.44025   0.50345   0.56227   0.62310
 Alpha virt. eigenvalues --    0.65578   0.81182   0.93854   0.95902   1.04078

 Mulliken charges:
               1
     1  O   -0.442458
     2  H    0.222224
     3  H    0.220234
 Sum of Mulliken charges =   0.00000

 Dipole moment (field-independent basis, Debye):
    X=             -0.0022    Y=             -1.9540    Z=              0.0000  Tot=              1.9540
 Quadrupole moment (field-independent basis, Debye-Ang):
   XX=             -4.3252   YY=             -6.3360   ZZ=             -7.5899
   XY=             -0.0119   XZ=              0.0000   YZ=              0.0000

 1\1\GINC-NODE18\SP\RB2PLYPD3-FC\def2QZVP\H2O1\BOITTIER\26-Aug-2020\0\\
 #p B2PLYPD3/Def2QZVP\\h2o\\0,1\O,0,-5.326605,-0.764424,0.917027\H,0,-4
 .368927,-0.723025,0.947372\H,0,-5.609308,0.137846,0.785342\\Version=ES
 64L-G09RevD.01\State=1-A'\HF=-76.3351906\MP2=-76.4251126\RMSD=4.056e-0
 9\PG=CS [SG(H2O1)]\\@

 WERE I TO AWAIT PERFECTION, MY BOOK WOULD NEVER BE FINISHED.

 Normal termination of Gaussian 09 at Wed Aug 26 11:36:38 2020.
