 Gaussian 09, Revision D.01,
 Gaussian 09:  ES64L-G09RevD.01 24-Apr-2013

 --------------------
 #p B2PLYPD3/Def2QZVP
 --------------------

 ---
 h2o
 ---
 Symbolic Z-matrix:
 Charge =  0 Multiplicity = 1

                         Standard orientation:
 ---------------------------------------------------------------------
 Center     Atomic      Atomic             Coordinates (Angstroms)
 Number     Number       Type             X           Y           Z
 ---------------------------------------------------------------------
      1          8           0        0.000000    0.125312    0.000000
      2          1           0        0.743031   -0.494206    0.000000
      3          1           0       -0.743031   -0.508291    0.000000
 ---------------------------------------------------------------------

 SCF Done:  E(RB2PLYPD3) =  -76.3336470623     A.U. after   10 cycles
 E2(B2PLYPD3) =    -0.9060613422D-01 E(B2PLYPD3) =    -0.76424253196565D+02

 The electronic state is 1-A'.
 Alpha  occ. eigenvalues --  -19.73541  -1.15417  -0.59755  -0.48228  -0.39978
 Alpha virt. eigenvalues --    0.04286   0.10163   0.27692   0.30254   0.30425
 Alpha virt. eigenvalues --    0.36046   0.43633   0.49347   0.56848   0.60662
 Alpha virt. eigenvalues --    0.66053   0.81052   0.94055   0.96149   1.02026

 Mulliken charges:
               1
     1  O   -0.442422
     2  H    0.219383
     3  H    0.223039
 Sum of Mulliken charges =   0.00000

 Dipole moment (field-independent basis, Debye):
    X=              0.0051    Y=             -2.0451    Z=              0.0000  Tot=              2.0451
 Quadrupole moment (field-independent basis, Debye-Ang):
   XX=             -4.5269   YY=             -6.1846   ZZ=             -7.6147
   XY=              0.0216   XZ=              0.0000   YZ=              0.0000

 1\1\GINC-NODE28\SP\RB2PLYPD3-FC\def2QZVP\H2O1\BOITTIER\26-Aug-2020\0\\
 #p B2PLYPD3/Def2QZVP\\h2o\\0,1\O,0,-5.326605,-0.766502,0.933152\H,0,-4
 .368927,-0.674348,0.831873\H,0,-5.609308,0.122427,0.644307\\Version=ES
 64L-G09RevD.01\State=1-A'\HF=-76.3336471\MP2=-76.4242532\RMSD=4.498e-0
 9\PG=CS [SG(H2O1)]\\@

 SILVERMAN'S PARADOX - IF MURPHY'S LAW CAN GO WRONG, IT WILL.

 Normal termination of Gaussian 09 at Wed Aug 26 08:40:55 2020.
