 Gaussian 09, Revision D.01,
 Gaussian 09:  ES64L-G09RevD.01 24-Apr-2013

 --------------------
 #p B2PLYPD3/Def2QZVP
 --------------------

 ---
 h2o
 ---
 Symbolic Z-matrix:
 Charge =  0 Multiplicity = 1

                         Standard orientation:
 ---------------------------------------------------------------------
 Center     Atomic      Atomic             Coordinates (Angstroms)
 Number     Number       Type             X           Y           Z
 ---------------------------------------------------------------------
      1          8           0        0.000000    0.115782    0.000000
      2          1           0        0.758802   -0.471669    0.000000
      3          1           0       -0.758802   -0.454584    0.000000
 ---------------------------------------------------------------------

 SCF Done:  E(RB2PLYPD3) =  -76.3352042651     A.U. after   10 cycles
 E2(B2PLYPD3) =    -0.8983506815D-01 E(B2PLYPD3) =    -0.76425039333228D+02

 The electronic state is 1-A'.
 Alpha  occ. eigenvalues --  -19.73034  -1.15835  -0.61598  -0.47393  -0.39987
 Alpha virt. eigenvalues --    0.04596   0.10237   0.27475   0.30403   0.31133
 Alpha virt. eigenvalues --    0.35986   0.44095   0.50423   0.56211   0.62419
 Alpha virt. eigenvalues --    0.65510   0.81225   0.93888   0.95860   1.04301

 Mulliken charges:
               1
     1  O   -0.441091
     2  H    0.222924
     3  H    0.218167
 Sum of Mulliken charges =   0.00000

 Dipole moment (field-independent basis, Debye):
    X=             -0.0052    Y=             -1.9477    Z=              0.0000  Tot=              1.9477
 Quadrupole moment (field-independent basis, Debye-Ang):
   XX=             -4.3180   YY=             -6.3429   ZZ=             -7.5849
   XY=             -0.0283   XZ=              0.0000   YZ=              0.0000

 1\1\GINC-NODE06\SP\RB2PLYPD3-FC\def2QZVP\H2O1\BOITTIER\26-Aug-2020\0\\
 #p B2PLYPD3/Def2QZVP\\h2o\\0,1\O,0,-5.326605,-0.762363,0.925415\H,0,-4
 .368927,-0.740986,0.868192\H,0,-5.609308,0.12283,0.731484\\Version=ES6
 4L-G09RevD.01\State=1-A'\HF=-76.3352043\MP2=-76.4250393\RMSD=4.110e-09
 \PG=CS [SG(H2O1)]\\@

 HERE WE GO......

 Normal termination of Gaussian 09 at Wed Aug 26 11:43:23 2020.
