 Gaussian 09, Revision D.01,
 Gaussian 09:  ES64L-G09RevD.01 24-Apr-2013

 --------------------
 #p B2PLYPD3/Def2QZVP
 --------------------

 ---
 h2o
 ---
 Symbolic Z-matrix:
 Charge =  0 Multiplicity = 1

                         Standard orientation:
 ---------------------------------------------------------------------
 Center     Atomic      Atomic             Coordinates (Angstroms)
 Number     Number       Type             X           Y           Z
 ---------------------------------------------------------------------
      1          8           0        0.000000    0.118222    0.000000
      2          1           0        0.744204   -0.489172    0.000000
      3          1           0       -0.744204   -0.456605    0.000000
 ---------------------------------------------------------------------

 SCF Done:  E(RB2PLYPD3) =  -76.3349137529     A.U. after   10 cycles
 E2(B2PLYPD3) =    -0.8977280622D-01 E(B2PLYPD3) =    -0.76424686559086D+02

 The electronic state is 1-A'.
 Alpha  occ. eigenvalues --  -19.73059  -1.16197  -0.61361  -0.47869  -0.40075
 Alpha virt. eigenvalues --    0.04591   0.10315   0.27482   0.30386   0.30987
 Alpha virt. eigenvalues --    0.36530   0.44230   0.50060   0.56593   0.61797
 Alpha virt. eigenvalues --    0.65453   0.81427   0.94210   0.95741   1.04105

 Mulliken charges:
               1
     1  O   -0.432964
     2  H    0.221197
     3  H    0.211766
 Sum of Mulliken charges =   0.00000

 Dipole moment (field-independent basis, Debye):
    X=             -0.0107    Y=             -1.9792    Z=              0.0000  Tot=              1.9793
 Quadrupole moment (field-independent basis, Debye-Ang):
   XX=             -4.4216   YY=             -6.2746   ZZ=             -7.5717
   XY=             -0.0520   XZ=              0.0000   YZ=              0.0000

 1\1\GINC-NODE14\SP\RB2PLYPD3-FC\def2QZVP\H2O1\BOITTIER\26-Aug-2020\0\\
 #p B2PLYPD3/Def2QZVP\\h2o\\0,1\O,0,-5.326605,-0.764491,0.923742\H,0,-4
 .368927,-0.695577,0.894223\H,0,-5.609308,0.111485,0.73136\\Version=ES6
 4L-G09RevD.01\State=1-A'\HF=-76.3349138\MP2=-76.4246866\RMSD=4.533e-09
 \PG=CS [SG(H2O1)]\\@

 THE THINKER DIES, BUT HIS THOUGHTS ARE BEYOND THE

 Normal termination of Gaussian 09 at Wed Aug 26 12:32:38 2020.
