 Gaussian 09, Revision D.01,
 Gaussian 09:  ES64L-G09RevD.01 24-Apr-2013

 --------------------
 #p B2PLYPD3/Def2QZVP
 --------------------

 ---
 h2o
 ---
 Symbolic Z-matrix:
 Charge =  0 Multiplicity = 1

                         Standard orientation:
 ---------------------------------------------------------------------
 Center     Atomic      Atomic             Coordinates (Angstroms)
 Number     Number       Type             X           Y           Z
 ---------------------------------------------------------------------
      1          8           0        0.000000    0.121880    0.000000
      2          1           0        0.724530   -0.518422    0.000000
      3          1           0       -0.724530   -0.456616    0.000000
 ---------------------------------------------------------------------

 SCF Done:  E(RB2PLYPD3) =  -76.3335396151     A.U. after   10 cycles
 E2(B2PLYPD3) =    -0.8976868574D-01 E(B2PLYPD3) =    -0.76423308300813D+02

 The electronic state is 1-A'.
 Alpha  occ. eigenvalues --  -19.73119  -1.16638  -0.60896  -0.48522  -0.40182
 Alpha virt. eigenvalues --    0.04541   0.10408   0.27502   0.30367   0.30730
 Alpha virt. eigenvalues --    0.37151   0.44391   0.49622   0.57105   0.60938
 Alpha virt. eigenvalues --    0.65397   0.81561   0.94601   0.95655   1.03735

 Mulliken charges:
               1
     1  O   -0.423037
     2  H    0.220882
     3  H    0.202154
 Sum of Mulliken charges =   0.00000

 Dipole moment (field-independent basis, Debye):
    X=             -0.0223    Y=             -2.0241    Z=              0.0000  Tot=              2.0243
 Quadrupole moment (field-independent basis, Debye-Ang):
   XX=             -4.5645   YY=             -6.1769   ZZ=             -7.5582
   XY=             -0.0936   XZ=              0.0000   YZ=              0.0000

 1\1\GINC-NODE02\SP\RB2PLYPD3-FC\def2QZVP\H2O1\BOITTIER\26-Aug-2020\0\\
 #p B2PLYPD3/Def2QZVP\\h2o\\0,1\O,0,-5.326605,-0.767108,0.923255\H,0,-4
 .368927,-0.634099,0.913699\H,0,-5.609308,0.091865,0.718694\\Version=ES
 64L-G09RevD.01\State=1-A'\HF=-76.3335396\MP2=-76.4233083\RMSD=5.380e-0
 9\PG=CS [SG(H2O1)]\\@

 IF YOU GIVE EVERYONE A PIECE OF YOUR MIND,

 Normal termination of Gaussian 09 at Wed Aug 26 08:33:41 2020.
