 Gaussian 09, Revision D.01,
 Gaussian 09:  ES64L-G09RevD.01 24-Apr-2013

 --------------------
 #p B2PLYPD3/Def2QZVP
 --------------------

 ---
 h2o
 ---
 Symbolic Z-matrix:
 Charge =  0 Multiplicity = 1

                         Standard orientation:
 ---------------------------------------------------------------------
 Center     Atomic      Atomic             Coordinates (Angstroms)
 Number     Number       Type             X           Y           Z
 ---------------------------------------------------------------------
      1          8           0        0.000000    0.115452    0.000000
      2          1           0        0.748609   -0.483795    0.000000
      3          1           0       -0.748609   -0.439818    0.000000
 ---------------------------------------------------------------------

 SCF Done:  E(RB2PLYPD3) =  -76.3348414918     A.U. after   10 cycles
 E2(B2PLYPD3) =    -0.8956090349D-01 E(B2PLYPD3) =    -0.76424402395257D+02

 The electronic state is 1-A'.
 Alpha  occ. eigenvalues --  -19.72909  -1.16324  -0.61910  -0.47618  -0.40079
 Alpha virt. eigenvalues --    0.04675   0.10330   0.27421   0.30378   0.31217
 Alpha virt. eigenvalues --    0.36486   0.44378   0.50396   0.56399   0.62326
 Alpha virt. eigenvalues --    0.65290   0.81473   0.94143   0.95673   1.04727

 Mulliken charges:
               1
     1  O   -0.431935
     2  H    0.222458
     3  H    0.209477
 Sum of Mulliken charges =   0.00000

 Dipole moment (field-independent basis, Debye):
    X=             -0.0136    Y=             -1.9503    Z=              0.0000  Tot=              1.9504
 Quadrupole moment (field-independent basis, Debye-Ang):
   XX=             -4.3625   YY=             -6.3188   ZZ=             -7.5631
   XY=             -0.0717   XZ=              0.0000   YZ=              0.0000

 1\1\GINC-NODE01\SP\RB2PLYPD3-FC\def2QZVP\H2O1\BOITTIER\26-Aug-2020\0\\
 #p B2PLYPD3/Def2QZVP\\h2o\\0,1\O,0,-5.326605,-0.763158,0.920914\H,0,-4
 .368927,-0.716116,0.908576\H,0,-5.609308,0.110682,0.762099\\Version=ES
 64L-G09RevD.01\State=1-A'\HF=-76.3348415\MP2=-76.4244024\RMSD=4.627e-0
 9\PG=CS [SG(H2O1)]\\@

 ...THOSE SCIENCES ARE VAIN AND FULL OF ERRORS WHICH

 Normal termination of Gaussian 09 at Wed Aug 26 08:39:25 2020.
