 Gaussian 09, Revision D.01,
 Gaussian 09:  ES64L-G09RevD.01 24-Apr-2013

 --------------------
 #p B2PLYPD3/Def2QZVP
 --------------------

 ---
 h2o
 ---
 Symbolic Z-matrix:
 Charge =  0 Multiplicity = 1

                         Standard orientation:
 ---------------------------------------------------------------------
 Center     Atomic      Atomic             Coordinates (Angstroms)
 Number     Number       Type             X           Y           Z
 ---------------------------------------------------------------------
      1          8           0        0.000000    0.114847    0.000000
      2          1           0        0.769009   -0.456005    0.000000
      3          1           0       -0.769009   -0.462768    0.000000
 ---------------------------------------------------------------------

 SCF Done:  E(RB2PLYPD3) =  -76.3350694880     A.U. after   10 cycles
 E2(B2PLYPD3) =    -0.8997567598D-01 E(B2PLYPD3) =    -0.76425045164000D+02

 The electronic state is 1-A'.
 Alpha  occ. eigenvalues --  -19.73070  -1.15497  -0.61567  -0.47099  -0.39911
 Alpha virt. eigenvalues --    0.04559   0.10167   0.27490   0.30421   0.31151
 Alpha virt. eigenvalues --    0.35549   0.43935   0.50609   0.55970   0.62729
 Alpha virt. eigenvalues --    0.65618   0.81003   0.93633   0.96001   1.04185

 Mulliken charges:
               1
     1  O   -0.448045
     2  H    0.223118
     3  H    0.224928
 Sum of Mulliken charges =   0.00000

 Dipole moment (field-independent basis, Debye):
    X=              0.0020    Y=             -1.9328    Z=              0.0000  Tot=              1.9328
 Quadrupole moment (field-independent basis, Debye-Ang):
   XX=             -4.2554   YY=             -6.3812   ZZ=             -7.5994
   XY=              0.0114   XZ=              0.0000   YZ=              0.0000

 1\1\GINC-NODE37\SP\RB2PLYPD3-FC\def2QZVP\H2O1\BOITTIER\26-Aug-2020\0\\
 #p B2PLYPD3/Def2QZVP\\h2o\\0,1\O,0,-5.326605,-0.762979,0.919543\H,0,-4
 .368927,-0.753086,0.918745\H,0,-5.609308,0.14479,0.774466\\Version=ES6
 4L-G09RevD.01\State=1-A'\HF=-76.3350695\MP2=-76.4250452\RMSD=3.900e-09
 \PG=CS [SG(H2O1)]\\@

 UNDER MOST GREENE GRASSE LY MOST GREATE SNAKES.

 Normal termination of Gaussian 09 at Wed Aug 26 09:38:54 2020.
