 Gaussian 09, Revision D.01,
 Gaussian 09:  ES64L-G09RevD.01 24-Apr-2013

 --------------------
 #p B2PLYPD3/Def2QZVP
 --------------------

 ---
 h2o
 ---
 Symbolic Z-matrix:
 Charge =  0 Multiplicity = 1

                         Standard orientation:
 ---------------------------------------------------------------------
 Center     Atomic      Atomic             Coordinates (Angstroms)
 Number     Number       Type             X           Y           Z
 ---------------------------------------------------------------------
      1          8           0        0.000000    0.117697    0.000000
      2          1           0        0.755109   -0.474734    0.000000
      3          1           0       -0.755109   -0.466845    0.000000
 ---------------------------------------------------------------------

 SCF Done:  E(RB2PLYPD3) =  -76.3351360287     A.U. after   10 cycles
 E2(B2PLYPD3) =    -0.8996478647D-01 E(B2PLYPD3) =    -0.76425100815129D+02

 The electronic state is 1-A'.
 Alpha  occ. eigenvalues --  -19.73130  -1.15780  -0.61243  -0.47579  -0.39990
 Alpha virt. eigenvalues --    0.04542   0.10231   0.27514   0.30407   0.30968
 Alpha virt. eigenvalues --    0.36052   0.44015   0.50177   0.56355   0.62044
 Alpha virt. eigenvalues --    0.65609   0.81220   0.93931   0.95894   1.03856

 Mulliken charges:
               1
     1  O   -0.440940
     2  H    0.221558
     3  H    0.219383
 Sum of Mulliken charges =   0.00000

 Dipole moment (field-independent basis, Debye):
    X=             -0.0025    Y=             -1.9681    Z=              0.0000  Tot=              1.9681
 Quadrupole moment (field-independent basis, Debye-Ang):
   XX=             -4.3622   YY=             -6.3102   ZZ=             -7.5894
   XY=             -0.0128   XZ=              0.0000   YZ=              0.0000

 1\1\GINC-NODE33\SP\RB2PLYPD3-FC\def2QZVP\H2O1\BOITTIER\26-Aug-2020\0\\
 #p B2PLYPD3/Def2QZVP\\h2o\\0,1\O,0,-5.326605,-0.763749,0.925277\H,0,-4
 .368927,-0.721848,0.877717\H,0,-5.609308,0.125878,0.723974\\Version=ES
 64L-G09RevD.01\State=1-A'\HF=-76.335136\MP2=-76.4251008\RMSD=4.140e-09
 \PG=CS [SG(H2O1)]\\@

 THE MOST SERIOUS THREAT TO THE SURVIVAL OF MANKIND IS NOT NOW

 Normal termination of Gaussian 09 at Wed Aug 26 08:40:27 2020.
