 Gaussian 09, Revision D.01,
 Gaussian 09:  ES64L-G09RevD.01 24-Apr-2013

 --------------------
 #p B2PLYPD3/Def2QZVP
 --------------------

 ---
 h2o
 ---
 Symbolic Z-matrix:
 Charge =  0 Multiplicity = 1

                         Standard orientation:
 ---------------------------------------------------------------------
 Center     Atomic      Atomic             Coordinates (Angstroms)
 Number     Number       Type             X           Y           Z
 ---------------------------------------------------------------------
      1          8           0        0.000000    0.126151    0.000000
      2          1           0        0.746306   -0.487048    0.000000
      3          1           0       -0.746306   -0.522159    0.000000
 ---------------------------------------------------------------------

 SCF Done:  E(RB2PLYPD3) =  -76.3330034327     A.U. after   10 cycles
 E2(B2PLYPD3) =    -0.9078949208D-01 E(B2PLYPD3) =    -0.76423792924787D+02

 The electronic state is 1-A'.
 Alpha  occ. eigenvalues --  -19.73628  -1.15189  -0.59508  -0.48176  -0.39939
 Alpha virt. eigenvalues --    0.04219   0.10111   0.27729   0.30102   0.30436
 Alpha virt. eigenvalues --    0.35835   0.43506   0.49276   0.56791   0.60591
 Alpha virt. eigenvalues --    0.66178   0.80936   0.93860   0.96262   1.01634

 Mulliken charges:
               1
     1  O   -0.445521
     2  H    0.218345
     3  H    0.227176
 Sum of Mulliken charges =   0.00000

 Dipole moment (field-independent basis, Debye):
    X=              0.0128    Y=             -2.0506    Z=              0.0000  Tot=              2.0506
 Quadrupole moment (field-independent basis, Debye-Ang):
   XX=             -4.5232   YY=             -6.1817   ZZ=             -7.6262
   XY=              0.0538   XZ=              0.0000   YZ=              0.0000

 1\1\GINC-NODE23\SP\RB2PLYPD3-FC\def2QZVP\H2O1\BOITTIER\26-Aug-2020\0\\
 #p B2PLYPD3/Def2QZVP\\h2o\\0,1\O,0,-5.326605,-0.767751,0.931398\H,0,-4
 .368927,-0.668896,0.853506\H,0,-5.609308,0.136962,0.650592\\Version=ES
 64L-G09RevD.01\State=1-A'\HF=-76.3330034\MP2=-76.4237929\RMSD=4.585e-0
 9\PG=CS [SG(H2O1)]\\@

 BUT 'GLORY' DOESN'T MEAN 'A NICE KNOCK DOWN ARGUMENT', ALICE OBJECTED.

 Normal termination of Gaussian 09 at Wed Aug 26 09:20:11 2020.
