 Gaussian 09, Revision D.01,
 Gaussian 09:  ES64L-G09RevD.01 24-Apr-2013

 --------------------
 #p B2PLYPD3/Def2QZVP
 --------------------

 ---
 h2o
 ---
 Symbolic Z-matrix:
 Charge =  0 Multiplicity = 1

                         Standard orientation:
 ---------------------------------------------------------------------
 Center     Atomic      Atomic             Coordinates (Angstroms)
 Number     Number       Type             X           Y           Z
 ---------------------------------------------------------------------
      1          8           0        0.000000    0.124037    0.000000
      2          1           0        0.741312   -0.494355    0.000000
      3          1           0       -0.741312   -0.497938    0.000000
 ---------------------------------------------------------------------

 SCF Done:  E(RB2PLYPD3) =  -76.3341390096     A.U. after   10 cycles
 E2(B2PLYPD3) =    -0.9040612391D-01 E(B2PLYPD3) =    -0.76424545133524D+02

 The electronic state is 1-A'.
 Alpha  occ. eigenvalues --  -19.73437  -1.15637  -0.60076  -0.48217  -0.40011
 Alpha virt. eigenvalues --    0.04357   0.10211   0.27646   0.30415   0.30416
 Alpha virt. eigenvalues --    0.36231   0.43776   0.49462   0.56849   0.60830
 Alpha virt. eigenvalues --    0.65912   0.81160   0.94164   0.96038   1.02479

 Mulliken charges:
               1
     1  O   -0.439558
     2  H    0.219299
     3  H    0.220258
 Sum of Mulliken charges =   0.00000

 Dipole moment (field-independent basis, Debye):
    X=              0.0013    Y=             -2.0346    Z=              0.0000  Tot=              2.0346
 Quadrupole moment (field-independent basis, Debye-Ang):
   XX=             -4.5169   YY=             -6.1963   ZZ=             -7.6032
   XY=              0.0055   XZ=              0.0000   YZ=              0.0000

 1\1\GINC-NODE10\SP\RB2PLYPD3-FC\def2QZVP\H2O1\BOITTIER\26-Aug-2020\0\\
 #p B2PLYPD3/Def2QZVP\\h2o\\0,1\O,0,-5.326605,-0.766731,0.930066\H,0,-4
 .368927,-0.668904,0.857714\H,0,-5.609308,0.12065,0.667331\\Version=ES6
 4L-G09RevD.01\State=1-A'\HF=-76.334139\MP2=-76.4245451\RMSD=4.483e-09\
 PG=CS [SG(H2O1)]\\@

 MUD THROWN IS GROUND LOST -- FROM A TEA BAG

 Normal termination of Gaussian 09 at Wed Aug 26 08:54:04 2020.
