 Gaussian 09, Revision D.01,
 Gaussian 09:  ES64L-G09RevD.01 24-Apr-2013

 --------------------
 #p B2PLYPD3/Def2QZVP
 --------------------

 ---
 h2o
 ---
 Symbolic Z-matrix:
 Charge =  0 Multiplicity = 1

                         Standard orientation:
 ---------------------------------------------------------------------
 Center     Atomic      Atomic             Coordinates (Angstroms)
 Number     Number       Type             X           Y           Z
 ---------------------------------------------------------------------
      1          8           0        0.000000    0.117337    0.000000
      2          1           0        0.774819   -0.445941    0.000000
      3          1           0       -0.774819   -0.492755    0.000000
 ---------------------------------------------------------------------

 SCF Done:  E(RB2PLYPD3) =  -76.3339836290     A.U. after   10 cycles
 E2(B2PLYPD3) =    -0.9040074928D-01 E(B2PLYPD3) =    -0.76424384378281D+02

 The electronic state is 1-A'.
 Alpha  occ. eigenvalues --  -19.73290  -1.14996  -0.60873  -0.47072  -0.39827
 Alpha virt. eigenvalues --    0.04395   0.10063   0.27574   0.30448   0.30775
 Alpha virt. eigenvalues --    0.35169   0.43620   0.50351   0.55918   0.62409
 Alpha virt. eigenvalues --    0.65930   0.80724   0.93255   0.96232   1.03011

 Mulliken charges:
               1
     1  O   -0.455265
     2  H    0.221772
     3  H    0.233493
 Sum of Mulliken charges =   0.00000

 Dipole moment (field-independent basis, Debye):
    X=              0.0140    Y=             -1.9528    Z=              0.0000  Tot=              1.9528
 Quadrupole moment (field-independent basis, Debye-Ang):
   XX=             -4.2608   YY=             -6.3644   ZZ=             -7.6258
   XY=              0.0788   XZ=              0.0000   YZ=              0.0000

 1\1\GINC-NODE14\SP\RB2PLYPD3-FC\def2QZVP\H2O1\BOITTIER\26-Aug-2020\0\\
 #p B2PLYPD3/Def2QZVP\\h2o\\0,1\O,0,-5.326605,-0.764756,0.919178\H,0,-4
 .368927,-0.747486,0.932658\H,0,-5.609308,0.167628,0.766544\\Version=ES
 64L-G09RevD.01\State=1-A'\HF=-76.3339836\MP2=-76.4243844\RMSD=4.300e-0
 9\PG=CS [SG(H2O1)]\\@

 PATIENCE IS THE ABILITY TO IDLE YOUR MOTOR WHEN

 Normal termination of Gaussian 09 at Wed Aug 26 09:45:40 2020.
