 Gaussian 09, Revision D.01,
 Gaussian 09:  ES64L-G09RevD.01 24-Apr-2013

 --------------------
 #p B2PLYPD3/Def2QZVP
 --------------------

 ---
 h2o
 ---
 Symbolic Z-matrix:
 Charge =  0 Multiplicity = 1

                         Standard orientation:
 ---------------------------------------------------------------------
 Center     Atomic      Atomic             Coordinates (Angstroms)
 Number     Number       Type             X           Y           Z
 ---------------------------------------------------------------------
      1          8           0        0.000000    0.118706    0.000000
      2          1           0        0.780567   -0.438387    0.000000
      3          1           0       -0.780567   -0.511260    0.000000
 ---------------------------------------------------------------------

 SCF Done:  E(RB2PLYPD3) =  -76.3326370117     A.U. after   10 cycles
 E2(B2PLYPD3) =    -0.9070490528D-01 E(B2PLYPD3) =    -0.76423341916956D+02

 The electronic state is 1-A'.
 Alpha  occ. eigenvalues --  -19.73430  -1.14628  -0.60440  -0.46985  -0.39760
 Alpha virt. eigenvalues --    0.04271   0.09979   0.27626   0.30468   0.30482
 Alpha virt. eigenvalues --    0.34869   0.43413   0.50231   0.55821   0.62284
 Alpha virt. eigenvalues --    0.66138   0.80486   0.92882   0.96401   1.02260

 Mulliken charges:
               1
     1  O   -0.460530
     2  H    0.221589
     3  H    0.238941
 Sum of Mulliken charges =   0.00000

 Dipole moment (field-independent basis, Debye):
    X=              0.0220    Y=             -1.9618    Z=              0.0000  Tot=              1.9619
 Quadrupole moment (field-independent basis, Debye-Ang):
   XX=             -4.2510   YY=             -6.3601   ZZ=             -7.6453
   XY=              0.1228   XZ=              0.0000   YZ=              0.0000

 1\1\GINC-NODE18\SP\RB2PLYPD3-FC\def2QZVP\H2O1\BOITTIER\26-Aug-2020\0\\
 #p B2PLYPD3/Def2QZVP\\h2o\\0,1\O,0,-5.326605,-0.766017,0.916426\H,0,-4
 .368927,-0.746462,0.962331\H,0,-5.609308,0.186772,0.78073\\Version=ES6
 4L-G09RevD.01\State=1-A'\HF=-76.332637\MP2=-76.4233419\RMSD=4.739e-09\
 PG=CS [SG(H2O1)]\\@

 TO DRY ONE'S EYES AND LAUGH AT A FALL

 Normal termination of Gaussian 09 at Wed Aug 26 11:54:59 2020.
