 Gaussian 09, Revision D.01,
 Gaussian 09:  ES64L-G09RevD.01 24-Apr-2013

 --------------------
 #p B2PLYPD3/Def2QZVP
 --------------------

 ---
 h2o
 ---
 Symbolic Z-matrix:
 Charge =  0 Multiplicity = 1

                         Standard orientation:
 ---------------------------------------------------------------------
 Center     Atomic      Atomic             Coordinates (Angstroms)
 Number     Number       Type             X           Y           Z
 ---------------------------------------------------------------------
      1          8           0        0.000000    0.114983    0.000000
      2          1           0        0.739317   -0.497767    0.000000
      3          1           0       -0.739317   -0.422096    0.000000
 ---------------------------------------------------------------------

 SCF Done:  E(RB2PLYPD3) =  -76.3336411537     A.U. after   10 cycles
 E2(B2PLYPD3) =    -0.8930060464D-01 E(B2PLYPD3) =    -0.76422941758304D+02

 The electronic state is 1-A'.
 Alpha  occ. eigenvalues --  -19.72778  -1.16808  -0.62231  -0.47805  -0.40167
 Alpha virt. eigenvalues --    0.04739   0.10416   0.27361   0.30354   0.31268
 Alpha virt. eigenvalues --    0.36937   0.44679   0.50398   0.56547   0.62279
 Alpha virt. eigenvalues --    0.65071   0.81679   0.94282   0.95530   1.05000

 Mulliken charges:
               1
     1  O   -0.422470
     2  H    0.223054
     3  H    0.199416
 Sum of Mulliken charges =   0.00000

 Dipole moment (field-independent basis, Debye):
    X=             -0.0238    Y=             -1.9508    Z=              0.0000  Tot=              1.9510
 Quadrupole moment (field-independent basis, Debye-Ang):
   XX=             -4.4000   YY=             -6.2971   ZZ=             -7.5424
   XY=             -0.1220   XZ=              0.0000   YZ=              0.0000

 1\1\GINC-NODE23\SP\RB2PLYPD3-FC\def2QZVP\H2O1\BOITTIER\26-Aug-2020\0\\
 #p B2PLYPD3/Def2QZVP\\h2o\\0,1\O,0,-5.326605,-0.762164,0.923969\H,0,-4
 .368927,-0.709259,0.878072\H,0,-5.609308,0.087931,0.7438\\Version=ES64
 L-G09RevD.01\State=1-A'\HF=-76.3336412\MP2=-76.4229418\RMSD=5.473e-09\
 PG=CS [SG(H2O1)]\\@

 Democracy is the recurrent suspicion that more than half of the people

 Normal termination of Gaussian 09 at Wed Aug 26 12:15:47 2020.
