 Gaussian 09, Revision D.01,
 Gaussian 09:  ES64L-G09RevD.01 24-Apr-2013

 --------------------
 #p B2PLYPD3/Def2QZVP
 --------------------

 ---
 h2o
 ---
 Symbolic Z-matrix:
 Charge =  0 Multiplicity = 1

                         Standard orientation:
 ---------------------------------------------------------------------
 Center     Atomic      Atomic             Coordinates (Angstroms)
 Number     Number       Type             X           Y           Z
 ---------------------------------------------------------------------
      1          8           0        0.000000    0.120205    0.000000
      2          1           0        0.757527   -0.469401    0.000000
      3          1           0       -0.757527   -0.492239    0.000000
 ---------------------------------------------------------------------

 SCF Done:  E(RB2PLYPD3) =  -76.3345446446     A.U. after   10 cycles
 E2(B2PLYPD3) =    -0.9031597680D-01 E(B2PLYPD3) =    -0.76424860621349D+02

 The electronic state is 1-A'.
 Alpha  occ. eigenvalues --  -19.73324  -1.15399  -0.60621  -0.47637  -0.39934
 Alpha virt. eigenvalues --    0.04413   0.10155   0.27594   0.30427   0.30665
 Alpha virt. eigenvalues --    0.35784   0.43754   0.49913   0.56382   0.61676
 Alpha virt. eigenvalues --    0.65870   0.81032   0.93736   0.96079   1.02937

 Mulliken charges:
               1
     1  O   -0.446083
     2  H    0.220051
     3  H    0.226032
 Sum of Mulliken charges =   0.00000

 Dipole moment (field-independent basis, Debye):
    X=              0.0075    Y=             -1.9900    Z=              0.0000  Tot=              1.9900
 Quadrupole moment (field-independent basis, Debye-Ang):
   XX=             -4.3853   YY=             -6.2854   ZZ=             -7.6096
   XY=              0.0368   XZ=              0.0000   YZ=              0.0000

 1\1\GINC-NODE25\SP\RB2PLYPD3-FC\def2QZVP\H2O1\BOITTIER\26-Aug-2020\0\\
 #p B2PLYPD3/Def2QZVP\\h2o\\0,1\O,0,-5.326605,-0.76554,0.925115\H,0,-4.
 368927,-0.709823,0.890024\H,0,-5.609308,0.142513,0.714274\\Version=ES6
 4L-G09RevD.01\State=1-A'\HF=-76.3345446\MP2=-76.4248606\RMSD=4.224e-09
 \PG=CS [SG(H2O1)]\\@

 THE ENLIGHTENED ONE, BECAUSE HE SAW MANKIND DROWNING

 Normal termination of Gaussian 09 at Wed Aug 26 11:54:44 2020.
