 Gaussian 09, Revision D.01,
 Gaussian 09:  ES64L-G09RevD.01 24-Apr-2013

 --------------------
 #p B2PLYPD3/Def2QZVP
 --------------------

 ---
 h2o
 ---
 Symbolic Z-matrix:
 Charge =  0 Multiplicity = 1

                         Standard orientation:
 ---------------------------------------------------------------------
 Center     Atomic      Atomic             Coordinates (Angstroms)
 Number     Number       Type             X           Y           Z
 ---------------------------------------------------------------------
      1          8           0        0.000000    0.118520    0.000000
      2          1           0        0.786226   -0.429729    0.000000
      3          1           0       -0.786226   -0.518431    0.000000
 ---------------------------------------------------------------------

 SCF Done:  E(RB2PLYPD3) =  -76.3317471757     A.U. after   10 cycles
 E2(B2PLYPD3) =    -0.9082870039D-01 E(B2PLYPD3) =    -0.76422575876050D+02

 The electronic state is 1-A'.
 Alpha  occ. eigenvalues --  -19.73466  -1.14427  -0.60348  -0.46829  -0.39715
 Alpha virt. eigenvalues --    0.04216   0.09931   0.27634   0.30374   0.30479
 Alpha virt. eigenvalues --    0.34660   0.43323   0.50298   0.55682   0.62408
 Alpha virt. eigenvalues --    0.66215   0.80316   0.92621   0.96492   1.02007

 Mulliken charges:
               1
     1  O   -0.464118
     2  H    0.221771
     3  H    0.242347
 Sum of Mulliken charges =   0.00000

 Dipole moment (field-independent basis, Debye):
    X=              0.0263    Y=             -1.9564    Z=              0.0000  Tot=              1.9565
 Quadrupole moment (field-independent basis, Debye-Ang):
   XX=             -4.2201   YY=             -6.3751   ZZ=             -7.6555
   XY=              0.1509   XZ=              0.0000   YZ=              0.0000

 1\1\GINC-NODE09\SP\RB2PLYPD3-FC\def2QZVP\H2O1\BOITTIER\26-Aug-2020\0\\
 #p B2PLYPD3/Def2QZVP\\h2o\\0,1\O,0,-5.326605,-0.765828,0.917079\H,0,-4
 .368927,-0.758266,0.956113\H,0,-5.609308,0.19556,0.776829\\Version=ES6
 4L-G09RevD.01\State=1-A'\HF=-76.3317472\MP2=-76.4225759\RMSD=5.073e-09
 \PG=CS [SG(H2O1)]\\@

 CHEMISTRY BEGAN BY SAYING IT WOULD CHANGE THE BASER

 Normal termination of Gaussian 09 at Wed Aug 26 08:33:01 2020.
