 Gaussian 09, Revision D.01,
 Gaussian 09:  ES64L-G09RevD.01 24-Apr-2013

 --------------------
 #p B2PLYPD3/Def2QZVP
 --------------------

 ---
 h2o
 ---
 Symbolic Z-matrix:
 Charge =  0 Multiplicity = 1

                         Standard orientation:
 ---------------------------------------------------------------------
 Center     Atomic      Atomic             Coordinates (Angstroms)
 Number     Number       Type             X           Y           Z
 ---------------------------------------------------------------------
      1          8           0        0.000000    0.114007    0.000000
      2          1           0        0.773610   -0.451590    0.000000
      3          1           0       -0.773610   -0.460469    0.000000
 ---------------------------------------------------------------------

 SCF Done:  E(RB2PLYPD3) =  -76.3349570631     A.U. after   10 cycles
 E2(B2PLYPD3) =    -0.8999570715D-01 E(B2PLYPD3) =    -0.76424952770244D+02

 The electronic state is 1-A'.
 Alpha  occ. eigenvalues --  -19.73058  -1.15390  -0.61642  -0.46946  -0.39883
 Alpha virt. eigenvalues --    0.04557   0.10143   0.27486   0.30426   0.31201
 Alpha virt. eigenvalues --    0.35370   0.43898   0.50750   0.55847   0.62941
 Alpha virt. eigenvalues --    0.65633   0.80909   0.93536   0.96049   1.04260

 Mulliken charges:
               1
     1  O   -0.450659
     2  H    0.224156
     3  H    0.226503
 Sum of Mulliken charges =   0.00000

 Dipole moment (field-independent basis, Debye):
    X=              0.0025    Y=             -1.9220    Z=              0.0000  Tot=              1.9220
 Quadrupole moment (field-independent basis, Debye-Ang):
   XX=             -4.2213   YY=             -6.4033   ZZ=             -7.6036
   XY=              0.0152   XZ=              0.0000   YZ=              0.0000

 1\1\GINC-NODE24\SP\RB2PLYPD3-FC\def2QZVP\H2O1\BOITTIER\26-Aug-2020\0\\
 #p B2PLYPD3/Def2QZVP\\h2o\\0,1\O,0,-5.326605,-0.76288,0.91548\H,0,-4.3
 68927,-0.761821,0.950459\H,0,-5.609308,0.151938,0.807399\\Version=ES64
 L-G09RevD.01\State=1-A'\HF=-76.3349571\MP2=-76.4249528\RMSD=3.846e-09\
 PG=CS [SG(H2O1)]\\@

 You can't act like a skunk without someone's getting wind of it.

 Normal termination of Gaussian 09 at Wed Aug 26 11:28:26 2020.
