 Gaussian 09, Revision D.01,
 Gaussian 09:  ES64L-G09RevD.01 24-Apr-2013

 --------------------
 #p B2PLYPD3/Def2QZVP
 --------------------

 ---
 h2o
 ---
 Symbolic Z-matrix:
 Charge =  0 Multiplicity = 1

                         Standard orientation:
 ---------------------------------------------------------------------
 Center     Atomic      Atomic             Coordinates (Angstroms)
 Number     Number       Type             X           Y           Z
 ---------------------------------------------------------------------
      1          8           0        0.000000    0.116091    0.000000
      2          1           0        0.747636   -0.484867    0.000000
      3          1           0       -0.747636   -0.443862    0.000000
 ---------------------------------------------------------------------

 SCF Done:  E(RB2PLYPD3) =  -76.3348874641     A.U. after   10 cycles
 E2(B2PLYPD3) =    -0.8960953839D-01 E(B2PLYPD3) =    -0.76424497002522D+02

 The electronic state is 1-A'.
 Alpha  occ. eigenvalues --  -19.72944  -1.16293  -0.61783  -0.47676  -0.40078
 Alpha virt. eigenvalues --    0.04655   0.10327   0.27435   0.30380   0.31165
 Alpha virt. eigenvalues --    0.36497   0.44343   0.50316   0.56444   0.62203
 Alpha virt. eigenvalues --    0.65328   0.81464   0.94158   0.95687   1.04587

 Mulliken charges:
               1
     1  O   -0.432214
     2  H    0.222132
     3  H    0.210083
 Sum of Mulliken charges =   0.00000

 Dipole moment (field-independent basis, Debye):
    X=             -0.0129    Y=             -1.9570    Z=              0.0000  Tot=              1.9571
 Quadrupole moment (field-independent basis, Debye-Ang):
   XX=             -4.3759   YY=             -6.3088   ZZ=             -7.5651
   XY=             -0.0666   XZ=              0.0000   YZ=              0.0000

 1\1\GINC-NODE18\SP\RB2PLYPD3-FC\def2QZVP\H2O1\BOITTIER\26-Aug-2020\0\\
 #p B2PLYPD3/Def2QZVP\\h2o\\0,1\O,0,-5.326605,-0.76351,0.921403\H,0,-4.
 368927,-0.711064,0.906831\H,0,-5.609308,0.111268,0.756026\\Version=ES6
 4L-G09RevD.01\State=1-A'\HF=-76.3348875\MP2=-76.424497\RMSD=4.590e-09\
 PG=CS [SG(H2O1)]\\@

 THE WORLD IS MADE UP OF THE WILLS, THE WON'TS, AND THE CANT'S:

 Normal termination of Gaussian 09 at Wed Aug 26 09:50:44 2020.
