 Gaussian 09, Revision D.01,
 Gaussian 09:  ES64L-G09RevD.01 24-Apr-2013

 --------------------
 #p B2PLYPD3/Def2QZVP
 --------------------

 ---
 h2o
 ---
 Symbolic Z-matrix:
 Charge =  0 Multiplicity = 1

                         Standard orientation:
 ---------------------------------------------------------------------
 Center     Atomic      Atomic             Coordinates (Angstroms)
 Number     Number       Type             X           Y           Z
 ---------------------------------------------------------------------
      1          8           0        0.000000    0.116699    0.000000
      2          1           0        0.733531   -0.504769    0.000000
      3          1           0       -0.733531   -0.428822    0.000000
 ---------------------------------------------------------------------

 SCF Done:  E(RB2PLYPD3) =  -76.3334856961     A.U. after   10 cycles
 E2(B2PLYPD3) =    -0.8936166890D-01 E(B2PLYPD3) =    -0.76422847364991D+02

 The electronic state is 1-A'.
 Alpha  occ. eigenvalues --  -19.72840  -1.16869  -0.61950  -0.48036  -0.40190
 Alpha virt. eigenvalues --    0.04703   0.10433   0.27383   0.30353   0.31143
 Alpha virt. eigenvalues --    0.37106   0.44669   0.50174   0.56727   0.61907
 Alpha virt. eigenvalues --    0.65112   0.81699   0.94385   0.95527   1.04754

 Mulliken charges:
               1
     1  O   -0.420641
     2  H    0.222240
     3  H    0.198401
 Sum of Mulliken charges =   0.00000

 Dipole moment (field-independent basis, Debye):
    X=             -0.0249    Y=             -1.9705    Z=              0.0000  Tot=              1.9706
 Quadrupole moment (field-independent basis, Debye-Ang):
   XX=             -4.4505   YY=             -6.2615   ZZ=             -7.5419
   XY=             -0.1202   XZ=              0.0000   YZ=              0.0000

 1\1\GINC-NODE16\SP\RB2PLYPD3-FC\def2QZVP\H2O1\BOITTIER\26-Aug-2020\0\\
 #p B2PLYPD3/Def2QZVP\\h2o\\0,1\O,0,-5.326605,-0.763438,0.923682\H,0,-4
 .368927,-0.68681,0.888031\H,0,-5.609308,0.085858,0.738113\\Version=ES6
 4L-G09RevD.01\State=1-A'\HF=-76.3334857\MP2=-76.4228474\RMSD=5.545e-09
 \PG=CS [SG(H2O1)]\\@

 NOT WHAT WE DID SHALL BE THE TEST

 Normal termination of Gaussian 09 at Wed Aug 26 11:45:11 2020.
