 Gaussian 09, Revision D.01,
 Gaussian 09:  ES64L-G09RevD.01 24-Apr-2013

 --------------------
 #p B2PLYPD3/Def2QZVP
 --------------------

 ---
 h2o
 ---
 Symbolic Z-matrix:
 Charge =  0 Multiplicity = 1

                         Standard orientation:
 ---------------------------------------------------------------------
 Center     Atomic      Atomic             Coordinates (Angstroms)
 Number     Number       Type             X           Y           Z
 ---------------------------------------------------------------------
      1          8           0        0.000000    0.114309    0.000000
      2          1           0        0.762029   -0.466288    0.000000
      3          1           0       -0.762029   -0.448184    0.000000
 ---------------------------------------------------------------------

 SCF Done:  E(RB2PLYPD3) =  -76.3352168205     A.U. after   10 cycles
 E2(B2PLYPD3) =    -0.8974883206D-01 E(B2PLYPD3) =    -0.76424965652581D+02

 The electronic state is 1-A'.
 Alpha  occ. eigenvalues --  -19.72966  -1.15857  -0.61858  -0.47240  -0.39980
 Alpha virt. eigenvalues --    0.04633   0.10237   0.27449   0.30401   0.31259
 Alpha virt. eigenvalues --    0.35907   0.44144   0.50623   0.56093   0.62716
 Alpha virt. eigenvalues --    0.65443   0.81211   0.93855   0.95847   1.04641

 Mulliken charges:
               1
     1  O   -0.441590
     2  H    0.223327
     3  H    0.218263
 Sum of Mulliken charges =   0.00000

 Dipole moment (field-independent basis, Debye):
    X=             -0.0053    Y=             -1.9317    Z=              0.0000  Tot=              1.9317
 Quadrupole moment (field-independent basis, Debye-Ang):
   XX=             -4.2823   YY=             -6.3691   ZZ=             -7.5824
   XY=             -0.0303   XZ=              0.0000   YZ=              0.0000

 1\1\GINC-NODE38\SP\RB2PLYPD3-FC\def2QZVP\H2O1\BOITTIER\26-Aug-2020\0\\
 #p B2PLYPD3/Def2QZVP\\h2o\\0,1\O,0,-5.326605,-0.762857,0.91774\H,0,-4.
 368927,-0.7422,0.932174\H,0,-5.609308,0.131957,0.78939\\Version=ES64L-
 G09RevD.01\State=1-A'\HF=-76.3352168\MP2=-76.4249657\RMSD=4.062e-09\PG
 =CS [SG(H2O1)]\\@

 MUD THROWN IS GROUND LOST -- FROM A TEA BAG

 Normal termination of Gaussian 09 at Wed Aug 26 09:46:11 2020.
