 Gaussian 09, Revision D.01,
 Gaussian 09:  ES64L-G09RevD.01 24-Apr-2013

 --------------------
 #p B2PLYPD3/Def2QZVP
 --------------------

 ---
 h2o
 ---
 Symbolic Z-matrix:
 Charge =  0 Multiplicity = 1

                         Standard orientation:
 ---------------------------------------------------------------------
 Center     Atomic      Atomic             Coordinates (Angstroms)
 Number     Number       Type             X           Y           Z
 ---------------------------------------------------------------------
      1          8           0        0.000000    0.118518    0.000000
      2          1           0        0.772082   -0.448955    0.000000
      3          1           0       -0.772082   -0.499192    0.000000
 ---------------------------------------------------------------------

 SCF Done:  E(RB2PLYPD3) =  -76.3338229317     A.U. after   10 cycles
 E2(B2PLYPD3) =    -0.9047040949D-01 E(B2PLYPD3) =    -0.76424293341167D+02

 The electronic state is 1-A'.
 Alpha  occ. eigenvalues --  -19.73343  -1.14985  -0.60676  -0.47193  -0.39835
 Alpha virt. eigenvalues --    0.04364   0.10061   0.27597   0.30449   0.30662
 Alpha virt. eigenvalues --    0.35233   0.43590   0.50192   0.56010   0.62176
 Alpha virt. eigenvalues --    0.65979   0.80743   0.93268   0.96244   1.02757

 Mulliken charges:
               1
     1  O   -0.454501
     2  H    0.220986
     3  H    0.233516
 Sum of Mulliken charges =   0.00000

 Dipole moment (field-independent basis, Debye):
    X=              0.0154    Y=             -1.9655    Z=              0.0000  Tot=              1.9655
 Quadrupole moment (field-independent basis, Debye-Ang):
   XX=             -4.2906   YY=             -6.3425   ZZ=             -7.6275
   XY=              0.0836   XZ=              0.0000   YZ=              0.0000

 1\1\GINC-NODE37\SP\RB2PLYPD3-FC\def2QZVP\H2O1\BOITTIER\26-Aug-2020\0\\
 #p B2PLYPD3/Def2QZVP\\h2o\\0,1\O,0,-5.326605,-0.765468,0.919823\H,0,-4
 .368927,-0.736412,0.931855\H,0,-5.609308,0.167937,0.757\\Version=ES64L
 -G09RevD.01\State=1-A'\HF=-76.3338229\MP2=-76.4242933\RMSD=4.383e-09\P
 G=CS [SG(H2O1)]\\@

 A CHEMICAL PHYSICIST MAKES PRECISE MEASUREMENTS ON IMPURE COMPOUNDS.

 Normal termination of Gaussian 09 at Wed Aug 26 10:50:18 2020.
