 Gaussian 09, Revision D.01,
 Gaussian 09:  ES64L-G09RevD.01 24-Apr-2013

 --------------------
 #p B2PLYPD3/Def2QZVP
 --------------------

 ---
 h2o
 ---
 Symbolic Z-matrix:
 Charge =  0 Multiplicity = 1

                         Standard orientation:
 ---------------------------------------------------------------------
 Center     Atomic      Atomic             Coordinates (Angstroms)
 Number     Number       Type             X           Y           Z
 ---------------------------------------------------------------------
      1          8           0        0.000000    0.118138    0.000000
      2          1           0        0.767501   -0.456603    0.000000
      3          1           0       -0.767501   -0.488505    0.000000
 ---------------------------------------------------------------------

 SCF Done:  E(RB2PLYPD3) =  -76.3344531455     A.U. after   10 cycles
 E2(B2PLYPD3) =    -0.9031277318D-01 E(B2PLYPD3) =    -0.76424765918655D+02

 The electronic state is 1-A'.
 Alpha  occ. eigenvalues --  -19.73277  -1.15211  -0.60865  -0.47293  -0.39879
 Alpha virt. eigenvalues --    0.04425   0.10111   0.27572   0.30437   0.30785
 Alpha virt. eigenvalues --    0.35453   0.43709   0.50205   0.56104   0.62163
 Alpha virt. eigenvalues --    0.65869   0.80889   0.93488   0.96139   1.03134

 Mulliken charges:
               1
     1  O   -0.450861
     2  H    0.221334
     3  H    0.229527
 Sum of Mulliken charges =   0.00000

 Dipole moment (field-independent basis, Debye):
    X=              0.0099    Y=             -1.9648    Z=              0.0000  Tot=              1.9648
 Quadrupole moment (field-independent basis, Debye-Ang):
   XX=             -4.3080   YY=             -6.3364   ZZ=             -7.6162
   XY=              0.0528   XZ=              0.0000   YZ=              0.0000

 1\1\GINC-NODE07\SP\RB2PLYPD3-FC\def2QZVP\H2O1\BOITTIER\26-Aug-2020\0\\
 #p B2PLYPD3/Def2QZVP\\h2o\\0,1\O,0,-5.326605,-0.76547,0.917913\H,0,-4.
 368927,-0.728096,0.946925\H,0,-5.609308,0.159664,0.772036\\Version=ES6
 4L-G09RevD.01\State=1-A'\HF=-76.3344531\MP2=-76.4247659\RMSD=4.159e-09
 \PG=CS [SG(H2O1)]\\@

 Where a calculator on the ENIAC is equipped with 18,000

 Normal termination of Gaussian 09 at Wed Aug 26 10:55:32 2020.
