 Gaussian 09, Revision D.01,
 Gaussian 09:  ES64L-G09RevD.01 24-Apr-2013

 --------------------
 #p B2PLYPD3/Def2QZVP
 --------------------

 ---
 h2o
 ---
 Symbolic Z-matrix:
 Charge =  0 Multiplicity = 1

                         Standard orientation:
 ---------------------------------------------------------------------
 Center     Atomic      Atomic             Coordinates (Angstroms)
 Number     Number       Type             X           Y           Z
 ---------------------------------------------------------------------
      1          8           0        0.000000    0.118840    0.000000
      2          1           0        0.747268   -0.484442    0.000000
      3          1           0       -0.747268   -0.466277    0.000000
 ---------------------------------------------------------------------

 SCF Done:  E(RB2PLYPD3) =  -76.3350279626     A.U. after   10 cycles
 E2(B2PLYPD3) =    -0.8991446139D-01 E(B2PLYPD3) =    -0.76424942423992D+02

 The electronic state is 1-A'.
 Alpha  occ. eigenvalues --  -19.73133  -1.15990  -0.61152  -0.47827  -0.40040
 Alpha virt. eigenvalues --    0.04547   0.10275   0.27514   0.30397   0.30911
 Alpha virt. eigenvalues --    0.36347   0.44098   0.50008   0.56555   0.61740
 Alpha virt. eigenvalues --    0.65566   0.81333   0.94123   0.95823   1.03817

 Mulliken charges:
               1
     1  O   -0.436456
     2  H    0.220791
     3  H    0.215665
 Sum of Mulliken charges =   0.00000

 Dipole moment (field-independent basis, Debye):
    X=             -0.0060    Y=             -1.9833    Z=              0.0000  Tot=              1.9833
 Quadrupole moment (field-independent basis, Debye-Ang):
   XX=             -4.4156   YY=             -6.2756   ZZ=             -7.5814
   XY=             -0.0290   XZ=              0.0000   YZ=              0.0000

 1\1\GINC-NODE32\SP\RB2PLYPD3-FC\def2QZVP\H2O1\BOITTIER\26-Aug-2020\0\\
 #p B2PLYPD3/Def2QZVP\\h2o\\0,1\O,0,-5.326605,-0.765253,0.922206\H,0,-4
 .368927,-0.693922,0.911132\H,0,-5.609308,0.122019,0.738909\\Version=ES
 64L-G09RevD.01\State=1-A'\HF=-76.335028\MP2=-76.4249424\RMSD=4.337e-09
 \PG=CS [SG(H2O1)]\\@

 IT MATTERS NOT HOW DEEP YOU PLOW,

 Normal termination of Gaussian 09 at Wed Aug 26 11:09:30 2020.
