 Gaussian 09, Revision D.01,
 Gaussian 09:  ES64L-G09RevD.01 24-Apr-2013

 --------------------
 #p B2PLYPD3/Def2QZVP
 --------------------

 ---
 h2o
 ---
 Symbolic Z-matrix:
 Charge =  0 Multiplicity = 1

                         Standard orientation:
 ---------------------------------------------------------------------
 Center     Atomic      Atomic             Coordinates (Angstroms)
 Number     Number       Type             X           Y           Z
 ---------------------------------------------------------------------
      1          8           0        0.000000    0.117413    0.000000
      2          1           0        0.774274   -0.446649    0.000000
      3          1           0       -0.774274   -0.492654    0.000000
 ---------------------------------------------------------------------

 SCF Done:  E(RB2PLYPD3) =  -76.3340157251     A.U. after   10 cycles
 E2(B2PLYPD3) =    -0.9039593196D-01 E(B2PLYPD3) =    -0.76424411657016D+02

 The electronic state is 1-A'.
 Alpha  occ. eigenvalues --  -19.73290  -1.15010  -0.60869  -0.47089  -0.39831
 Alpha virt. eigenvalues --    0.04397   0.10066   0.27575   0.30447   0.30774
 Alpha virt. eigenvalues --    0.35189   0.43626   0.50338   0.55933   0.62388
 Alpha virt. eigenvalues --    0.65926   0.80736   0.93271   0.96226   1.03015

 Mulliken charges:
               1
     1  O   -0.454950
     2  H    0.221707
     3  H    0.233244
 Sum of Mulliken charges =   0.00000

 Dipole moment (field-independent basis, Debye):
    X=              0.0138    Y=             -1.9538    Z=              0.0000  Tot=              1.9539
 Quadrupole moment (field-independent basis, Debye-Ang):
   XX=             -4.2645   YY=             -6.3621   ZZ=             -7.6252
   XY=              0.0773   XZ=              0.0000   YZ=              0.0000

 1\1\GINC-NODE10\SP\RB2PLYPD3-FC\def2QZVP\H2O1\BOITTIER\26-Aug-2020\0\\
 #p B2PLYPD3/Def2QZVP\\h2o\\0,1\O,0,-5.326605,-0.764798,0.919247\H,0,-4
 .368927,-0.746161,0.932358\H,0,-5.609308,0.166971,0.76573\\Version=ES6
 4L-G09RevD.01\State=1-A'\HF=-76.3340157\MP2=-76.4244117\RMSD=4.291e-09
 \PG=CS [SG(H2O1)]\\@

 THERE ARE PEOPLE SO ADDICTED TO EXAGERATING THEY

 Normal termination of Gaussian 09 at Wed Aug 26 09:53:31 2020.
