 Gaussian 09, Revision D.01,
 Gaussian 09:  ES64L-G09RevD.01 24-Apr-2013

 --------------------
 #p B2PLYPD3/Def2QZVP
 --------------------

 ---
 h2o
 ---
 Symbolic Z-matrix:
 Charge =  0 Multiplicity = 1

                         Standard orientation:
 ---------------------------------------------------------------------
 Center     Atomic      Atomic             Coordinates (Angstroms)
 Number     Number       Type             X           Y           Z
 ---------------------------------------------------------------------
      1          8           0        0.000000    0.117680    0.000000
      2          1           0        0.737283   -0.511437    0.000000
      3          1           0       -0.737283   -0.430002    0.000000
 ---------------------------------------------------------------------

 SCF Done:  E(RB2PLYPD3) =  -76.3335898045     A.U. after   10 cycles
 E2(B2PLYPD3) =    -0.8956237358D-01 E(B2PLYPD3) =    -0.76423152178112D+02

 The electronic state is 1-A'.
 Alpha  occ. eigenvalues --  -19.72945  -1.16587  -0.61637  -0.47986  -0.40141
 Alpha virt. eigenvalues --    0.04632   0.10384   0.27427   0.30368   0.30994
 Alpha virt. eigenvalues --    0.36873   0.44500   0.50091   0.56676   0.61813
 Alpha virt. eigenvalues --    0.65259   0.81571   0.94224   0.95655   1.04238

 Mulliken charges:
               1
     1  O   -0.425400
     2  H    0.225040
     3  H    0.200360
 Sum of Mulliken charges =   0.00000

 Dipole moment (field-independent basis, Debye):
    X=             -0.0268    Y=             -1.9775    Z=              0.0000  Tot=              1.9777
 Quadrupole moment (field-independent basis, Debye-Ang):
   XX=             -4.4464   YY=             -6.2591   ZZ=             -7.5556
   XY=             -0.1290   XZ=              0.0000   YZ=              0.0000

 1\1\GINC-NODE09\SP\RB2PLYPD3-FC\def2QZVP\H2O1\BOITTIER\26-Aug-2020\0\\
 #p B2PLYPD3/Def2QZVP\\h2o\\0,1\O,0,-5.326605,-0.760666,0.93383\H,0,-4.
 368927,-0.719199,0.790623\H,0,-5.609308,0.073901,0.674757\\Version=ES6
 4L-G09RevD.01\State=1-A'\HF=-76.3335898\MP2=-76.4231522\RMSD=5.519e-09
 \PG=CS [SG(H2O1)]\\@

 TO BEHOLD HARMS OF OUR OWN HANDS DOING,

 Normal termination of Gaussian 09 at Wed Aug 26 09:07:17 2020.
