 Gaussian 09, Revision D.01,
 Gaussian 09:  ES64L-G09RevD.01 24-Apr-2013

 --------------------
 #p B2PLYPD3/Def2QZVP
 --------------------

 ---
 h2o
 ---
 Symbolic Z-matrix:
 Charge =  0 Multiplicity = 1

                         Standard orientation:
 ---------------------------------------------------------------------
 Center     Atomic      Atomic             Coordinates (Angstroms)
 Number     Number       Type             X           Y           Z
 ---------------------------------------------------------------------
      1          8           0        0.000000    0.115991    0.000000
      2          1           0        0.777446   -0.449212    0.000000
      3          1           0       -0.777446   -0.478719    0.000000
 ---------------------------------------------------------------------

 SCF Done:  E(RB2PLYPD3) =  -76.3343181073     A.U. after   10 cycles
 E2(B2PLYPD3) =    -0.9031025960D-01 E(B2PLYPD3) =    -0.76424628366928D+02

 The electronic state is 1-A'.
 Alpha  occ. eigenvalues --  -19.73226  -1.15024  -0.61107  -0.46950  -0.39823
 Alpha virt. eigenvalues --    0.04438   0.10068   0.27550   0.30447   0.30932
 Alpha virt. eigenvalues --    0.35104   0.43658   0.50533   0.55830   0.62665
 Alpha virt. eigenvalues --    0.65869   0.80714   0.93289   0.96208   1.03399

 Mulliken charges:
               1
     1  O   -0.455924
     2  H    0.224245
     3  H    0.231679
 Sum of Mulliken charges =   0.00000

 Dipole moment (field-independent basis, Debye):
    X=              0.0086    Y=             -1.9386    Z=              0.0000  Tot=              1.9386
 Quadrupole moment (field-independent basis, Debye-Ang):
   XX=             -4.2293   YY=             -6.3887   ZZ=             -7.6229
   XY=              0.0502   XZ=              0.0000   YZ=              0.0000

 1\1\GINC-NODE22\SP\RB2PLYPD3-FC\def2QZVP\H2O1\BOITTIER\26-Aug-2020\0\\
 #p B2PLYPD3/Def2QZVP\\h2o\\0,1\O,0,-5.326605,-0.764403,0.911329\H,0,-4
 .368927,-0.754774,0.9928\H,0,-5.609308,0.169264,0.831025\\Version=ES64
 L-G09RevD.01\State=1-A'\HF=-76.3343181\MP2=-76.4246284\RMSD=4.005e-09\
 PG=CS [SG(H2O1)]\\@

      LET US REMEMBER, PLEASE, THAT THE SEARCH FOR THE CONSTITUTION

 Normal termination of Gaussian 09 at Wed Aug 26 09:16:03 2020.
