 Gaussian 09, Revision D.01,
 Gaussian 09:  ES64L-G09RevD.01 24-Apr-2013

 --------------------
 #p B2PLYPD3/Def2QZVP
 --------------------

 ---
 h2o
 ---
 Symbolic Z-matrix:
 Charge =  0 Multiplicity = 1

                         Standard orientation:
 ---------------------------------------------------------------------
 Center     Atomic      Atomic             Coordinates (Angstroms)
 Number     Number       Type             X           Y           Z
 ---------------------------------------------------------------------
      1          8           0        0.000000    0.118834    0.000000
      2          1           0        0.746334   -0.485786    0.000000
      3          1           0       -0.746334   -0.464883    0.000000
 ---------------------------------------------------------------------

 SCF Done:  E(RB2PLYPD3) =  -76.3350073869     A.U. after   10 cycles
 E2(B2PLYPD3) =    -0.8989227074D-01 E(B2PLYPD3) =    -0.76424899657672D+02

 The electronic state is 1-A'.
 Alpha  occ. eigenvalues --  -19.73123  -1.16031  -0.61173  -0.47849  -0.40048
 Alpha virt. eigenvalues --    0.04553   0.10284   0.27510   0.30395   0.30917
 Alpha virt. eigenvalues --    0.36391   0.44121   0.50005   0.56574   0.61727
 Alpha virt. eigenvalues --    0.65548   0.81352   0.94148   0.95808   1.03854

 Mulliken charges:
               1
     1  O   -0.435701
     2  H    0.220815
     3  H    0.214886
 Sum of Mulliken charges =   0.00000

 Dipole moment (field-independent basis, Debye):
    X=             -0.0069    Y=             -1.9838    Z=              0.0000  Tot=              1.9838
 Quadrupole moment (field-independent basis, Debye-Ang):
   XX=             -4.4200   YY=             -6.2732   ZZ=             -7.5796
   XY=             -0.0334   XZ=              0.0000   YZ=              0.0000

 1\1\GINC-NODE37\SP\RB2PLYPD3-FC\def2QZVP\H2O1\BOITTIER\26-Aug-2020\0\\
 #p B2PLYPD3/Def2QZVP\\h2o\\0,1\O,0,-5.326605,-0.765179,0.922545\H,0,-4
 .368927,-0.69293,0.907977\H,0,-5.609308,0.119844,0.736662\\Version=ES6
 4L-G09RevD.01\State=1-A'\HF=-76.3350074\MP2=-76.4248997\RMSD=4.372e-09
 \PG=CS [SG(H2O1)]\\@

 A great many people think they are thinking when they

 Normal termination of Gaussian 09 at Wed Aug 26 09:43:33 2020.
