 Gaussian 09, Revision D.01,
 Gaussian 09:  ES64L-G09RevD.01 24-Apr-2013

 --------------------
 #p B2PLYPD3/Def2QZVP
 --------------------

 ---
 h2o
 ---
 Symbolic Z-matrix:
 Charge =  0 Multiplicity = 1

                         Standard orientation:
 ---------------------------------------------------------------------
 Center     Atomic      Atomic             Coordinates (Angstroms)
 Number     Number       Type             X           Y           Z
 ---------------------------------------------------------------------
      1          8           0        0.000000    0.115821    0.000000
      2          1           0        0.770282   -0.453388    0.000000
      3          1           0       -0.770282   -0.473184    0.000000
 ---------------------------------------------------------------------

 SCF Done:  E(RB2PLYPD3) =  -76.3348394658     A.U. after   10 cycles
 E2(B2PLYPD3) =    -0.9011560256D-01 E(B2PLYPD3) =    -0.76424955068321D+02

 The electronic state is 1-A'.
 Alpha  occ. eigenvalues --  -19.73148  -1.15340  -0.61317  -0.47116  -0.39887
 Alpha virt. eigenvalues --    0.04506   0.10136   0.27520   0.30429   0.31027
 Alpha virt. eigenvalues --    0.35443   0.43829   0.50500   0.55975   0.62586
 Alpha virt. eigenvalues --    0.65724   0.80924   0.93536   0.96071   1.03785

 Mulliken charges:
               1
     1  O   -0.450247
     2  H    0.222529
     3  H    0.227718
 Sum of Mulliken charges =   0.00000

 Dipole moment (field-independent basis, Debye):
    X=              0.0058    Y=             -1.9413    Z=              0.0000  Tot=              1.9413
 Quadrupole moment (field-independent basis, Debye-Ang):
   XX=             -4.2625   YY=             -6.3724   ZZ=             -7.6077
   XY=              0.0333   XZ=              0.0000   YZ=              0.0000

 1\1\GINC-NODE13\SP\RB2PLYPD3-FC\def2QZVP\H2O1\BOITTIER\26-Aug-2020\0\\
 #p B2PLYPD3/Def2QZVP\\h2o\\0,1\O,0,-5.326605,-0.763558,0.920146\H,0,-4
 .368927,-0.750143,0.917544\H,0,-5.609308,0.151115,0.766149\\Version=ES
 64L-G09RevD.01\State=1-A'\HF=-76.3348395\MP2=-76.4249551\RMSD=3.976e-0
 9\PG=CS [SG(H2O1)]\\@

 TO DETECT ERRORS, THE PROGRAMMER MUST HAVE A CONNIVING MIND,

 Normal termination of Gaussian 09 at Wed Aug 26 09:53:49 2020.
