 Gaussian 09, Revision D.01,
 Gaussian 09:  ES64L-G09RevD.01 24-Apr-2013

 --------------------
 #p B2PLYPD3/Def2QZVP
 --------------------

 ---
 h2o
 ---
 Symbolic Z-matrix:
 Charge =  0 Multiplicity = 1

                         Standard orientation:
 ---------------------------------------------------------------------
 Center     Atomic      Atomic             Coordinates (Angstroms)
 Number     Number       Type             X           Y           Z
 ---------------------------------------------------------------------
      1          8           0        0.000000    0.120120    0.000000
      2          1           0        0.745743   -0.497443    0.000000
      3          1           0       -0.745743   -0.463521    0.000000
 ---------------------------------------------------------------------

 SCF Done:  E(RB2PLYPD3) =  -76.3347128589     A.U. after   10 cycles
 E2(B2PLYPD3) =    -0.9003210946D-01 E(B2PLYPD3) =    -0.76424744968314D+02

 The electronic state is 1-A'.
 Alpha  occ. eigenvalues --  -19.73206  -1.15911  -0.60888  -0.47921  -0.40033
 Alpha virt. eigenvalues --    0.04497   0.10262   0.27544   0.30401   0.30771
 Alpha virt. eigenvalues --    0.36333   0.44030   0.49867   0.56623   0.61517
 Alpha virt. eigenvalues --    0.65646   0.81291   0.94095   0.95883   1.03434

 Mulliken charges:
               1
     1  O   -0.437042
     2  H    0.223250
     3  H    0.213792
 Sum of Mulliken charges =   0.00000

 Dipole moment (field-independent basis, Debye):
    X=             -0.0114    Y=             -1.9960    Z=              0.0000  Tot=              1.9961
 Quadrupole moment (field-independent basis, Debye-Ang):
   XX=             -4.4407   YY=             -6.2555   ZZ=             -7.5866
   XY=             -0.0537   XZ=              0.0000   YZ=              0.0000

 1\1\GINC-NODE06\SP\RB2PLYPD3-FC\def2QZVP\H2O1\BOITTIER\26-Aug-2020\0\\
 #p B2PLYPD3/Def2QZVP\\h2o\\0,1\O,0,-5.326605,-0.762337,0.934153\H,0,-4
 .368927,-0.718105,0.79846\H,0,-5.609308,0.099533,0.662072\\Version=ES6
 4L-G09RevD.01\State=1-A'\HF=-76.3347129\MP2=-76.424745\RMSD=4.521e-09\
 PG=CS [SG(H2O1)]\\@

 THERE IS SOMETHING FASCINATING ABOUT SCIENCE.

 Normal termination of Gaussian 09 at Wed Aug 26 08:42:23 2020.
