 Gaussian 09, Revision D.01,
 Gaussian 09:  ES64L-G09RevD.01 24-Apr-2013

 --------------------
 #p B2PLYPD3/Def2QZVP
 --------------------

 ---
 h2o
 ---
 Symbolic Z-matrix:
 Charge =  0 Multiplicity = 1

                         Standard orientation:
 ---------------------------------------------------------------------
 Center     Atomic      Atomic             Coordinates (Angstroms)
 Number     Number       Type             X           Y           Z
 ---------------------------------------------------------------------
      1          8           0        0.000000    0.117825    0.000000
      2          1           0        0.775069   -0.445559    0.000000
      3          1           0       -0.775069   -0.497039    0.000000
 ---------------------------------------------------------------------

 SCF Done:  E(RB2PLYPD3) =  -76.3337708349     A.U. after   10 cycles
 E2(B2PLYPD3) =    -0.9046347908D-01 E(B2PLYPD3) =    -0.76424234313930D+02

 The electronic state is 1-A'.
 Alpha  occ. eigenvalues --  -19.73324  -1.14936  -0.60760  -0.47087  -0.39819
 Alpha virt. eigenvalues --    0.04370   0.10049   0.27588   0.30451   0.30707
 Alpha virt. eigenvalues --    0.35136   0.43580   0.50295   0.55925   0.62335
 Alpha virt. eigenvalues --    0.65974   0.80693   0.93205   0.96261   1.02834

 Mulliken charges:
               1
     1  O   -0.455930
     2  H    0.221576
     3  H    0.234354
 Sum of Mulliken charges =   0.00000

 Dipole moment (field-independent basis, Debye):
    X=              0.0155    Y=             -1.9572    Z=              0.0000  Tot=              1.9572
 Quadrupole moment (field-independent basis, Debye-Ang):
   XX=             -4.2663   YY=             -6.3587   ZZ=             -7.6292
   XY=              0.0864   XZ=              0.0000   YZ=              0.0000

 1\1\GINC-NODE22\SP\RB2PLYPD3-FC\def2QZVP\H2O1\BOITTIER\26-Aug-2020\0\\
 #p B2PLYPD3/Def2QZVP\\h2o\\0,1\O,0,-5.326605,-0.765198,0.918395\H,0,-4
 .368927,-0.744,0.941582\H,0,-5.609308,0.17121,0.77004\\Version=ES64L-G
 09RevD.01\State=1-A'\HF=-76.3337708\MP2=-76.4242343\RMSD=4.378e-09\PG=
 CS [SG(H2O1)]\\@

 UNDER MOST GREENE GRASSE LY MOST GREATE SNAKES.

 Normal termination of Gaussian 09 at Wed Aug 26 11:39:00 2020.
