 Gaussian 09, Revision D.01,
 Gaussian 09:  ES64L-G09RevD.01 24-Apr-2013

 --------------------
 #p B2PLYPD3/Def2QZVP
 --------------------

 ---
 h2o
 ---
 Symbolic Z-matrix:
 Charge =  0 Multiplicity = 1

                         Standard orientation:
 ---------------------------------------------------------------------
 Center     Atomic      Atomic             Coordinates (Angstroms)
 Number     Number       Type             X           Y           Z
 ---------------------------------------------------------------------
      1          8           0        0.000000    0.117705    0.000000
      2          1           0        0.762306   -0.463842    0.000000
      3          1           0       -0.762306   -0.477797    0.000000
 ---------------------------------------------------------------------

 SCF Done:  E(RB2PLYPD3) =  -76.3349190485     A.U. after   10 cycles
 E2(B2PLYPD3) =    -0.9013666518D-01 E(B2PLYPD3) =    -0.76425055713645D+02

 The electronic state is 1-A'.
 Alpha  occ. eigenvalues --  -19.73200  -1.15473  -0.61080  -0.47403  -0.39929
 Alpha virt. eigenvalues --    0.04488   0.10167   0.27542   0.30423   0.30900
 Alpha virt. eigenvalues --    0.35715   0.43853   0.50221   0.56204   0.62152
 Alpha virt. eigenvalues --    0.65741   0.81046   0.93702   0.96022   1.03536

 Mulliken charges:
               1
     1  O   -0.446497
     2  H    0.221396
     3  H    0.225102
 Sum of Mulliken charges =   0.00000

 Dipole moment (field-independent basis, Debye):
    X=              0.0043    Y=             -1.9639    Z=              0.0000  Tot=              1.9639
 Quadrupole moment (field-independent basis, Debye-Ang):
   XX=             -4.3274   YY=             -6.3288   ZZ=             -7.6034
   XY=              0.0230   XZ=              0.0000   YZ=              0.0000

 1\1\GINC-NODE15\SP\RB2PLYPD3-FC\def2QZVP\H2O1\BOITTIER\26-Aug-2020\0\\
 #p B2PLYPD3/Def2QZVP\\h2o\\0,1\O,0,-5.326605,-0.765063,0.918763\H,0,-4
 .368927,-0.722569,0.937579\H,0,-5.609308,0.14762,0.767696\\Version=ES6
 4L-G09RevD.01\State=1-A'\HF=-76.334919\MP2=-76.4250557\RMSD=4.058e-09\
 PG=CS [SG(H2O1)]\\@

 BULLDOZER: SOMEONE WHO SLEEPS THROUGH SPEECHES.

 Normal termination of Gaussian 09 at Wed Aug 26 11:11:56 2020.
