 Gaussian 09, Revision D.01,
 Gaussian 09:  ES64L-G09RevD.01 24-Apr-2013

 --------------------
 #p B2PLYPD3/Def2QZVP
 --------------------

 ---
 h2o
 ---
 Symbolic Z-matrix:
 Charge =  0 Multiplicity = 1

                         Standard orientation:
 ---------------------------------------------------------------------
 Center     Atomic      Atomic             Coordinates (Angstroms)
 Number     Number       Type             X           Y           Z
 ---------------------------------------------------------------------
      1          8           0        0.000000    0.117868    0.000000
      2          1           0        0.771393   -0.450207    0.000000
      3          1           0       -0.771393   -0.492734    0.000000
 ---------------------------------------------------------------------

 SCF Done:  E(RB2PLYPD3) =  -76.3341499475     A.U. after   10 cycles
 E2(B2PLYPD3) =    -0.9037726508D-01 E(B2PLYPD3) =    -0.76424527212624D+02

 The electronic state is 1-A'.
 Alpha  occ. eigenvalues --  -19.73294  -1.15080  -0.60836  -0.47182  -0.39849
 Alpha virt. eigenvalues --    0.04402   0.10082   0.27577   0.30444   0.30759
 Alpha virt. eigenvalues --    0.35295   0.43651   0.50263   0.56009   0.62269
 Alpha virt. eigenvalues --    0.65914   0.80795   0.93350   0.96197   1.03013

 Mulliken charges:
               1
     1  O   -0.453349
     2  H    0.221299
     3  H    0.232050
 Sum of Mulliken charges =   0.00000

 Dipole moment (field-independent basis, Debye):
    X=              0.0130    Y=             -1.9599    Z=              0.0000  Tot=              1.9599
 Quadrupole moment (field-independent basis, Debye-Ang):
   XX=             -4.2851   YY=             -6.3493   ZZ=             -7.6222
   XY=              0.0710   XZ=              0.0000   YZ=              0.0000

 1\1\GINC-NODE05\SP\RB2PLYPD3-FC\def2QZVP\H2O1\BOITTIER\26-Aug-2020\0\\
 #p B2PLYPD3/Def2QZVP\\h2o\\0,1\O,0,-5.326605,-0.764895,0.920593\H,0,-4
 .368927,-0.740284,0.922217\H,0,-5.609308,0.162649,0.754394\\Version=ES
 64L-G09RevD.01\State=1-A'\HF=-76.3341499\MP2=-76.4245272\RMSD=4.264e-0
 9\PG=CS [SG(H2O1)]\\@

 A MAN THINKING OR WORKING IS ALWAYS ALONE,

 Normal termination of Gaussian 09 at Wed Aug 26 12:01:56 2020.
