 Gaussian 09, Revision D.01,
 Gaussian 09:  ES64L-G09RevD.01 24-Apr-2013

 --------------------
 #p B2PLYPD3/Def2QZVP
 --------------------

 ---
 h2o
 ---
 Symbolic Z-matrix:
 Charge =  0 Multiplicity = 1

                         Standard orientation:
 ---------------------------------------------------------------------
 Center     Atomic      Atomic             Coordinates (Angstroms)
 Number     Number       Type             X           Y           Z
 ---------------------------------------------------------------------
      1          8           0        0.000000    0.119492    0.000000
      2          1           0        0.806350   -0.402659    0.000000
      3          1           0       -0.806350   -0.553278    0.000000
 ---------------------------------------------------------------------

 SCF Done:  E(RB2PLYPD3) =  -76.3266471035     A.U. after   10 cycles
 E2(B2PLYPD3) =    -0.9147987241D-01 E(B2PLYPD3) =    -0.76418126975940D+02

 The electronic state is 1-A'.
 Alpha  occ. eigenvalues --  -19.73690  -1.13586  -0.59667  -0.46335  -0.39534
 Alpha virt. eigenvalues --    0.03900   0.09717   0.27674   0.29622   0.30526
 Alpha virt. eigenvalues --    0.33999   0.42920   0.50356   0.55210   0.62601
 Alpha virt. eigenvalues --    0.66607   0.79567   0.91380   0.96815   1.00863

 Mulliken charges:
               1
     1  O   -0.477306
     2  H    0.223131
     3  H    0.254175
 Sum of Mulliken charges =   0.00000

 Dipole moment (field-independent basis, Debye):
    X=              0.0429    Y=             -1.9514    Z=              0.0000  Tot=              1.9518
 Quadrupole moment (field-independent basis, Debye-Ang):
   XX=             -4.1310   YY=             -6.4035   ZZ=             -7.7015
   XY=              0.2626   XZ=              0.0000   YZ=              0.0000

 1\1\GINC-NODE25\SP\RB2PLYPD3-FC\def2QZVP\H2O1\BOITTIER\26-Aug-2020\0\\
 #p B2PLYPD3/Def2QZVP\\h2o\\0,1\O,0,-5.326605,-0.766721,0.913946\H,0,-4
 .368927,-0.786252,0.986845\H,0,-5.609308,0.237832,0.79659\\Version=ES6
 4L-G09RevD.01\State=1-A'\HF=-76.3266471\MP2=-76.418127\RMSD=6.555e-09\
 PG=CS [SG(H2O1)]\\@

 ART, GLORY, FREEDOM FAIL, BUT NATURE STILL IS FAIR.

 Normal termination of Gaussian 09 at Wed Aug 26 08:40:48 2020.
