 Gaussian 09, Revision D.01,
 Gaussian 09:  ES64L-G09RevD.01 24-Apr-2013

 --------------------
 #p B2PLYPD3/Def2QZVP
 --------------------

 ---
 h2o
 ---
 Symbolic Z-matrix:
 Charge =  0 Multiplicity = 1

                         Standard orientation:
 ---------------------------------------------------------------------
 Center     Atomic      Atomic             Coordinates (Angstroms)
 Number     Number       Type             X           Y           Z
 ---------------------------------------------------------------------
      1          8           0        0.000000    0.121611    0.000000
      2          1           0        0.759450   -0.471096    0.000000
      3          1           0       -0.759450   -0.501795    0.000000
 ---------------------------------------------------------------------

 SCF Done:  E(RB2PLYPD3) =  -76.3339981507     A.U. after   10 cycles
 E2(B2PLYPD3) =    -0.9053042081D-01 E(B2PLYPD3) =    -0.76424528571532D+02

 The electronic state is 1-A'.
 Alpha  occ. eigenvalues --  -19.73438  -1.15164  -0.60266  -0.47653  -0.39898
 Alpha virt. eigenvalues --    0.04334   0.10104   0.27641   0.30439   0.30481
 Alpha virt. eigenvalues --    0.35604   0.43601   0.49771   0.56381   0.61483
 Alpha virt. eigenvalues --    0.66026   0.80911   0.93596   0.96190   1.02419

 Mulliken charges:
               1
     1  O   -0.449153
     2  H    0.220684
     3  H    0.228468
 Sum of Mulliken charges =   0.00000

 Dipole moment (field-independent basis, Debye):
    X=              0.0102    Y=             -2.0018    Z=              0.0000  Tot=              2.0018
 Quadrupole moment (field-independent basis, Debye-Ang):
   XX=             -4.3957   YY=             -6.2727   ZZ=             -7.6220
   XY=              0.0493   XZ=              0.0000   YZ=              0.0000

 1\1\GINC-NODE32\SP\RB2PLYPD3-FC\def2QZVP\H2O1\BOITTIER\26-Aug-2020\0\\
 #p B2PLYPD3/Def2QZVP\\h2o\\0,1\O,0,-5.326605,-0.768068,0.915193\H,0,-4
 .368927,-0.689662,0.984264\H,0,-5.609308,0.162796,0.777458\\Version=ES
 64L-G09RevD.01\State=1-A'\HF=-76.3339982\MP2=-76.4245286\RMSD=4.285e-0
 9\PG=CS [SG(H2O1)]\\@

 I FIND THAT THE THREE TRULY GREAT TIMES FOR THINKING THOUGHTS

 Normal termination of Gaussian 09 at Wed Aug 26 08:44:25 2020.
