 Gaussian 09, Revision D.01,
 Gaussian 09:  ES64L-G09RevD.01 24-Apr-2013

 --------------------
 #p B2PLYPD3/Def2QZVP
 --------------------

 ---
 h2o
 ---
 Symbolic Z-matrix:
 Charge =  0 Multiplicity = 1

                         Standard orientation:
 ---------------------------------------------------------------------
 Center     Atomic      Atomic             Coordinates (Angstroms)
 Number     Number       Type             X           Y           Z
 ---------------------------------------------------------------------
      1          8           0        0.000000    0.121244    0.000000
      2          1           0        0.760591   -0.464118    0.000000
      3          1           0       -0.760591   -0.505836    0.000000
 ---------------------------------------------------------------------

 SCF Done:  E(RB2PLYPD3) =  -76.3339044354     A.U. after   10 cycles
 E2(B2PLYPD3) =    -0.9051485069D-01 E(B2PLYPD3) =    -0.76424419286099D+02

 The electronic state is 1-A'.
 Alpha  occ. eigenvalues --  -19.73422  -1.15160  -0.60324  -0.47604  -0.39893
 Alpha virt. eigenvalues --    0.04337   0.10103   0.27634   0.30439   0.30492
 Alpha virt. eigenvalues --    0.35582   0.43614   0.49817   0.56340   0.61563
 Alpha virt. eigenvalues --    0.66010   0.80901   0.93542   0.96195   1.02451

 Mulliken charges:
               1
     1  O   -0.449407
     2  H    0.219415
     3  H    0.229993
 Sum of Mulliken charges =   0.00000

 Dipole moment (field-independent basis, Debye):
    X=              0.0138    Y=             -1.9977    Z=              0.0000  Tot=              1.9977
 Quadrupole moment (field-independent basis, Debye-Ang):
   XX=             -4.3849   YY=             -6.2796   ZZ=             -7.6219
   XY=              0.0672   XZ=              0.0000   YZ=              0.0000

 1\1\GINC-NODE39\SP\RB2PLYPD3-FC\def2QZVP\H2O1\BOITTIER\26-Aug-2020\0\\
 #p B2PLYPD3/Def2QZVP\\h2o\\0,1\O,0,-5.326605,-0.766478,0.924211\H,0,-4
 .368927,-0.706886,0.903008\H,0,-5.609308,0.154579,0.715737\\Version=ES
 64L-G09RevD.01\State=1-A'\HF=-76.3339044\MP2=-76.4244193\RMSD=4.394e-0
 9\PG=CS [SG(H2O1)]\\@

 MY GROUP MEETINGS AREN'T VERY STRUCTURED.

 Normal termination of Gaussian 09 at Wed Aug 26 11:27:27 2020.
