 Gaussian 09, Revision D.01,
 Gaussian 09:  ES64L-G09RevD.01 24-Apr-2013

 --------------------
 #p B2PLYPD3/Def2QZVP
 --------------------

 ---
 h2o
 ---
 Symbolic Z-matrix:
 Charge =  0 Multiplicity = 1

                         Standard orientation:
 ---------------------------------------------------------------------
 Center     Atomic      Atomic             Coordinates (Angstroms)
 Number     Number       Type             X           Y           Z
 ---------------------------------------------------------------------
      1          8           0        0.000000    0.113034    0.000000
      2          1           0        0.762363   -0.467064    0.000000
      3          1           0       -0.762363   -0.437209    0.000000
 ---------------------------------------------------------------------

 SCF Done:  E(RB2PLYPD3) =  -76.3351024601     A.U. after   10 cycles
 E2(B2PLYPD3) =    -0.8961934307D-01 E(B2PLYPD3) =    -0.76424721803156D+02

 The electronic state is 1-A'.
 Alpha  occ. eigenvalues --  -19.72882  -1.15983  -0.62141  -0.47163  -0.39995
 Alpha virt. eigenvalues --    0.04681   0.10258   0.27416   0.30394   0.31375
 Alpha virt. eigenvalues --    0.35951   0.44248   0.50784   0.56037   0.62942
 Alpha virt. eigenvalues --    0.65339   0.81255   0.93884   0.95798   1.04986

 Mulliken charges:
               1
     1  O   -0.439902
     2  H    0.224195
     3  H    0.215706
 Sum of Mulliken charges =   0.00000

 Dipole moment (field-independent basis, Debye):
    X=             -0.0086    Y=             -1.9191    Z=              0.0000  Tot=              1.9192
 Quadrupole moment (field-independent basis, Debye-Ang):
   XX=             -4.2634   YY=             -6.3847   ZZ=             -7.5756
   XY=             -0.0504   XZ=              0.0000   YZ=              0.0000

 1\1\GINC-NODE21\SP\RB2PLYPD3-FC\def2QZVP\H2O1\BOITTIER\26-Aug-2020\0\\
 #p B2PLYPD3/Def2QZVP\\h2o\\0,1\O,0,-5.326605,-0.762103,0.916574\H,0,-4
 .368927,-0.749705,0.936803\H,0,-5.609308,0.127396,0.803284\\Version=ES
 64L-G09RevD.01\State=1-A'\HF=-76.3351025\MP2=-76.4247218\RMSD=4.196e-0
 9\PG=CS [SG(H2O1)]\\@

 REVOLUTIONS HAVE NEVER LIGHTENED THE BURDEN OF TYRANNY:

 Normal termination of Gaussian 09 at Wed Aug 26 11:33:24 2020.
