 Gaussian 09, Revision D.01,
 Gaussian 09:  ES64L-G09RevD.01 24-Apr-2013

 --------------------
 #p B2PLYPD3/Def2QZVP
 --------------------

 ---
 h2o
 ---
 Symbolic Z-matrix:
 Charge =  0 Multiplicity = 1

                         Standard orientation:
 ---------------------------------------------------------------------
 Center     Atomic      Atomic             Coordinates (Angstroms)
 Number     Number       Type             X           Y           Z
 ---------------------------------------------------------------------
      1          8           0        0.000000    0.119473    0.000000
      2          1           0        0.748588   -0.482363    0.000000
      3          1           0       -0.748588   -0.473418    0.000000
 ---------------------------------------------------------------------

 SCF Done:  E(RB2PLYPD3) =  -76.3349910461     A.U. after   10 cycles
 E2(B2PLYPD3) =    -0.9001904947D-01 E(B2PLYPD3) =    -0.76425010095614D+02

 The electronic state is 1-A'.
 Alpha  occ. eigenvalues --  -19.73190  -1.15859  -0.60978  -0.47826  -0.40019
 Alpha virt. eigenvalues --    0.04511   0.10251   0.27539   0.30403   0.30837
 Alpha virt. eigenvalues --    0.36244   0.44011   0.49947   0.56550   0.61657
 Alpha virt. eigenvalues --    0.65646   0.81271   0.94070   0.95881   1.03571

 Mulliken charges:
               1
     1  O   -0.438451
     2  H    0.220466
     3  H    0.217984
 Sum of Mulliken charges =   0.00000

 Dipole moment (field-independent basis, Debye):
    X=             -0.0030    Y=             -1.9885    Z=              0.0000  Tot=              1.9885
 Quadrupole moment (field-independent basis, Debye-Ang):
   XX=             -4.4181   YY=             -6.2715   ZZ=             -7.5879
   XY=             -0.0143   XZ=              0.0000   YZ=              0.0000

 1\1\GINC-NODE20\SP\RB2PLYPD3-FC\def2QZVP\H2O1\BOITTIER\26-Aug-2020\0\\
 #p B2PLYPD3/Def2QZVP\\h2o\\0,1\O,0,-5.326605,-0.765453,0.92333\H,0,-4.
 368927,-0.694406,0.903465\H,0,-5.609308,0.125691,0.728794\\Version=ES6
 4L-G09RevD.01\State=1-A'\HF=-76.334991\MP2=-76.4250101\RMSD=4.281e-09\
 PG=CS [SG(H2O1)]\\@

 ALL PAPERS THAT YOU SAVE WILL NEVER BE NEEDED UNTIL

 Normal termination of Gaussian 09 at Wed Aug 26 10:34:59 2020.
