 Gaussian 09, Revision D.01,
 Gaussian 09:  ES64L-G09RevD.01 24-Apr-2013

 --------------------
 #p B2PLYPD3/Def2QZVP
 --------------------

 ---
 h2o
 ---
 Symbolic Z-matrix:
 Charge =  0 Multiplicity = 1

                         Standard orientation:
 ---------------------------------------------------------------------
 Center     Atomic      Atomic             Coordinates (Angstroms)
 Number     Number       Type             X           Y           Z
 ---------------------------------------------------------------------
      1          8           0        0.000000    0.120018    0.000000
      2          1           0        0.722060   -0.521548    0.000000
      3          1           0       -0.722060   -0.438600    0.000000
 ---------------------------------------------------------------------

 SCF Done:  E(RB2PLYPD3) =  -76.3327262751     A.U. after   10 cycles
 E2(B2PLYPD3) =    -0.8949420529D-01 E(B2PLYPD3) =    -0.76422220480394D+02

 The electronic state is 1-A'.
 Alpha  occ. eigenvalues --  -19.72958  -1.16991  -0.61389  -0.48481  -0.40233
 Alpha virt. eigenvalues --    0.04623   0.10466   0.27427   0.30350   0.30887
 Alpha virt. eigenvalues --    0.37393   0.44659   0.49790   0.57069   0.61209
 Alpha virt. eigenvalues --    0.65181   0.81699   0.94580   0.95544   1.04249

 Mulliken charges:
               1
     1  O   -0.417025
     2  H    0.221645
     3  H    0.195380
 Sum of Mulliken charges =   0.00000

 Dipole moment (field-independent basis, Debye):
    X=             -0.0293    Y=             -2.0080    Z=              0.0000  Tot=              2.0082
 Quadrupole moment (field-independent basis, Debye-Ang):
   XX=             -4.5495   YY=             -6.1909   ZZ=             -7.5416
   XY=             -0.1264   XZ=              0.0000   YZ=              0.0000

 1\1\GINC-NODE01\SP\RB2PLYPD3-FC\def2QZVP\H2O1\BOITTIER\26-Aug-2020\0\\
 #p B2PLYPD3/Def2QZVP\\h2o\\0,1\O,0,-5.326605,-0.765018,0.926499\H,0,-4
 .368927,-0.650166,0.875126\H,0,-5.609308,0.074501,0.705791\\Version=ES
 64L-G09RevD.01\State=1-A'\HF=-76.3327263\MP2=-76.4222205\RMSD=5.831e-0
 9\PG=CS [SG(H2O1)]\\@

 WHEN YOU'VE SEEN ONE NUCLEAR WAR YOU'VE SEEN THEM ALL.

 Normal termination of Gaussian 09 at Wed Aug 26 08:39:30 2020.
