 Gaussian 09, Revision D.01,
 Gaussian 09:  ES64L-G09RevD.01 24-Apr-2013

 --------------------
 #p B2PLYPD3/Def2QZVP
 --------------------

 ---
 h2o
 ---
 Symbolic Z-matrix:
 Charge =  0 Multiplicity = 1

                         Standard orientation:
 ---------------------------------------------------------------------
 Center     Atomic      Atomic             Coordinates (Angstroms)
 Number     Number       Type             X           Y           Z
 ---------------------------------------------------------------------
      1          8           0        0.000000    0.117564    0.000000
      2          1           0        0.752566   -0.478187    0.000000
      3          1           0       -0.752566   -0.462329    0.000000
 ---------------------------------------------------------------------

 SCF Done:  E(RB2PLYPD3) =  -76.3351435344     A.U. after   10 cycles
 E2(B2PLYPD3) =    -0.8989002715D-01 E(B2PLYPD3) =    -0.76425033561516D+02

 The electronic state is 1-A'.
 Alpha  occ. eigenvalues --  -19.73096  -1.15906  -0.61331  -0.47634  -0.40014
 Alpha virt. eigenvalues --    0.04565   0.10256   0.27500   0.30400   0.31000
 Alpha virt. eigenvalues --    0.36179   0.44086   0.50178   0.56402   0.62028
 Alpha virt. eigenvalues --    0.65551   0.81284   0.94008   0.95843   1.03998

 Mulliken charges:
               1
     1  O   -0.438722
     2  H    0.221581
     3  H    0.217141
 Sum of Mulliken charges =   0.00000

 Dipole moment (field-independent basis, Debye):
    X=             -0.0050    Y=             -1.9683    Z=              0.0000  Tot=              1.9683
 Quadrupole moment (field-independent basis, Debye-Ang):
   XX=             -4.3726   YY=             -6.3050   ZZ=             -7.5837
   XY=             -0.0257   XZ=              0.0000   YZ=              0.0000

 1\1\GINC-NODE19\SP\RB2PLYPD3-FC\def2QZVP\H2O1\BOITTIER\26-Aug-2020\0\\
 #p B2PLYPD3/Def2QZVP\\h2o\\0,1\O,0,-5.326605,-0.763746,0.924925\H,0,-4
 .368927,-0.717382,0.880437\H,0,-5.609308,0.121369,0.726727\\Version=ES
 64L-G09RevD.01\State=1-A'\HF=-76.3351435\MP2=-76.4250336\RMSD=4.219e-0
 9\PG=CS [SG(H2O1)]\\@

 IF OTHER PEOPLE ARE GOING TO TALK, CONVERSATION IS SIMPLY IMPOSSIBLE.

 Normal termination of Gaussian 09 at Wed Aug 26 09:36:48 2020.
