 Gaussian 09, Revision D.01,
 Gaussian 09:  ES64L-G09RevD.01 24-Apr-2013

 --------------------
 #p B2PLYPD3/Def2QZVP
 --------------------

 ---
 h2o
 ---
 Symbolic Z-matrix:
 Charge =  0 Multiplicity = 1

                         Standard orientation:
 ---------------------------------------------------------------------
 Center     Atomic      Atomic             Coordinates (Angstroms)
 Number     Number       Type             X           Y           Z
 ---------------------------------------------------------------------
      1          8           0        0.000000    0.115673    0.000000
      2          1           0        0.730666   -0.517991    0.000000
      3          1           0       -0.730666   -0.407390    0.000000
 ---------------------------------------------------------------------

 SCF Done:  E(RB2PLYPD3) =  -76.3317209532     A.U. after   10 cycles
 E2(B2PLYPD3) =    -0.8919401192D-01 E(B2PLYPD3) =    -0.76420914965107D+02

 The electronic state is 1-A'.
 Alpha  occ. eigenvalues --  -19.72729  -1.17146  -0.62257  -0.48022  -0.40228
 Alpha virt. eigenvalues --    0.04735   0.10473   0.27328   0.30340   0.31156
 Alpha virt. eigenvalues --    0.37264   0.44896   0.50282   0.56700   0.62067
 Alpha virt. eigenvalues --    0.64954   0.81782   0.94260   0.95507   1.04768

 Mulliken charges:
               1
     1  O   -0.414841
     2  H    0.225336
     3  H    0.189506
 Sum of Mulliken charges =   0.00000

 Dipole moment (field-independent basis, Debye):
    X=             -0.0359    Y=             -1.9617    Z=              0.0000  Tot=              1.9620
 Quadrupole moment (field-independent basis, Debye-Ang):
   XX=             -4.4493   YY=             -6.2615   ZZ=             -7.5306
   XY=             -0.1753   XZ=              0.0000   YZ=              0.0000

 1\1\GINC-NODE05\SP\RB2PLYPD3-FC\def2QZVP\H2O1\BOITTIER\26-Aug-2020\0\\
 #p B2PLYPD3/Def2QZVP\\h2o\\0,1\O,0,-5.326605,-0.760136,0.931608\H,0,-4
 .368927,-0.713294,0.804877\H,0,-5.609308,0.059506,0.695529\\Version=ES
 64L-G09RevD.01\State=1-A'\HF=-76.331721\MP2=-76.420915\RMSD=6.237e-09\
 PG=CS [SG(H2O1)]\\@

 The mind is not a vessel to be filled but a fire to be kindled.

 Normal termination of Gaussian 09 at Wed Aug 26 10:06:16 2020.
