 Gaussian 09, Revision D.01,
 Gaussian 09:  ES64L-G09RevD.01 24-Apr-2013

 --------------------
 #p B2PLYPD3/Def2QZVP
 --------------------

 ---
 h2o
 ---
 Symbolic Z-matrix:
 Charge =  0 Multiplicity = 1

                         Standard orientation:
 ---------------------------------------------------------------------
 Center     Atomic      Atomic             Coordinates (Angstroms)
 Number     Number       Type             X           Y           Z
 ---------------------------------------------------------------------
      1          8           0        0.000000    0.110810    0.000000
      2          1           0        0.803518   -0.416518    0.000000
      3          1           0       -0.803518   -0.469958    0.000000
 ---------------------------------------------------------------------

 SCF Done:  E(RB2PLYPD3) =  -76.3326783644     A.U. after   10 cycles
 E2(B2PLYPD3) =    -0.9041335123D-01 E(B2PLYPD3) =    -0.76423091715582D+02

 The electronic state is 1-A'.
 Alpha  occ. eigenvalues --  -19.73126  -1.14467  -0.61549  -0.46065  -0.39659
 Alpha virt. eigenvalues --    0.04412   0.09939   0.27497   0.30478   0.31206
 Alpha virt. eigenvalues --    0.34149   0.43476   0.51467   0.55118   0.63940
 Alpha virt. eigenvalues --    0.65964   0.80026   0.92771   0.96534   1.03628

 Mulliken charges:
               1
     1  O   -0.470869
     2  H    0.229108
     3  H    0.241761
 Sum of Mulliken charges =   0.00000

 Dipole moment (field-independent basis, Debye):
    X=              0.0131    Y=             -1.8724    Z=              0.0000  Tot=              1.8725
 Quadrupole moment (field-independent basis, Debye-Ang):
   XX=             -4.0269   YY=             -6.5181   ZZ=             -7.6461
   XY=              0.0969   XZ=              0.0000   YZ=              0.0000

 1\1\GINC-NODE32\SP\RB2PLYPD3-FC\def2QZVP\H2O1\BOITTIER\26-Aug-2020\0\\
 #p B2PLYPD3/Def2QZVP\\h2o\\0,1\O,0,-5.326605,-0.760786,0.913282\H,0,-4
 .368927,-0.829901,0.955611\H,0,-5.609308,0.186518,0.838273\\Version=ES
 64L-G09RevD.01\State=1-A'\HF=-76.3326784\MP2=-76.4230917\RMSD=4.319e-0
 9\PG=CS [SG(H2O1)]\\@

 A CHEMICAL PHYSICIST MAKES PRECISE MEASUREMENTS ON IMPURE COMPOUNDS.

 Normal termination of Gaussian 09 at Wed Aug 26 08:33:49 2020.
