 Gaussian 09, Revision D.01,
 Gaussian 09:  ES64L-G09RevD.01 24-Apr-2013

 --------------------
 #p B2PLYPD3/Def2QZVP
 --------------------

 ---
 h2o
 ---
 Symbolic Z-matrix:
 Charge =  0 Multiplicity = 1

                         Standard orientation:
 ---------------------------------------------------------------------
 Center     Atomic      Atomic             Coordinates (Angstroms)
 Number     Number       Type             X           Y           Z
 ---------------------------------------------------------------------
      1          8           0        0.000000    0.115943    0.000000
      2          1           0        0.715653   -0.531047    0.000000
      3          1           0       -0.715653   -0.396499    0.000000
 ---------------------------------------------------------------------

 SCF Done:  E(RB2PLYPD3) =  -76.3286592158     A.U. after   10 cycles
 E2(B2PLYPD3) =    -0.8889959676D-01 E(B2PLYPD3) =    -0.76417558812520D+02

 The electronic state is 1-A'.
 Alpha  occ. eigenvalues --  -19.72584  -1.17838  -0.62512  -0.48383  -0.40354
 Alpha virt. eigenvalues --    0.04787   0.10588   0.27250   0.30309   0.31164
 Alpha virt. eigenvalues --    0.37864   0.45317   0.50181   0.56971   0.61818
 Alpha virt. eigenvalues --    0.64700   0.81992   0.94372   0.95403   1.05065

 Mulliken charges:
               1
     1  O   -0.400340
     2  H    0.223715
     3  H    0.176625
 Sum of Mulliken charges =   0.00000

 Dipole moment (field-independent basis, Debye):
    X=             -0.0454    Y=             -1.9721    Z=              0.0000  Tot=              1.9726
 Quadrupole moment (field-independent basis, Debye-Ang):
   XX=             -4.5214   YY=             -6.2143   ZZ=             -7.5038
   XY=             -0.2077   XZ=              0.0000   YZ=              0.0000

 1\1\GINC-NODE28\SP\RB2PLYPD3-FC\def2QZVP\H2O1\BOITTIER\26-Aug-2020\0\\
 #p B2PLYPD3/Def2QZVP\\h2o\\0,1\O,0,-5.326605,-0.762148,0.926469\H,0,-4
 .368927,-0.667939,0.857673\H,0,-5.609308,0.046356,0.723598\\Version=ES
 64L-G09RevD.01\State=1-A'\HF=-76.3286592\MP2=-76.4175588\RMSD=6.681e-0
 9\PG=CS [SG(H2O1)]\\@

 Money is a good servant but a bad master.

 Normal termination of Gaussian 09 at Wed Aug 26 09:20:59 2020.
