 Gaussian 09, Revision D.01,
 Gaussian 09:  ES64L-G09RevD.01 24-Apr-2013

 --------------------
 #p B2PLYPD3/Def2QZVP
 --------------------

 ---
 h2o
 ---
 Symbolic Z-matrix:
 Charge =  0 Multiplicity = 1

                         Standard orientation:
 ---------------------------------------------------------------------
 Center     Atomic      Atomic             Coordinates (Angstroms)
 Number     Number       Type             X           Y           Z
 ---------------------------------------------------------------------
      1          8           0        0.000000    0.114843    0.000000
      2          1           0        0.776019   -0.446371    0.000000
      3          1           0       -0.776019   -0.472373    0.000000
 ---------------------------------------------------------------------

 SCF Done:  E(RB2PLYPD3) =  -76.3346342299     A.U. after   10 cycles
 E2(B2PLYPD3) =    -0.9014757203D-01 E(B2PLYPD3) =    -0.76424781801949D+02

 The electronic state is 1-A'.
 Alpha  occ. eigenvalues --  -19.73136  -1.15203  -0.61396  -0.46927  -0.39851
 Alpha virt. eigenvalues --    0.04500   0.10105   0.27515   0.30437   0.31075
 Alpha virt. eigenvalues --    0.35223   0.43780   0.50666   0.55822   0.62837
 Alpha virt. eigenvalues --    0.65747   0.80803   0.93402   0.96134   1.03831

 Mulliken charges:
               1
     1  O   -0.453518
     2  H    0.223404
     3  H    0.230114
 Sum of Mulliken charges =   0.00000

 Dipole moment (field-independent basis, Debye):
    X=              0.0074    Y=             -1.9285    Z=              0.0000  Tot=              1.9285
 Quadrupole moment (field-independent basis, Debye-Ang):
   XX=             -4.2207   YY=             -6.3991   ZZ=             -7.6133
   XY=              0.0444   XZ=              0.0000   YZ=              0.0000

 1\1\GINC-NODE07\SP\RB2PLYPD3-FC\def2QZVP\H2O1\BOITTIER\26-Aug-2020\0\\
 #p B2PLYPD3/Def2QZVP\\h2o\\0,1\O,0,-5.326605,-0.763053,0.919057\H,0,-4
 .368927,-0.764497,0.923195\H,0,-5.609308,0.157388,0.778005\\Version=ES
 64L-G09RevD.01\State=1-A'\HF=-76.3346342\MP2=-76.4247818\RMSD=3.971e-0
 9\PG=CS [SG(H2O1)]\\@

 "WOULD YOU TELL ME PLEASE, WHICH WAY I OUGHT TO WALK FROM HERE?"

 Normal termination of Gaussian 09 at Wed Aug 26 09:52:18 2020.
