 Gaussian 09, Revision D.01,
 Gaussian 09:  ES64L-G09RevD.01 24-Apr-2013

 --------------------
 #p B2PLYPD3/Def2QZVP
 --------------------

 ---
 h2o
 ---
 Symbolic Z-matrix:
 Charge =  0 Multiplicity = 1

                         Standard orientation:
 ---------------------------------------------------------------------
 Center     Atomic      Atomic             Coordinates (Angstroms)
 Number     Number       Type             X           Y           Z
 ---------------------------------------------------------------------
      1          8           0        0.000000    0.124532    0.000000
      2          1           0        0.759785   -0.466761    0.000000
      3          1           0       -0.759785   -0.529496    0.000000
 ---------------------------------------------------------------------

 SCF Done:  E(RB2PLYPD3) =  -76.3323961904     A.U. after   10 cycles
 E2(B2PLYPD3) =    -0.9090250495D-01 E(B2PLYPD3) =    -0.76423298695376D+02

 The electronic state is 1-A'.
 Alpha  occ. eigenvalues --  -19.73635  -1.14837  -0.59615  -0.47759  -0.39854
 Alpha virt. eigenvalues --    0.04181   0.10028   0.27724   0.30075   0.30454
 Alpha virt. eigenvalues --    0.35400   0.43388   0.49469   0.56434   0.61051
 Alpha virt. eigenvalues --    0.66268   0.80733   0.93323   0.96381   1.01513

 Mulliken charges:
               1
     1  O   -0.452277
     2  H    0.218571
     3  H    0.233706
 Sum of Mulliken charges =   0.00000

 Dipole moment (field-independent basis, Debye):
    X=              0.0217    Y=             -2.0278    Z=              0.0000  Tot=              2.0279
 Quadrupole moment (field-independent basis, Debye-Ang):
   XX=             -4.4351   YY=             -6.2347   ZZ=             -7.6410
   XY=              0.0992   XZ=              0.0000   YZ=              0.0000

 1\1\GINC-NODE05\SP\RB2PLYPD3-FC\def2QZVP\H2O1\BOITTIER\26-Aug-2020\0\\
 #p B2PLYPD3/Def2QZVP\\h2o\\0,1\O,0,-5.326605,-0.76696,0.930455\H,0,-4.
 368927,-0.701584,0.856425\H,0,-5.609308,0.156996,0.663228\\Version=ES6
 4L-G09RevD.01\State=1-A'\HF=-76.3323962\MP2=-76.4232987\RMSD=4.706e-09
 \PG=CS [SG(H2O1)]\\@

 THE UNDERLYING PHYSICAL LAWS NECESSARY FOR THE

 Normal termination of Gaussian 09 at Wed Aug 26 09:38:15 2020.
