 Gaussian 09, Revision D.01,
 Gaussian 09:  ES64L-G09RevD.01 24-Apr-2013

 --------------------
 #p B2PLYPD3/Def2QZVP
 --------------------

 ---
 h2o
 ---
 Symbolic Z-matrix:
 Charge =  0 Multiplicity = 1

                         Standard orientation:
 ---------------------------------------------------------------------
 Center     Atomic      Atomic             Coordinates (Angstroms)
 Number     Number       Type             X           Y           Z
 ---------------------------------------------------------------------
      1          8           0        0.000000    0.115303    0.000000
      2          1           0        0.739449   -0.497043    0.000000
      3          1           0       -0.739449   -0.425380    0.000000
 ---------------------------------------------------------------------

 SCF Done:  E(RB2PLYPD3) =  -76.3338145246     A.U. after   10 cycles
 E2(B2PLYPD3) =    -0.8933813068D-01 E(B2PLYPD3) =    -0.76423152655314D+02

 The electronic state is 1-A'.
 Alpha  occ. eigenvalues --  -19.72803  -1.16763  -0.62152  -0.47821  -0.40161
 Alpha virt. eigenvalues --    0.04728   0.10409   0.27371   0.30357   0.31246
 Alpha virt. eigenvalues --    0.36915   0.44642   0.50361   0.56560   0.62225
 Alpha virt. eigenvalues --    0.65102   0.81662   0.94290   0.95541   1.04942

 Mulliken charges:
               1
     1  O   -0.423286
     2  H    0.222774
     3  H    0.200512
 Sum of Mulliken charges =   0.00000

 Dipole moment (field-independent basis, Debye):
    X=             -0.0227    Y=             -1.9539    Z=              0.0000  Tot=              1.9540
 Quadrupole moment (field-independent basis, Debye-Ang):
   XX=             -4.4037   YY=             -6.2941   ZZ=             -7.5446
   XY=             -0.1153   XZ=              0.0000   YZ=              0.0000

 1\1\GINC-NODE40\SP\RB2PLYPD3-FC\def2QZVP\H2O1\BOITTIER\26-Aug-2020\0\\
 #p B2PLYPD3/Def2QZVP\\h2o\\0,1\O,0,-5.326605,-0.762562,0.923253\H,0,-4
 .368927,-0.705717,0.886189\H,0,-5.609308,0.090754,0.74703\\Version=ES6
 4L-G09RevD.01\State=1-A'\HF=-76.3338145\MP2=-76.4231527\RMSD=5.376e-09
 \PG=CS [SG(H2O1)]\\@

 A successful marriage requires falling in love

 Normal termination of Gaussian 09 at Wed Aug 26 08:31:50 2020.
