 Gaussian 09, Revision D.01,
 Gaussian 09:  ES64L-G09RevD.01 24-Apr-2013

 --------------------
 #p B2PLYPD3/Def2QZVP
 --------------------

 ---
 h2o
 ---
 Symbolic Z-matrix:
 Charge =  0 Multiplicity = 1

                         Standard orientation:
 ---------------------------------------------------------------------
 Center     Atomic      Atomic             Coordinates (Angstroms)
 Number     Number       Type             X           Y           Z
 ---------------------------------------------------------------------
      1          8           0        0.000000    0.111381    0.000000
      2          1           0        0.799940   -0.419486    0.000000
      3          1           0       -0.799940   -0.471562    0.000000
 ---------------------------------------------------------------------

 SCF Done:  E(RB2PLYPD3) =  -76.3329723484     A.U. after   10 cycles
 E2(B2PLYPD3) =    -0.9038053815D-01 E(B2PLYPD3) =    -0.76423352886538D+02

 The electronic state is 1-A'.
 Alpha  occ. eigenvalues --  -19.73130  -1.14560  -0.61526  -0.46178  -0.39684
 Alpha virt. eigenvalues --    0.04423   0.09960   0.27501   0.30473   0.31181
 Alpha virt. eigenvalues --    0.34286   0.43514   0.51349   0.55210   0.63789
 Alpha virt. eigenvalues --    0.65932   0.80140   0.92840   0.96477   1.03648

 Mulliken charges:
               1
     1  O   -0.468554
     2  H    0.228045
     3  H    0.240509
 Sum of Mulliken charges =   0.00000

 Dipole moment (field-independent basis, Debye):
    X=              0.0130    Y=             -1.8803    Z=              0.0000  Tot=              1.8803
 Quadrupole moment (field-independent basis, Debye-Ang):
   XX=             -4.0530   YY=             -6.5020   ZZ=             -7.6420
   XY=              0.0937   XZ=              0.0000   YZ=              0.0000

 1\1\GINC-NODE18\SP\RB2PLYPD3-FC\def2QZVP\H2O1\BOITTIER\26-Aug-2020\0\\
 #p B2PLYPD3/Def2QZVP\\h2o\\0,1\O,0,-5.326605,-0.761107,0.914795\H,0,-4
 .368927,-0.821387,0.945514\H,0,-5.609308,0.183141,0.824233\\Version=ES
 64L-G09RevD.01\State=1-A'\HF=-76.3329723\MP2=-76.4233529\RMSD=4.292e-0
 9\PG=CS [SG(H2O1)]\\@

 IT MATTERS NOT HOW DEEP YOU PLOW,

 Normal termination of Gaussian 09 at Wed Aug 26 08:53:01 2020.
