 Gaussian 09, Revision D.01,
 Gaussian 09:  ES64L-G09RevD.01 24-Apr-2013

 --------------------
 #p B2PLYPD3/Def2QZVP
 --------------------

 ---
 h2o
 ---
 Symbolic Z-matrix:
 Charge =  0 Multiplicity = 1

                         Standard orientation:
 ---------------------------------------------------------------------
 Center     Atomic      Atomic             Coordinates (Angstroms)
 Number     Number       Type             X           Y           Z
 ---------------------------------------------------------------------
      1          8           0        0.000000    0.119319    0.000000
      2          1           0        0.777023   -0.441051    0.000000
      3          1           0       -0.777023   -0.513503    0.000000
 ---------------------------------------------------------------------

 SCF Done:  E(RB2PLYPD3) =  -76.3327591578     A.U. after   10 cycles
 E2(B2PLYPD3) =    -0.9068920945D-01 E(B2PLYPD3) =    -0.76423448367299D+02

 The electronic state is 1-A'.
 Alpha  occ. eigenvalues --  -19.73439  -1.14707  -0.60389  -0.47099  -0.39782
 Alpha virt. eigenvalues --    0.04274   0.09997   0.27631   0.30452   0.30464
 Alpha virt. eigenvalues --    0.34992   0.43442   0.50134   0.55913   0.62133
 Alpha virt. eigenvalues --    0.66125   0.80558   0.92964   0.96375   1.02229

 Mulliken charges:
               1
     1  O   -0.458595
     2  H    0.220595
     3  H    0.237999
 Sum of Mulliken charges =   0.00000

 Dipole moment (field-independent basis, Debye):
    X=              0.0223    Y=             -1.9697    Z=              0.0000  Tot=              1.9698
 Quadrupole moment (field-independent basis, Debye-Ang):
   XX=             -4.2772   YY=             -6.3434   ZZ=             -7.6421
   XY=              0.1210   XZ=              0.0000   YZ=              0.0000

 1\1\GINC-NODE18\SP\RB2PLYPD3-FC\def2QZVP\H2O1\BOITTIER\26-Aug-2020\0\\
 #p B2PLYPD3/Def2QZVP\\h2o\\0,1\O,0,-5.326605,-0.765879,0.920673\H,0,-4
 .368927,-0.741762,0.927729\H,0,-5.609308,0.179864,0.747823\\Version=ES
 64L-G09RevD.01\State=1-A'\HF=-76.3327592\MP2=-76.4234484\RMSD=4.748e-0
 9\PG=CS [SG(H2O1)]\\@

 KNOWLEDGE IS CHIMERA - FOR BEYOND IT LIES OTHER KNOWLEDGE,

 Normal termination of Gaussian 09 at Wed Aug 26 08:31:45 2020.
