 Gaussian 09, Revision D.01,
 Gaussian 09:  ES64L-G09RevD.01 24-Apr-2013

 --------------------
 #p B2PLYPD3/Def2QZVP
 --------------------

 ---
 h2o
 ---
 Symbolic Z-matrix:
 Charge =  0 Multiplicity = 1

                         Standard orientation:
 ---------------------------------------------------------------------
 Center     Atomic      Atomic             Coordinates (Angstroms)
 Number     Number       Type             X           Y           Z
 ---------------------------------------------------------------------
      1          8           0        0.000000    0.111033    0.000000
      2          1           0        0.802888   -0.417803    0.000000
      3          1           0       -0.802888   -0.470461    0.000000
 ---------------------------------------------------------------------

 SCF Done:  E(RB2PLYPD3) =  -76.3327202406     A.U. after   10 cycles
 E2(B2PLYPD3) =    -0.9042001064D-01 E(B2PLYPD3) =    -0.76423140251210D+02

 The electronic state is 1-A'.
 Alpha  occ. eigenvalues --  -19.73135  -1.14472  -0.61519  -0.46091  -0.39663
 Alpha virt. eigenvalues --    0.04409   0.09940   0.27500   0.30478   0.31190
 Alpha virt. eigenvalues --    0.34168   0.43473   0.51429   0.55139   0.63891
 Alpha virt. eigenvalues --    0.65967   0.80044   0.92775   0.96525   1.03609

 Mulliken charges:
               1
     1  O   -0.470572
     2  H    0.229050
     3  H    0.241522
 Sum of Mulliken charges =   0.00000

 Dipole moment (field-independent basis, Debye):
    X=              0.0130    Y=             -1.8750    Z=              0.0000  Tot=              1.8751
 Quadrupole moment (field-independent basis, Debye-Ang):
   XX=             -4.0331   YY=             -6.5138   ZZ=             -7.6460
   XY=              0.0953   XZ=              0.0000   YZ=              0.0000

 1\1\GINC-NODE24\SP\RB2PLYPD3-FC\def2QZVP\H2O1\BOITTIER\26-Aug-2020\0\\
 #p B2PLYPD3/Def2QZVP\\h2o\\0,1\O,0,-5.326605,-0.760969,0.912273\H,0,-4
 .368927,-0.827285,0.96473\H,0,-5.609308,0.186837,0.845141\\Version=ES6
 4L-G09RevD.01\State=1-A'\HF=-76.3327202\MP2=-76.4231403\RMSD=4.298e-09
 \PG=CS [SG(H2O1)]\\@

 HE WHO LOVES TO READ, AND KNOWS HOW TO REFLECT,

 Normal termination of Gaussian 09 at Wed Aug 26 08:37:08 2020.
