 Gaussian 09, Revision D.01,
 Gaussian 09:  ES64L-G09RevD.01 24-Apr-2013

 --------------------
 #p B2PLYPD3/Def2QZVP
 --------------------

 ---
 h2o
 ---
 Symbolic Z-matrix:
 Charge =  0 Multiplicity = 1

                         Standard orientation:
 ---------------------------------------------------------------------
 Center     Atomic      Atomic             Coordinates (Angstroms)
 Number     Number       Type             X           Y           Z
 ---------------------------------------------------------------------
      1          8           0        0.000000    0.124794    0.000000
      2          1           0        0.723191   -0.521375    0.000000
      3          1           0       -0.723191   -0.476974    0.000000
 ---------------------------------------------------------------------

 SCF Done:  E(RB2PLYPD3) =  -76.3335229339     A.U. after   10 cycles
 E2(B2PLYPD3) =    -0.9009895514D-01 E(B2PLYPD3) =    -0.76423621889009D+02

 The electronic state is 1-A'.
 Alpha  occ. eigenvalues --  -19.73316  -1.16328  -0.60231  -0.48698  -0.40146
 Alpha virt. eigenvalues --    0.04426   0.10355   0.27592   0.30382   0.30473
 Alpha virt. eigenvalues --    0.36958   0.44130   0.49366   0.57241   0.60462
 Alpha virt. eigenvalues --    0.65629   0.81413   0.94668   0.95794   1.03009

 Mulliken charges:
               1
     1  O   -0.427296
     2  H    0.220097
     3  H    0.207199
 Sum of Mulliken charges =   0.00000

 Dipole moment (field-independent basis, Debye):
    X=             -0.0167    Y=             -2.0517    Z=              0.0000  Tot=              2.0517
 Quadrupole moment (field-independent basis, Debye-Ang):
   XX=             -4.6122   YY=             -6.1389   ZZ=             -7.5750
   XY=             -0.0660   XZ=              0.0000   YZ=              0.0000

 1\1\GINC-NODE29\SP\RB2PLYPD3-FC\def2QZVP\H2O1\BOITTIER\26-Aug-2020\0\\
 #p B2PLYPD3/Def2QZVP\\h2o\\0,1\O,0,-5.326605,-0.76758,0.929034\H,0,-4.
 368927,-0.626194,0.870717\H,0,-5.609308,0.091524,0.669905\\Version=ES6
 4L-G09RevD.01\State=1-A'\HF=-76.3335229\MP2=-76.4236219\RMSD=5.158e-09
 \PG=CS [SG(H2O1)]\\@

 ERWIN WITH HIS PSI CAN DO

 Normal termination of Gaussian 09 at Wed Aug 26 09:02:19 2020.
