 Gaussian 09, Revision D.01,
 Gaussian 09:  ES64L-G09RevD.01 24-Apr-2013

 --------------------
 #p B2PLYPD3/Def2QZVP
 --------------------

 ---
 h2o
 ---
 Symbolic Z-matrix:
 Charge =  0 Multiplicity = 1

                         Standard orientation:
 ---------------------------------------------------------------------
 Center     Atomic      Atomic             Coordinates (Angstroms)
 Number     Number       Type             X           Y           Z
 ---------------------------------------------------------------------
      1          8           0        0.000000    0.122259    0.000000
      2          1           0        0.798725   -0.407336    0.000000
      3          1           0       -0.798725   -0.570740    0.000000
 ---------------------------------------------------------------------

 SCF Done:  E(RB2PLYPD3) =  -76.3258058382     A.U. after   10 cycles
 E2(B2PLYPD3) =    -0.9161908673D-01 E(B2PLYPD3) =    -0.76417424924918D+02

 The electronic state is 1-A'.
 Alpha  occ. eigenvalues --  -19.73797  -1.13627  -0.59284  -0.46616  -0.39566
 Alpha virt. eigenvalues --    0.03822   0.09720   0.27727   0.29302   0.30521
 Alpha virt. eigenvalues --    0.34204   0.42919   0.49955   0.55409   0.62081
 Alpha virt. eigenvalues --    0.66662   0.79686   0.91254   0.96830   1.00553

 Mulliken charges:
               1
     1  O   -0.473489
     2  H    0.219986
     3  H    0.253504
 Sum of Mulliken charges =   0.00000

 Dipole moment (field-independent basis, Debye):
    X=              0.0496    Y=             -1.9809    Z=              0.0000  Tot=              1.9816
 Quadrupole moment (field-independent basis, Debye-Ang):
   XX=             -4.2085   YY=             -6.3464   ZZ=             -7.7029
   XY=              0.2778   XZ=              0.0000   YZ=              0.0000

 1\1\GINC-NODE38\SP\RB2PLYPD3-FC\def2QZVP\H2O1\BOITTIER\26-Aug-2020\0\\
 #p B2PLYPD3/Def2QZVP\\h2o\\0,1\O,0,-5.326605,-0.768119,0.919092\H,0,-4
 .368927,-0.762272,0.954467\H,0,-5.609308,0.236215,0.747042\\Version=ES
 64L-G09RevD.01\State=1-A'\HF=-76.3258058\MP2=-76.4174249\RMSD=6.651e-0
 9\PG=CS [SG(H2O1)]\\@

 BE LIKE A POSTAGE STAMP.  STICK TO ONE THING UNTIL

 Normal termination of Gaussian 09 at Wed Aug 26 09:21:23 2020.
