 Gaussian 09, Revision D.01,
 Gaussian 09:  ES64L-G09RevD.01 24-Apr-2013

 --------------------
 #p B2PLYPD3/Def2QZVP
 --------------------

 ---
 h2o
 ---
 Symbolic Z-matrix:
 Charge =  0 Multiplicity = 1

                         Standard orientation:
 ---------------------------------------------------------------------
 Center     Atomic      Atomic             Coordinates (Angstroms)
 Number     Number       Type             X           Y           Z
 ---------------------------------------------------------------------
      1          8           0        0.000000    0.116459    0.000000
      2          1           0        0.756388   -0.473905    0.000000
      3          1           0       -0.756388   -0.457764    0.000000
 ---------------------------------------------------------------------

 SCF Done:  E(RB2PLYPD3) =  -76.3351948716     A.U. after   10 cycles
 E2(B2PLYPD3) =    -0.8985397009D-01 E(B2PLYPD3) =    -0.76425048841681D+02

 The electronic state is 1-A'.
 Alpha  occ. eigenvalues --  -19.73057  -1.15864  -0.61498  -0.47486  -0.39997
 Alpha virt. eigenvalues --    0.04585   0.10245   0.27484   0.30402   0.31083
 Alpha virt. eigenvalues --    0.36063   0.44093   0.50327   0.56285   0.62269
 Alpha virt. eigenvalues --    0.65524   0.81251   0.93934   0.95852   1.04188

 Mulliken charges:
               1
     1  O   -0.440138
     2  H    0.222321
     3  H    0.217817
 Sum of Mulliken charges =   0.00000

 Dipole moment (field-independent basis, Debye):
    X=             -0.0050    Y=             -1.9556    Z=              0.0000  Tot=              1.9556
 Quadrupole moment (field-independent basis, Debye-Ang):
   XX=             -4.3390   YY=             -6.3284   ZZ=             -7.5843
   XY=             -0.0265   XZ=              0.0000   YZ=              0.0000

 1\1\GINC-NODE39\SP\RB2PLYPD3-FC\def2QZVP\H2O1\BOITTIER\26-Aug-2020\0\\
 #p B2PLYPD3/Def2QZVP\\h2o\\0,1\O,0,-5.326605,-0.762947,0.925017\H,0,-4
 .368927,-0.731454,0.874888\H,0,-5.609308,0.122654,0.730996\\Version=ES
 64L-G09RevD.01\State=1-A'\HF=-76.3351949\MP2=-76.4250488\RMSD=4.147e-0
 9\PG=CS [SG(H2O1)]\\@

 CHRISTMAS IS ON TOP OF A STEEP HILL.

 Normal termination of Gaussian 09 at Wed Aug 26 08:30:36 2020.
