 Gaussian 09, Revision D.01,
 Gaussian 09:  ES64L-G09RevD.01 24-Apr-2013

 --------------------
 #p B2PLYPD3/Def2QZVP
 --------------------

 ---
 h2o
 ---
 Symbolic Z-matrix:
 Charge =  0 Multiplicity = 1

                         Standard orientation:
 ---------------------------------------------------------------------
 Center     Atomic      Atomic             Coordinates (Angstroms)
 Number     Number       Type             X           Y           Z
 ---------------------------------------------------------------------
      1          8           0        0.000000    0.125679    0.000000
      2          1           0        0.757830   -0.468373    0.000000
      3          1           0       -0.757830   -0.537058    0.000000
 ---------------------------------------------------------------------

 SCF Done:  E(RB2PLYPD3) =  -76.3319025587     A.U. after   10 cycles
 E2(B2PLYPD3) =    -0.9100219660D-01 E(B2PLYPD3) =    -0.76422904755263D+02

 The electronic state is 1-A'.
 Alpha  occ. eigenvalues --  -19.73694  -1.14791  -0.59402  -0.47852  -0.39854
 Alpha virt. eigenvalues --    0.04138   0.10016   0.27750   0.29946   0.30456
 Alpha virt. eigenvalues --    0.35402   0.43345   0.49348   0.56500   0.60854
 Alpha virt. eigenvalues --    0.66326   0.80709   0.93301   0.96425   1.01275

 Mulliken charges:
               1
     1  O   -0.452102
     2  H    0.217843
     3  H    0.234259
 Sum of Mulliken charges =   0.00000

 Dipole moment (field-independent basis, Debye):
    X=              0.0243    Y=             -2.0391    Z=              0.0000  Tot=              2.0393
 Quadrupole moment (field-independent basis, Debye-Ang):
   XX=             -4.4608   YY=             -6.2147   ZZ=             -7.6447
   XY=              0.1076   XZ=              0.0000   YZ=              0.0000

 1\1\GINC-NODE09\SP\RB2PLYPD3-FC\def2QZVP\H2O1\BOITTIER\26-Aug-2020\0\\
 #p B2PLYPD3/Def2QZVP\\h2o\\0,1\O,0,-5.326605,-0.767999,0.929725\H,0,-4
 .368927,-0.688535,0.868543\H,0,-5.609308,0.16057,0.662582\\Version=ES6
 4L-G09RevD.01\State=1-A'\HF=-76.3319026\MP2=-76.4229048\RMSD=4.816e-09
 \PG=CS [SG(H2O1)]\\@

                                                                                    A

 Normal termination of Gaussian 09 at Wed Aug 26 08:36:27 2020.
