 Gaussian 09, Revision D.01,
 Gaussian 09:  ES64L-G09RevD.01 24-Apr-2013

 --------------------
 #p B2PLYPD3/Def2QZVP
 --------------------

 ---
 h2o
 ---
 Symbolic Z-matrix:
 Charge =  0 Multiplicity = 1

                         Standard orientation:
 ---------------------------------------------------------------------
 Center     Atomic      Atomic             Coordinates (Angstroms)
 Number     Number       Type             X           Y           Z
 ---------------------------------------------------------------------
      1          8           0        0.000000    0.116512    0.000000
      2          1           0        0.788818   -0.427651    0.000000
      3          1           0       -0.788818   -0.504444    0.000000
 ---------------------------------------------------------------------

 SCF Done:  E(RB2PLYPD3) =  -76.3324254640     A.U. after   10 cycles
 E2(B2PLYPD3) =    -0.9066116281D-01 E(B2PLYPD3) =    -0.76423086626777D+02

 The electronic state is 1-A'.
 Alpha  occ. eigenvalues --  -19.73360  -1.14519  -0.60715  -0.46681  -0.39718
 Alpha virt. eigenvalues --    0.04292   0.09953   0.27592   0.30475   0.30628
 Alpha virt. eigenvalues --    0.34620   0.43402   0.50567   0.55581   0.62768
 Alpha virt. eigenvalues --    0.66106   0.80327   0.92737   0.96448   1.02501

 Mulliken charges:
               1
     1  O   -0.464399
     2  H    0.223143
     3  H    0.241256
 Sum of Mulliken charges =   0.00000

 Dipole moment (field-independent basis, Debye):
    X=              0.0218    Y=             -1.9361    Z=              0.0000  Tot=              1.9363
 Quadrupole moment (field-independent basis, Debye-Ang):
   XX=             -4.1793   YY=             -6.4081   ZZ=             -7.6488
   XY=              0.1325   XZ=              0.0000   YZ=              0.0000

 1\1\GINC-NODE21\SP\RB2PLYPD3-FC\def2QZVP\H2O1\BOITTIER\26-Aug-2020\0\\
 #p B2PLYPD3/Def2QZVP\\h2o\\0,1\O,0,-5.326605,-0.764486,0.916811\H,0,-4
 .368927,-0.774216,0.95005\H,0,-5.609308,0.190037,0.787253\\Version=ES6
 4L-G09RevD.01\State=1-A'\HF=-76.3324255\MP2=-76.4230866\RMSD=4.834e-09
 \PG=CS [SG(H2O1)]\\@

 FOR THE NATURE OF THE CHEMICAL BOND

 Normal termination of Gaussian 09 at Wed Aug 26 11:28:16 2020.
