 Gaussian 09, Revision D.01,
 Gaussian 09:  ES64L-G09RevD.01 24-Apr-2013

 --------------------
 #p B2PLYPD3/Def2QZVP
 --------------------

 ---
 h2o
 ---
 Symbolic Z-matrix:
 Charge =  0 Multiplicity = 1

                         Standard orientation:
 ---------------------------------------------------------------------
 Center     Atomic      Atomic             Coordinates (Angstroms)
 Number     Number       Type             X           Y           Z
 ---------------------------------------------------------------------
      1          8           0        0.000000    0.116134    0.000000
      2          1           0        0.746082   -0.487085    0.000000
      3          1           0       -0.746082   -0.441987    0.000000
 ---------------------------------------------------------------------

 SCF Done:  E(RB2PLYPD3) =  -76.3347825719     A.U. after   10 cycles
 E2(B2PLYPD3) =    -0.8957887775D-01 E(B2PLYPD3) =    -0.76424361449697D+02

 The electronic state is 1-A'.
 Alpha  occ. eigenvalues --  -19.72931  -1.16358  -0.61808  -0.47715  -0.40091
 Alpha virt. eigenvalues --    0.04663   0.10339   0.27429   0.30377   0.31166
 Alpha virt. eigenvalues --    0.36567   0.44379   0.50303   0.56475   0.62174
 Alpha virt. eigenvalues --    0.65303   0.81494   0.94188   0.95666   1.04617

 Mulliken charges:
               1
     1  O   -0.430934
     2  H    0.222144
     3  H    0.208791
 Sum of Mulliken charges =   0.00000

 Dipole moment (field-independent basis, Debye):
    X=             -0.0142    Y=             -1.9583    Z=              0.0000  Tot=              1.9584
 Quadrupole moment (field-independent basis, Debye-Ang):
   XX=             -4.3839   YY=             -6.3040   ZZ=             -7.5624
   XY=             -0.0730   XZ=              0.0000   YZ=              0.0000

 1\1\GINC-NODE20\SP\RB2PLYPD3-FC\def2QZVP\H2O1\BOITTIER\26-Aug-2020\0\\
 #p B2PLYPD3/Def2QZVP\\h2o\\0,1\O,0,-5.326605,-0.76342,0.922004\H,0,-4.
 368927,-0.709163,0.901485\H,0,-5.609308,0.107925,0.751787\\Version=ES6
 4L-G09RevD.01\State=1-A'\HF=-76.3347826\MP2=-76.4243614\RMSD=4.691e-09
 \PG=CS [SG(H2O1)]\\@

 MY GROUP MEETINGS AREN'T VERY STRUCTURED.

 Normal termination of Gaussian 09 at Wed Aug 26 09:53:09 2020.
