 Gaussian 09, Revision D.01,
 Gaussian 09:  ES64L-G09RevD.01 24-Apr-2013

 --------------------
 #p B2PLYPD3/Def2QZVP
 --------------------

 ---
 h2o
 ---
 Symbolic Z-matrix:
 Charge =  0 Multiplicity = 1

                         Standard orientation:
 ---------------------------------------------------------------------
 Center     Atomic      Atomic             Coordinates (Angstroms)
 Number     Number       Type             X           Y           Z
 ---------------------------------------------------------------------
      1          8           0        0.000000    0.111761    0.000000
      2          1           0        0.772644   -0.461785    0.000000
      3          1           0       -0.772644   -0.432301    0.000000
 ---------------------------------------------------------------------

 SCF Done:  E(RB2PLYPD3) =  -76.3349478061     A.U. after   10 cycles
 E2(B2PLYPD3) =    -0.8973304443D-01 E(B2PLYPD3) =    -0.76424680850527D+02

 The electronic state is 1-A'.
 Alpha  occ. eigenvalues --  -19.72897  -1.15670  -0.62170  -0.46849  -0.39922
 Alpha virt. eigenvalues --    0.04654   0.10193   0.27424   0.30410   0.31426
 Alpha virt. eigenvalues --    0.35515   0.44109   0.51033   0.55782   0.63320
 Alpha virt. eigenvalues --    0.65427   0.81019   0.93657   0.95946   1.04941

 Mulliken charges:
               1
     1  O   -0.446806
     2  H    0.227446
     3  H    0.219360
 Sum of Mulliken charges =   0.00000

 Dipole moment (field-independent basis, Debye):
    X=             -0.0081    Y=             -1.9007    Z=              0.0000  Tot=              1.9007
 Quadrupole moment (field-independent basis, Debye-Ang):
   XX=             -4.1958   YY=             -6.4271   ZZ=             -7.5887
   XY=             -0.0509   XZ=              0.0000   YZ=              0.0000

 1\1\GINC-NODE36\SP\RB2PLYPD3-FC\def2QZVP\H2O1\BOITTIER\26-Aug-2020\0\\
 #p B2PLYPD3/Def2QZVP\\h2o\\0,1\O,0,-5.326605,-0.761367,0.907955\H,0,-4
 .368927,-0.773865,1.000857\H,0,-5.609308,0.139779,0.876381\\Version=ES
 64L-G09RevD.01\State=1-A'\HF=-76.3349478\MP2=-76.4246809\RMSD=4.060e-0
 9\PG=CS [SG(H2O1)]\\@

 REALITY IS FOR PEOPLE WHO CAN'T FACE SCIENCE FICTION.

 Normal termination of Gaussian 09 at Wed Aug 26 09:20:45 2020.
