 Gaussian 09, Revision D.01,
 Gaussian 09:  ES64L-G09RevD.01 24-Apr-2013

 --------------------
 #p B2PLYPD3/Def2QZVP
 --------------------

 ---
 h2o
 ---
 Symbolic Z-matrix:
 Charge =  0 Multiplicity = 1

                         Standard orientation:
 ---------------------------------------------------------------------
 Center     Atomic      Atomic             Coordinates (Angstroms)
 Number     Number       Type             X           Y           Z
 ---------------------------------------------------------------------
      1          8           0        0.000000    0.118380    0.000000
      2          1           0        0.744581   -0.488689    0.000000
      3          1           0       -0.744581   -0.458350    0.000000
 ---------------------------------------------------------------------

 SCF Done:  E(RB2PLYPD3) =  -76.3349371521     A.U. after   10 cycles
 E2(B2PLYPD3) =    -0.8979961423D-01 E(B2PLYPD3) =    -0.76424736766362D+02

 The electronic state is 1-A'.
 Alpha  occ. eigenvalues --  -19.73074  -1.16162  -0.61316  -0.47868  -0.40070
 Alpha virt. eigenvalues --    0.04582   0.10308   0.27489   0.30388   0.30970
 Alpha virt. eigenvalues --    0.36502   0.44206   0.50045   0.56592   0.61777
 Alpha virt. eigenvalues --    0.65474   0.81411   0.94199   0.95755   1.04047

 Mulliken charges:
               1
     1  O   -0.433537
     2  H    0.221142
     3  H    0.212395
 Sum of Mulliken charges =   0.00000

 Dipole moment (field-independent basis, Debye):
    X=             -0.0100    Y=             -1.9805    Z=              0.0000  Tot=              1.9805
 Quadrupole moment (field-independent basis, Debye-Ang):
   XX=             -4.4220   YY=             -6.2738   ZZ=             -7.5734
   XY=             -0.0484   XZ=              0.0000   YZ=              0.0000

 1\1\GINC-NODE40\SP\RB2PLYPD3-FC\def2QZVP\H2O1\BOITTIER\26-Aug-2020\0\\
 #p B2PLYPD3/Def2QZVP\\h2o\\0,1\O,0,-5.326605,-0.765243,0.920555\H,0,-4
 .368927,-0.689257,0.92412\H,0,-5.609308,0.117193,0.75202\\Version=ES64
 L-G09RevD.01\State=1-A'\HF=-76.3349372\MP2=-76.4247368\RMSD=4.498e-09\
 PG=CS [SG(H2O1)]\\@

 EXPERIENCE IS THE FRUIT OF THE TREE OF ERRORS.

 Normal termination of Gaussian 09 at Wed Aug 26 12:41:45 2020.
