 Gaussian 09, Revision D.01,
 Gaussian 09:  ES64L-G09RevD.01 24-Apr-2013

 --------------------
 #p B2PLYPD3/Def2QZVP
 --------------------

 ---
 h2o
 ---
 Symbolic Z-matrix:
 Charge =  0 Multiplicity = 1

                         Standard orientation:
 ---------------------------------------------------------------------
 Center     Atomic      Atomic             Coordinates (Angstroms)
 Number     Number       Type             X           Y           Z
 ---------------------------------------------------------------------
      1          8           0        0.000000    0.116822    0.000000
      2          1           0        0.759642   -0.467808    0.000000
      3          1           0       -0.759642   -0.466772    0.000000
 ---------------------------------------------------------------------

 SCF Done:  E(RB2PLYPD3) =  -76.3351557593     A.U. after   10 cycles
 E2(B2PLYPD3) =    -0.8997195358D-01 E(B2PLYPD3) =    -0.76425127712902D+02

 The electronic state is 1-A'.
 Alpha  occ. eigenvalues --  -19.73114  -1.15683  -0.61341  -0.47425  -0.39964
 Alpha virt. eigenvalues --    0.04547   0.10209   0.27508   0.30412   0.31022
 Alpha virt. eigenvalues --    0.35889   0.43985   0.50306   0.56231   0.62256
 Alpha virt. eigenvalues --    0.65616   0.81155   0.93829   0.95927   1.03947

 Mulliken charges:
               1
     1  O   -0.443275
     2  H    0.221779
     3  H    0.221496
 Sum of Mulliken charges =   0.00000

 Dipole moment (field-independent basis, Debye):
    X=             -0.0003    Y=             -1.9571    Z=              0.0000  Tot=              1.9571
 Quadrupole moment (field-independent basis, Debye-Ang):
   XX=             -4.3282   YY=             -6.3327   ZZ=             -7.5929
   XY=             -0.0017   XZ=              0.0000   YZ=              0.0000

 1\1\GINC-NODE02\SP\RB2PLYPD3-FC\def2QZVP\H2O1\BOITTIER\26-Aug-2020\0\\
 #p B2PLYPD3/Def2QZVP\\h2o\\0,1\O,0,-5.326605,-0.764372,0.91935\H,0,-4.
 368927,-0.724173,0.928635\H,0,-5.609308,0.138169,0.767239\\Version=ES6
 4L-G09RevD.01\State=1-A'\HF=-76.3351558\MP2=-76.4251277\RMSD=4.043e-09
 \PG=CS [SG(H2O1)]\\@

 NOTHING RESEMBLES A NEW PHENOMENON AS MUCH AS A MISTAKE.

 Normal termination of Gaussian 09 at Wed Aug 26 09:43:53 2020.
