 Gaussian 09, Revision D.01,
 Gaussian 09:  ES64L-G09RevD.01 24-Apr-2013

 --------------------
 #p B2PLYPD3/Def2QZVP
 --------------------

 ---
 h2o
 ---
 Symbolic Z-matrix:
 Charge =  0 Multiplicity = 1

                         Standard orientation:
 ---------------------------------------------------------------------
 Center     Atomic      Atomic             Coordinates (Angstroms)
 Number     Number       Type             X           Y           Z
 ---------------------------------------------------------------------
      1          8           0        0.000000    0.113753    0.000000
      2          1           0        0.788008   -0.431306    0.000000
      3          1           0       -0.788008   -0.478718    0.000000
 ---------------------------------------------------------------------

 SCF Done:  E(RB2PLYPD3) =  -76.3337195975     A.U. after   10 cycles
 E2(B2PLYPD3) =    -0.9032924686D-01 E(B2PLYPD3) =    -0.76424048844357D+02

 The electronic state is 1-A'.
 Alpha  occ. eigenvalues --  -19.73175  -1.14818  -0.61332  -0.46580  -0.39760
 Alpha virt. eigenvalues --    0.04436   0.10019   0.27525   0.30458   0.31045
 Alpha virt. eigenvalues --    0.34731   0.43604   0.50911   0.55532   0.63206
 Alpha virt. eigenvalues --    0.65880   0.80472   0.93053   0.96321   1.03526

 Mulliken charges:
               1
     1  O   -0.461514
     2  H    0.224916
     3  H    0.236598
 Sum of Mulliken charges =   0.00000

 Dipole moment (field-independent basis, Debye):
    X=              0.0129    Y=             -1.9107    Z=              0.0000  Tot=              1.9107
 Quadrupole moment (field-independent basis, Debye-Ang):
   XX=             -4.1458   YY=             -6.4425   ZZ=             -7.6311
   XY=              0.0828   XZ=              0.0000   YZ=              0.0000

 1\1\GINC-NODE09\SP\RB2PLYPD3-FC\def2QZVP\H2O1\BOITTIER\26-Aug-2020\0\\
 #p B2PLYPD3/Def2QZVP\\h2o\\0,1\O,0,-5.326605,-0.762467,0.917824\H,0,-4
 .368927,-0.79003,0.92961\H,0,-5.609308,0.173551,0.791615\\Version=ES64
 L-G09RevD.01\State=1-A'\HF=-76.3337196\MP2=-76.4240488\RMSD=4.216e-09\
 PG=CS [SG(H2O1)]\\@

 IF AT FIRST YOU DON'T SUCCEED, TRY, TRY AGAIN.

 Normal termination of Gaussian 09 at Wed Aug 26 08:30:15 2020.
