 Gaussian 09, Revision D.01,
 Gaussian 09:  ES64L-G09RevD.01 24-Apr-2013

 --------------------
 #p B2PLYPD3/Def2QZVP
 --------------------

 ---
 h2o
 ---
 Symbolic Z-matrix:
 Charge =  0 Multiplicity = 1

                         Standard orientation:
 ---------------------------------------------------------------------
 Center     Atomic      Atomic             Coordinates (Angstroms)
 Number     Number       Type             X           Y           Z
 ---------------------------------------------------------------------
      1          8           0        0.000000    0.115404    0.000000
      2          1           0        0.739673   -0.497129    0.000000
      3          1           0       -0.739673   -0.426100    0.000000
 ---------------------------------------------------------------------

 SCF Done:  E(RB2PLYPD3) =  -76.3338582973     A.U. after   10 cycles
 E2(B2PLYPD3) =    -0.8935439964D-01 E(B2PLYPD3) =    -0.76423212696950D+02

 The electronic state is 1-A'.
 Alpha  occ. eigenvalues --  -19.72812  -1.16740  -0.62123  -0.47821  -0.40157
 Alpha virt. eigenvalues --    0.04722   0.10405   0.27375   0.30358   0.31236
 Alpha virt. eigenvalues --    0.36900   0.44627   0.50351   0.56560   0.62211
 Alpha virt. eigenvalues --    0.65115   0.81653   0.94284   0.95550   1.04908

 Mulliken charges:
               1
     1  O   -0.423680
     2  H    0.222843
     3  H    0.200838
 Sum of Mulliken charges =   0.00000

 Dipole moment (field-independent basis, Debye):
    X=             -0.0225    Y=             -1.9547    Z=              0.0000  Tot=              1.9548
 Quadrupole moment (field-independent basis, Debye-Ang):
   XX=             -4.4041   YY=             -6.2936   ZZ=             -7.5457
   XY=             -0.1143   XZ=              0.0000   YZ=              0.0000

 1\1\GINC-NODE16\SP\RB2PLYPD3-FC\def2QZVP\H2O1\BOITTIER\26-Aug-2020\0\\
 #p B2PLYPD3/Def2QZVP\\h2o\\0,1\O,0,-5.326605,-0.762406,0.92419\H,0,-4.
 368927,-0.707514,0.877805\H,0,-5.609308,0.090061,0.740558\\Version=ES6
 4L-G09RevD.01\State=1-A'\HF=-76.3338583\MP2=-76.4232127\RMSD=5.354e-09
 \PG=CS [SG(H2O1)]\\@

 DEFINE YOUR TERMS, YOU WILL PERMIT ME AGAIN TO SAY,

 Normal termination of Gaussian 09 at Wed Aug 26 12:47:22 2020.
