 Gaussian 09, Revision D.01,
 Gaussian 09:  ES64L-G09RevD.01 24-Apr-2013

 --------------------
 #p B2PLYPD3/Def2QZVP
 --------------------

 ---
 h2o
 ---
 Symbolic Z-matrix:
 Charge =  0 Multiplicity = 1

                         Standard orientation:
 ---------------------------------------------------------------------
 Center     Atomic      Atomic             Coordinates (Angstroms)
 Number     Number       Type             X           Y           Z
 ---------------------------------------------------------------------
      1          8           0        0.000000    0.117470    0.000000
      2          1           0        0.756964   -0.471414    0.000000
      3          1           0       -0.756964   -0.468346    0.000000
 ---------------------------------------------------------------------

 SCF Done:  E(RB2PLYPD3) =  -76.3351386625     A.U. after   10 cycles
 E2(B2PLYPD3) =    -0.8998235007D-01 E(B2PLYPD3) =    -0.76425121012593D+02

 The electronic state is 1-A'.
 Alpha  occ. eigenvalues --  -19.73133  -1.15726  -0.61254  -0.47523  -0.39978
 Alpha virt. eigenvalues --    0.04539   0.10219   0.27515   0.30410   0.30977
 Alpha virt. eigenvalues --    0.35978   0.43992   0.50214   0.56309   0.62109
 Alpha virt. eigenvalues --    0.65624   0.81188   0.93885   0.95914   1.03853

 Mulliken charges:
               1
     1  O   -0.442076
     2  H    0.221458
     3  H    0.220618
 Sum of Mulliken charges =   0.00000

 Dipole moment (field-independent basis, Debye):
    X=             -0.0010    Y=             -1.9648    Z=              0.0000  Tot=              1.9648
 Quadrupole moment (field-independent basis, Debye-Ang):
   XX=             -4.3501   YY=             -6.3179   ZZ=             -7.5916
   XY=             -0.0050   XZ=              0.0000   YZ=              0.0000

 1\1\GINC-NODE33\SP\RB2PLYPD3-FC\def2QZVP\H2O1\BOITTIER\26-Aug-2020\0\\
 #p B2PLYPD3/Def2QZVP\\h2o\\0,1\O,0,-5.326605,-0.764832,0.919242\H,0,-4
 .368927,-0.715213,0.932264\H,0,-5.609308,0.136572,0.765215\\Version=ES
 64L-G09RevD.01\State=1-A'\HF=-76.3351387\MP2=-76.425121\RMSD=4.096e-09
 \PG=CS [SG(H2O1)]\\@

 THE ... SCIENTISTS WERE WRONG ... THE MOST PERSISTENT PRINCIPLES

 Normal termination of Gaussian 09 at Wed Aug 26 10:16:24 2020.
