 Gaussian 09, Revision D.01,
 Gaussian 09:  ES64L-G09RevD.01 24-Apr-2013

 --------------------
 #p B2PLYPD3/Def2QZVP
 --------------------

 ---
 h2o
 ---
 Symbolic Z-matrix:
 Charge =  0 Multiplicity = 1

                         Standard orientation:
 ---------------------------------------------------------------------
 Center     Atomic      Atomic             Coordinates (Angstroms)
 Number     Number       Type             X           Y           Z
 ---------------------------------------------------------------------
      1          8           0        0.000000    0.128225    0.000000
      2          1           0        0.748990   -0.484059    0.000000
      3          1           0       -0.748990   -0.541742    0.000000
 ---------------------------------------------------------------------

 SCF Done:  E(RB2PLYPD3) =  -76.3315360148     A.U. after   10 cycles
 E2(B2PLYPD3) =    -0.9112234948D-01 E(B2PLYPD3) =    -0.76422658364261D+02

 The electronic state is 1-A'.
 Alpha  occ. eigenvalues --  -19.73791  -1.14850  -0.59003  -0.48184  -0.39889
 Alpha virt. eigenvalues --    0.04090   0.10029   0.27799   0.29786   0.30451
 Alpha virt. eigenvalues --    0.35550   0.43305   0.49091   0.56769   0.60336
 Alpha virt. eigenvalues --    0.66390   0.80753   0.93574   0.96444   1.00960

 Mulliken charges:
               1
     1  O   -0.449360
     2  H    0.217780
     3  H    0.231580
 Sum of Mulliken charges =   0.00000

 Dipole moment (field-independent basis, Debye):
    X=              0.0215    Y=             -2.0671    Z=              0.0000  Tot=              2.0672
 Quadrupole moment (field-independent basis, Debye-Ang):
   XX=             -4.5400   YY=             -6.1607   ZZ=             -7.6446
   XY=              0.0878   XZ=              0.0000   YZ=              0.0000

 1\1\GINC-NODE21\SP\RB2PLYPD3-FC\def2QZVP\H2O1\BOITTIER\26-Aug-2020\0\\
 #p B2PLYPD3/Def2QZVP\\h2o\\0,1\O,0,-5.326605,-0.768394,0.93358\H,0,-4.
 368927,-0.668343,0.840195\H,0,-5.609308,0.146694,0.629385\\Version=ES6
 4L-G09RevD.01\State=1-A'\HF=-76.331536\MP2=-76.4226584\RMSD=4.792e-09\
 PG=CS [SG(H2O1)]\\@

 IF I AM NOT FOR MYSELF, WHO WILL BE?

 Normal termination of Gaussian 09 at Wed Aug 26 08:38:53 2020.
