 Gaussian 09, Revision D.01,
 Gaussian 09:  ES64L-G09RevD.01 24-Apr-2013

 --------------------
 #p B2PLYPD3/Def2QZVP
 --------------------

 ---
 h2o
 ---
 Symbolic Z-matrix:
 Charge =  0 Multiplicity = 1

                         Standard orientation:
 ---------------------------------------------------------------------
 Center     Atomic      Atomic             Coordinates (Angstroms)
 Number     Number       Type             X           Y           Z
 ---------------------------------------------------------------------
      1          8           0        0.000000    0.118540    0.000000
      2          1           0        0.769555   -0.455575    0.000000
      3          1           0       -0.769555   -0.492747    0.000000
 ---------------------------------------------------------------------

 SCF Done:  E(RB2PLYPD3) =  -76.3341779129     A.U. after   10 cycles
 E2(B2PLYPD3) =    -0.9040938780D-01 E(B2PLYPD3) =    -0.76424587300673D+02

 The electronic state is 1-A'.
 Alpha  occ. eigenvalues --  -19.73323  -1.15083  -0.60729  -0.47261  -0.39856
 Alpha virt. eigenvalues --    0.04389   0.10084   0.27590   0.30443   0.30712
 Alpha virt. eigenvalues --    0.35338   0.43634   0.50171   0.56071   0.62129
 Alpha virt. eigenvalues --    0.65940   0.80815   0.93389   0.96195   1.02910

 Mulliken charges:
               1
     1  O   -0.452815
     2  H    0.221713
     3  H    0.231102
 Sum of Mulliken charges =   0.00000

 Dipole moment (field-independent basis, Debye):
    X=              0.0115    Y=             -1.9673    Z=              0.0000  Tot=              1.9673
 Quadrupole moment (field-independent basis, Debye-Ang):
   XX=             -4.3035   YY=             -6.3365   ZZ=             -7.6226
   XY=              0.0616   XZ=              0.0000   YZ=              0.0000

 1\1\GINC-NODE19\SP\RB2PLYPD3-FC\def2QZVP\H2O1\BOITTIER\26-Aug-2020\0\\
 #p B2PLYPD3/Def2QZVP\\h2o\\0,1\O,0,-5.326605,-0.765998,0.915249\H,0,-4
 .368927,-0.726872,0.971332\H,0,-5.609308,0.166884,0.78996\\Version=ES6
 4L-G09RevD.01\State=1-A'\HF=-76.3341779\MP2=-76.4245873\RMSD=4.206e-09
 \PG=CS [SG(H2O1)]\\@

 ... A MOLECULAR SYSTEM ... (PASSES) ... FROM ONE STATE OF EQUILIBRIUM

 Normal termination of Gaussian 09 at Wed Aug 26 08:30:07 2020.
