 Gaussian 09, Revision D.01,
 Gaussian 09:  ES64L-G09RevD.01 24-Apr-2013

 --------------------
 #p B2PLYPD3/Def2QZVP
 --------------------

 ---
 h2o
 ---
 Symbolic Z-matrix:
 Charge =  0 Multiplicity = 1

                         Standard orientation:
 ---------------------------------------------------------------------
 Center     Atomic      Atomic             Coordinates (Angstroms)
 Number     Number       Type             X           Y           Z
 ---------------------------------------------------------------------
      1          8           0        0.000000    0.113547    0.000000
      2          1           0        0.719855   -0.526145    0.000000
      3          1           0       -0.719855   -0.382230    0.000000
 ---------------------------------------------------------------------

 SCF Done:  E(RB2PLYPD3) =  -76.3277956165     A.U. after   10 cycles
 E2(B2PLYPD3) =    -0.8873181802D-01 E(B2PLYPD3) =    -0.76416527434538D+02

 The electronic state is 1-A'.
 Alpha  occ. eigenvalues --  -19.72455  -1.17939  -0.63011  -0.48140  -0.40357
 Alpha virt. eigenvalues --    0.04854   0.10590   0.27197   0.30302   0.31323
 Alpha virt. eigenvalues --    0.37790   0.45438   0.50471   0.56781   0.62286
 Alpha virt. eigenvalues --    0.64580   0.82051   0.94244   0.95382   1.05328

 Mulliken charges:
               1
     1  O   -0.398234
     2  H    0.224646
     3  H    0.173588
 Sum of Mulliken charges =   0.00000

 Dipole moment (field-independent basis, Debye):
    X=             -0.0464    Y=             -1.9465    Z=              0.0000  Tot=              1.9471
 Quadrupole moment (field-independent basis, Debye-Ang):
   XX=             -4.4697   YY=             -6.2514   ZZ=             -7.4968
   XY=             -0.2267   XZ=              0.0000   YZ=              0.0000

 1\1\GINC-NODE04\SP\RB2PLYPD3-FC\def2QZVP\H2O1\BOITTIER\26-Aug-2020\0\\
 #p B2PLYPD3/Def2QZVP\\h2o\\0,1\O,0,-5.326605,-0.760581,0.925973\H,0,-4
 .368927,-0.691346,0.852108\H,0,-5.609308,0.04469,0.737284\\Version=ES6
 4L-G09RevD.01\State=1-A'\HF=-76.3277956\MP2=-76.4165274\RMSD=6.750e-09
 \PG=CS [SG(H2O1)]\\@

 LOGIC IS A SYSTEMATIC METHOD OF COMING TO THE

 Normal termination of Gaussian 09 at Wed Aug 26 09:29:39 2020.
