 Gaussian 09, Revision D.01,
 Gaussian 09:  ES64L-G09RevD.01 24-Apr-2013

 --------------------
 #p B2PLYPD3/Def2QZVP
 --------------------

 ---
 h2o
 ---
 Symbolic Z-matrix:
 Charge =  0 Multiplicity = 1

                         Standard orientation:
 ---------------------------------------------------------------------
 Center     Atomic      Atomic             Coordinates (Angstroms)
 Number     Number       Type             X           Y           Z
 ---------------------------------------------------------------------
      1          8           0        0.000000    0.123110    0.000000
      2          1           0        0.723371   -0.520481    0.000000
      3          1           0       -0.723371   -0.464399    0.000000
 ---------------------------------------------------------------------

 SCF Done:  E(RB2PLYPD3) =  -76.3335301864     A.U. after   10 cycles
 E2(B2PLYPD3) =    -0.8989357287D-01 E(B2PLYPD3) =    -0.76423423759227D+02

 The electronic state is 1-A'.
 Alpha  occ. eigenvalues --  -19.73196  -1.16534  -0.60625  -0.48612  -0.40172
 Alpha virt. eigenvalues --    0.04496   0.10391   0.27537   0.30373   0.30625
 Alpha virt. eigenvalues --    0.37100   0.44296   0.49510   0.57174   0.60728
 Alpha virt. eigenvalues --    0.65484   0.81508   0.94642   0.95703   1.03454

 Mulliken charges:
               1
     1  O   -0.424402
     2  H    0.220575
     3  H    0.203826
 Sum of Mulliken charges =   0.00000

 Dipole moment (field-independent basis, Debye):
    X=             -0.0206    Y=             -2.0361    Z=              0.0000  Tot=              2.0362
 Quadrupole moment (field-independent basis, Debye-Ang):
   XX=             -4.5873   YY=             -6.1594   ZZ=             -7.5642
   XY=             -0.0842   XZ=              0.0000   YZ=              0.0000

 1\1\GINC-NODE26\SP\RB2PLYPD3-FC\def2QZVP\H2O1\BOITTIER\26-Aug-2020\0\\
 #p B2PLYPD3/Def2QZVP\\h2o\\0,1\O,0,-5.326605,-0.767663,0.924519\H,0,-4
 .368927,-0.626165,0.907043\H,0,-5.609308,0.092813,0.705219\\Version=ES
 64L-G09RevD.01\State=1-A'\HF=-76.3335302\MP2=-76.4234238\RMSD=5.309e-0
 9\PG=CS [SG(H2O1)]\\@

 ANYONE WHO IS NOT SHOCKED BY QUANTUM THEORY HAS

 Normal termination of Gaussian 09 at Wed Aug 26 09:13:09 2020.
