 Gaussian 09, Revision D.01,
 Gaussian 09:  ES64L-G09RevD.01 24-Apr-2013

 --------------------
 #p B2PLYPD3/Def2QZVP
 --------------------

 ---
 h2o
 ---
 Symbolic Z-matrix:
 Charge =  0 Multiplicity = 1

                         Standard orientation:
 ---------------------------------------------------------------------
 Center     Atomic      Atomic             Coordinates (Angstroms)
 Number     Number       Type             X           Y           Z
 ---------------------------------------------------------------------
      1          8           0        0.000000    0.121788    0.000000
      2          1           0        0.786099   -0.426362    0.000000
      3          1           0       -0.786099   -0.547940    0.000000
 ---------------------------------------------------------------------

 SCF Done:  E(RB2PLYPD3) =  -76.3293941476     A.U. after   10 cycles
 E2(B2PLYPD3) =    -0.9122292121D-01 E(B2PLYPD3) =    -0.76420617068831D+02

 The electronic state is 1-A'.
 Alpha  occ. eigenvalues --  -19.73672  -1.14123  -0.59660  -0.46948  -0.39675
 Alpha virt. eigenvalues --    0.04031   0.09852   0.27711   0.29816   0.30494
 Alpha virt. eigenvalues --    0.34574   0.43137   0.49912   0.55731   0.61918
 Alpha virt. eigenvalues --    0.66452   0.80144   0.92146   0.96647   1.01104

 Mulliken charges:
               1
     1  O   -0.466017
     2  H    0.219601
     3  H    0.246416
 Sum of Mulliken charges =   0.00000

 Dipole moment (field-independent basis, Debye):
    X=              0.0379    Y=             -1.9858    Z=              0.0000  Tot=              1.9862
 Quadrupole moment (field-independent basis, Debye-Ang):
   XX=             -4.2660   YY=             -6.3289   ZZ=             -7.6750
   XY=              0.2033   XZ=              0.0000   YZ=              0.0000

 1\1\GINC-NODE27\SP\RB2PLYPD3-FC\def2QZVP\H2O1\BOITTIER\26-Aug-2020\0\\
 #p B2PLYPD3/Def2QZVP\\h2o\\0,1\O,0,-5.326605,-0.767686,0.919874\H,0,-4
 .368927,-0.742726,0.945341\H,0,-5.609308,0.209741,0.743234\\Version=ES
 64L-G09RevD.01\State=1-A'\HF=-76.3293941\MP2=-76.4206171\RMSD=5.709e-0
 9\PG=CS [SG(H2O1)]\\@

 EXPERIMENTALISTS THINK SILICON IS REALLY FUN TO USE

 Normal termination of Gaussian 09 at Wed Aug 26 08:58:51 2020.
