 Gaussian 09, Revision D.01,
 Gaussian 09:  ES64L-G09RevD.01 24-Apr-2013

 --------------------
 #p B2PLYPD3/Def2QZVP
 --------------------

 ---
 h2o
 ---
 Symbolic Z-matrix:
 Charge =  0 Multiplicity = 1

                         Standard orientation:
 ---------------------------------------------------------------------
 Center     Atomic      Atomic             Coordinates (Angstroms)
 Number     Number       Type             X           Y           Z
 ---------------------------------------------------------------------
      1          8           0        0.000000    0.117232    0.000000
      2          1           0        0.775116   -0.448295    0.000000
      3          1           0       -0.775116   -0.489562    0.000000
 ---------------------------------------------------------------------

 SCF Done:  E(RB2PLYPD3) =  -76.3340708901     A.U. after   10 cycles
 E2(B2PLYPD3) =    -0.9039493573D-01 E(B2PLYPD3) =    -0.76424465825843D+02

 The electronic state is 1-A'.
 Alpha  occ. eigenvalues --  -19.73286  -1.14993  -0.60889  -0.47062  -0.39826
 Alpha virt. eigenvalues --    0.04400   0.10062   0.27573   0.30448   0.30796
 Alpha virt. eigenvalues --    0.35157   0.43618   0.50365   0.55912   0.62428
 Alpha virt. eigenvalues --    0.65928   0.80723   0.93268   0.96228   1.03061

 Mulliken charges:
               1
     1  O   -0.455435
     2  H    0.222552
     3  H    0.232883
 Sum of Mulliken charges =   0.00000

 Dipole moment (field-independent basis, Debye):
    X=              0.0123    Y=             -1.9517    Z=              0.0000  Tot=              1.9517
 Quadrupole moment (field-independent basis, Debye-Ang):
   XX=             -4.2579   YY=             -6.3668   ZZ=             -7.6257
   XY=              0.0695   XZ=              0.0000   YZ=              0.0000

 1\1\GINC-NODE40\SP\RB2PLYPD3-FC\def2QZVP\H2O1\BOITTIER\26-Aug-2020\0\\
 #p B2PLYPD3/Def2QZVP\\h2o\\0,1\O,0,-5.326605,-0.765142,0.914774\H,0,-4
 .368927,-0.744329,0.969961\H,0,-5.609308,0.170648,0.799103\\Version=ES
 64L-G09RevD.01\State=1-A'\HF=-76.3340709\MP2=-76.4244658\RMSD=4.204e-0
 9\PG=CS [SG(H2O1)]\\@

 ABSOLUTISM, OBSOLETISM -- IF IT WORKS, IT'S OUT OF DATE

 Normal termination of Gaussian 09 at Wed Aug 26 11:43:06 2020.
