 Gaussian 09, Revision D.01,
 Gaussian 09:  ES64L-G09RevD.01 24-Apr-2013

 --------------------
 #p B2PLYPD3/Def2QZVP
 --------------------

 ---
 h2o
 ---
 Symbolic Z-matrix:
 Charge =  0 Multiplicity = 1

                         Standard orientation:
 ---------------------------------------------------------------------
 Center     Atomic      Atomic             Coordinates (Angstroms)
 Number     Number       Type             X           Y           Z
 ---------------------------------------------------------------------
      1          8           0        0.000000    0.115012    0.000000
      2          1           0        0.763195   -0.464392    0.000000
      3          1           0       -0.763195   -0.455701    0.000000
 ---------------------------------------------------------------------

 SCF Done:  E(RB2PLYPD3) =  -76.3352169176     A.U. after   10 cycles
 E2(B2PLYPD3) =    -0.8985376703D-01 E(B2PLYPD3) =    -0.76425070684604D+02

 The electronic state is 1-A'.
 Alpha  occ. eigenvalues --  -19.73025  -1.15729  -0.61670  -0.47248  -0.39960
 Alpha virt. eigenvalues --    0.04596   0.10214   0.27472   0.30408   0.31181
 Alpha virt. eigenvalues --    0.35816   0.44056   0.50545   0.56096   0.62614
 Alpha virt. eigenvalues --    0.65525   0.81151   0.93798   0.95901   1.04381

 Mulliken charges:
               1
     1  O   -0.443582
     2  H    0.222987
     3  H    0.220595
 Sum of Mulliken charges =   0.00000

 Dipole moment (field-independent basis, Debye):
    X=             -0.0026    Y=             -1.9378    Z=              0.0000  Tot=              1.9378
 Quadrupole moment (field-independent basis, Debye-Ang):
   XX=             -4.2862   YY=             -6.3639   ZZ=             -7.5889
   XY=             -0.0145   XZ=              0.0000   YZ=              0.0000

 1\1\GINC-NODE29\SP\RB2PLYPD3-FC\def2QZVP\H2O1\BOITTIER\26-Aug-2020\0\\
 #p B2PLYPD3/Def2QZVP\\h2o\\0,1\O,0,-5.326605,-0.76339,0.917347\H,0,-4.
 368927,-0.739346,0.938577\H,0,-5.609308,0.137636,0.789242\\Version=ES6
 4L-G09RevD.01\State=1-A'\HF=-76.3352169\MP2=-76.4250707\RMSD=3.987e-09
 \PG=CS [SG(H2O1)]\\@

 FRICTION IS A DRAG,

 Normal termination of Gaussian 09 at Wed Aug 26 10:41:55 2020.
