 Gaussian 09, Revision D.01,
 Gaussian 09:  ES64L-G09RevD.01 24-Apr-2013

 --------------------
 #p B2PLYPD3/Def2QZVP
 --------------------

 ---
 h2o
 ---
 Symbolic Z-matrix:
 Charge =  0 Multiplicity = 1

                         Standard orientation:
 ---------------------------------------------------------------------
 Center     Atomic      Atomic             Coordinates (Angstroms)
 Number     Number       Type             X           Y           Z
 ---------------------------------------------------------------------
      1          8           0        0.000000    0.119360    0.000000
      2          1           0        0.786993   -0.427982    0.000000
      3          1           0       -0.786993   -0.526895    0.000000
 ---------------------------------------------------------------------

 SCF Done:  E(RB2PLYPD3) =  -76.3310673602     A.U. after   10 cycles
 E2(B2PLYPD3) =    -0.9094878041D-01 E(B2PLYPD3) =    -0.76422016140598D+02

 The electronic state is 1-A'.
 Alpha  occ. eigenvalues --  -19.73526  -1.14317  -0.60151  -0.46841  -0.39698
 Alpha virt. eigenvalues --    0.04162   0.09904   0.27655   0.30218   0.30485
 Alpha virt. eigenvalues --    0.34607   0.43258   0.50203   0.55679   0.62292
 Alpha virt. eigenvalues --    0.66291   0.80248   0.92471   0.96543   1.01719

 Mulliken charges:
               1
     1  O   -0.465182
     2  H    0.221310
     3  H    0.243872
 Sum of Mulliken charges =   0.00000

 Dipole moment (field-independent basis, Debye):
    X=              0.0296    Y=             -1.9635    Z=              0.0000  Tot=              1.9637
 Quadrupole moment (field-independent basis, Debye-Ang):
   XX=             -4.2278   YY=             -6.3653   ZZ=             -7.6620
   XY=              0.1677   XZ=              0.0000   YZ=              0.0000

 1\1\GINC-NODE29\SP\RB2PLYPD3-FC\def2QZVP\H2O1\BOITTIER\26-Aug-2020\0\\
 #p B2PLYPD3/Def2QZVP\\h2o\\0,1\O,0,-5.326605,-0.766379,0.917261\H,0,-4
 .368927,-0.75498,0.95806\H,0,-5.609308,0.201084,0.772009\\Version=ES64
 L-G09RevD.01\State=1-A'\HF=-76.3310674\MP2=-76.4220161\RMSD=5.282e-09\
 PG=CS [SG(H2O1)]\\@

 READER, WHETHER YOU BE DILETTANTE OR PROFESSOR ... SHOW YOURSELF TO BE

 Normal termination of Gaussian 09 at Wed Aug 26 12:35:27 2020.
