 Gaussian 09, Revision D.01,
 Gaussian 09:  ES64L-G09RevD.01 24-Apr-2013

 --------------------
 #p B2PLYPD3/Def2QZVP
 --------------------

 ---
 h2o
 ---
 Symbolic Z-matrix:
 Charge =  0 Multiplicity = 1

                         Standard orientation:
 ---------------------------------------------------------------------
 Center     Atomic      Atomic             Coordinates (Angstroms)
 Number     Number       Type             X           Y           Z
 ---------------------------------------------------------------------
      1          8           0        0.000000    0.115778    0.000000
      2          1           0        0.751642   -0.482258    0.000000
      3          1           0       -0.751642   -0.443968    0.000000
 ---------------------------------------------------------------------

 SCF Done:  E(RB2PLYPD3) =  -76.3349895855     A.U. after   10 cycles
 E2(B2PLYPD3) =    -0.8966779553D-01 E(B2PLYPD3) =    -0.76424657381009D+02

 The electronic state is 1-A'.
 Alpha  occ. eigenvalues --  -19.72962  -1.16152  -0.61764  -0.47562  -0.40048
 Alpha virt. eigenvalues --    0.04642   0.10299   0.27444   0.30387   0.31168
 Alpha virt. eigenvalues --    0.36326   0.44273   0.50377   0.56351   0.62316
 Alpha virt. eigenvalues --    0.65375   0.81390   0.94060   0.95741   1.04523

 Mulliken charges:
               1
     1  O   -0.435058
     2  H    0.223063
     3  H    0.211995
 Sum of Mulliken charges =   0.00000

 Dipole moment (field-independent basis, Debye):
    X=             -0.0119    Y=             -1.9517    Z=              0.0000  Tot=              1.9518
 Quadrupole moment (field-independent basis, Debye-Ang):
   XX=             -4.3525   YY=             -6.3233   ZZ=             -7.5710
   XY=             -0.0627   XZ=              0.0000   YZ=              0.0000

 1\1\GINC-NODE34\SP\RB2PLYPD3-FC\def2QZVP\H2O1\BOITTIER\26-Aug-2020\0\\
 #p B2PLYPD3/Def2QZVP\\h2o\\0,1\O,0,-5.326605,-0.762098,0.92632\H,0,-4.
 368927,-0.731007,0.859247\H,0,-5.609308,0.108619,0.72579\\Version=ES64
 L-G09RevD.01\State=1-A'\HF=-76.3349896\MP2=-76.4246574\RMSD=4.476e-09\
 PG=CS [SG(H2O1)]\\@

 ON INDUCTION, OR "WHY DO YOU BELIEVE THE SUN WILL RISE TOMORROW?":

 Normal termination of Gaussian 09 at Wed Aug 26 11:42:11 2020.
