 Gaussian 09, Revision D.01,
 Gaussian 09:  ES64L-G09RevD.01 24-Apr-2013

 --------------------
 #p B2PLYPD3/Def2QZVP
 --------------------

 ---
 h2o
 ---
 Symbolic Z-matrix:
 Charge =  0 Multiplicity = 1

                         Standard orientation:
 ---------------------------------------------------------------------
 Center     Atomic      Atomic             Coordinates (Angstroms)
 Number     Number       Type             X           Y           Z
 ---------------------------------------------------------------------
      1          8           0        0.000000    0.114747    0.000000
      2          1           0        0.738819   -0.503657    0.000000
      3          1           0       -0.738819   -0.414319    0.000000
 ---------------------------------------------------------------------

 SCF Done:  E(RB2PLYPD3) =  -76.3331050313     A.U. after   10 cycles
 E2(B2PLYPD3) =    -0.8926795020D-01 E(B2PLYPD3) =    -0.76422372981453D+02

 The electronic state is 1-A'.
 Alpha  occ. eigenvalues --  -19.72754  -1.16866  -0.62298  -0.47794  -0.40174
 Alpha virt. eigenvalues --    0.04742   0.10423   0.27348   0.30352   0.31254
 Alpha virt. eigenvalues --    0.36964   0.44733   0.50426   0.56532   0.62323
 Alpha virt. eigenvalues --    0.65035   0.81692   0.94226   0.95538   1.04926

 Mulliken charges:
               1
     1  O   -0.421161
     2  H    0.224622
     3  H    0.196538
 Sum of Mulliken charges =   0.00000

 Dipole moment (field-independent basis, Debye):
    X=             -0.0280    Y=             -1.9486    Z=              0.0000  Tot=              1.9488
 Quadrupole moment (field-independent basis, Debye-Ang):
   XX=             -4.3989   YY=             -6.2970   ZZ=             -7.5402
   XY=             -0.1441   XZ=              0.0000   YZ=              0.0000

 1\1\GINC-NODE04\SP\RB2PLYPD3-FC\def2QZVP\H2O1\BOITTIER\26-Aug-2020\0\\
 #p B2PLYPD3/Def2QZVP\\h2o\\0,1\O,0,-5.326605,-0.760549,0.92878\H,0,-4.
 368927,-0.723506,0.830003\H,0,-5.609308,0.076341,0.715571\\Version=ES6
 4L-G09RevD.01\State=1-A'\HF=-76.333105\MP2=-76.422373\RMSD=5.764e-09\P
 G=CS [SG(H2O1)]\\@

 DO YOU KNOW THAT THE LETTERS IN "EPISCOPAL", WHEN

 Normal termination of Gaussian 09 at Wed Aug 26 09:08:38 2020.
