 Gaussian 09, Revision D.01,
 Gaussian 09:  ES64L-G09RevD.01 24-Apr-2013

 --------------------
 #p B2PLYPD3/Def2QZVP
 --------------------

 ---
 h2o
 ---
 Symbolic Z-matrix:
 Charge =  0 Multiplicity = 1

                         Standard orientation:
 ---------------------------------------------------------------------
 Center     Atomic      Atomic             Coordinates (Angstroms)
 Number     Number       Type             X           Y           Z
 ---------------------------------------------------------------------
      1          8           0        0.000000    0.114962    0.000000
      2          1           0        0.778431   -0.443434    0.000000
      3          1           0       -0.778431   -0.476259    0.000000
 ---------------------------------------------------------------------

 SCF Done:  E(RB2PLYPD3) =  -76.3344031556     A.U. after   10 cycles
 E2(B2PLYPD3) =    -0.9022077103D-01 E(B2PLYPD3) =    -0.76424623926675D+02

 The electronic state is 1-A'.
 Alpha  occ. eigenvalues --  -19.73167  -1.15090  -0.61310  -0.46874  -0.39828
 Alpha virt. eigenvalues --    0.04473   0.10081   0.27526   0.30443   0.31031
 Alpha virt. eigenvalues --    0.35109   0.43719   0.50671   0.55774   0.62855
 Alpha virt. eigenvalues --    0.65800   0.80726   0.93309   0.96185   1.03659

 Mulliken charges:
               1
     1  O   -0.455493
     2  H    0.223571
     3  H    0.231923
 Sum of Mulliken charges =   0.00000

 Dipole moment (field-independent basis, Debye):
    X=              0.0093    Y=             -1.9282    Z=              0.0000  Tot=              1.9282
 Quadrupole moment (field-independent basis, Debye-Ang):
   XX=             -4.2103   YY=             -6.4037   ZZ=             -7.6188
   XY=              0.0562   XZ=              0.0000   YZ=              0.0000

 1\1\GINC-NODE13\SP\RB2PLYPD3-FC\def2QZVP\H2O1\BOITTIER\26-Aug-2020\0\\
 #p B2PLYPD3/Def2QZVP\\h2o\\0,1\O,0,-5.326605,-0.763398,0.916999\H,0,-4
 .368927,-0.765557,0.941681\H,0,-5.609308,0.163971,0.792249\\Version=ES
 64L-G09RevD.01\State=1-A'\HF=-76.3344032\MP2=-76.4246239\RMSD=4.039e-0
 9\PG=CS [SG(H2O1)]\\@

 The chemist is a guest at the physicist's table and

 Normal termination of Gaussian 09 at Wed Aug 26 12:55:30 2020.
