 Gaussian 09, Revision D.01,
 Gaussian 09:  ES64L-G09RevD.01 24-Apr-2013

 --------------------
 #p B2PLYPD3/Def2QZVP
 --------------------

 ---
 h2o
 ---
 Symbolic Z-matrix:
 Charge =  0 Multiplicity = 1

                         Standard orientation:
 ---------------------------------------------------------------------
 Center     Atomic      Atomic             Coordinates (Angstroms)
 Number     Number       Type             X           Y           Z
 ---------------------------------------------------------------------
      1          8           0        0.000000    0.116554    0.000000
      2          1           0        0.756361   -0.474017    0.000000
      3          1           0       -0.756361   -0.458414    0.000000
 ---------------------------------------------------------------------

 SCF Done:  E(RB2PLYPD3) =  -76.3351915860     A.U. after   10 cycles
 E2(B2PLYPD3) =    -0.8986407526D-01 E(B2PLYPD3) =    -0.76425055661248D+02

 The electronic state is 1-A'.
 Alpha  occ. eigenvalues --  -19.73064  -1.15855  -0.61477  -0.47491  -0.39996
 Alpha virt. eigenvalues --    0.04581   0.10243   0.27487   0.30403   0.31073
 Alpha virt. eigenvalues --    0.36059   0.44085   0.50316   0.56289   0.62252
 Alpha virt. eigenvalues --    0.65532   0.81247   0.93932   0.95856   1.04160

 Mulliken charges:
               1
     1  O   -0.440257
     2  H    0.222303
     3  H    0.217954
 Sum of Mulliken charges =   0.00000

 Dipole moment (field-independent basis, Debye):
    X=             -0.0048    Y=             -1.9565    Z=              0.0000  Tot=              1.9565
 Quadrupole moment (field-independent basis, Debye-Ang):
   XX=             -4.3404   YY=             -6.3272   ZZ=             -7.5848
   XY=             -0.0256   XZ=              0.0000   YZ=              0.0000

 1\1\GINC-NODE19\SP\RB2PLYPD3-FC\def2QZVP\H2O1\BOITTIER\26-Aug-2020\0\\
 #p B2PLYPD3/Def2QZVP\\h2o\\0,1\O,0,-5.326605,-0.762956,0.925235\H,0,-4
 .368927,-0.73132,0.873208\H,0,-5.609308,0.122663,0.729206\\Version=ES6
 4L-G09RevD.01\State=1-A'\HF=-76.3351916\MP2=-76.4250557\RMSD=4.145e-09
 \PG=CS [SG(H2O1)]\\@

 I am not a vegetarian because I love animals;

 Normal termination of Gaussian 09 at Wed Aug 26 08:32:05 2020.
