 Gaussian 09, Revision D.01,
 Gaussian 09:  ES64L-G09RevD.01 24-Apr-2013

 --------------------
 #p B2PLYPD3/Def2QZVP
 --------------------

 ---
 h2o
 ---
 Symbolic Z-matrix:
 Charge =  0 Multiplicity = 1

                         Standard orientation:
 ---------------------------------------------------------------------
 Center     Atomic      Atomic             Coordinates (Angstroms)
 Number     Number       Type             X           Y           Z
 ---------------------------------------------------------------------
      1          8           0        0.000000    0.118540    0.000000
      2          1           0        0.723413   -0.518963    0.000000
      3          1           0       -0.723413   -0.429359    0.000000
 ---------------------------------------------------------------------

 SCF Done:  E(RB2PLYPD3) =  -76.3324500641     A.U. after   10 cycles
 E2(B2PLYPD3) =    -0.8935132807D-01 E(B2PLYPD3) =    -0.76421801392198D+02

 The electronic state is 1-A'.
 Alpha  occ. eigenvalues --  -19.72864  -1.17116  -0.61719  -0.48370  -0.40246
 Alpha virt. eigenvalues --    0.04675   0.10483   0.27386   0.30344   0.31005
 Alpha virt. eigenvalues --    0.37432   0.44776   0.49939   0.56982   0.61468
 Alpha virt. eigenvalues --    0.65078   0.81760   0.94525   0.95499   1.04550

 Mulliken charges:
               1
     1  O   -0.415063
     2  H    0.221957
     3  H    0.193106
 Sum of Mulliken charges =   0.00000

 Dipole moment (field-independent basis, Debye):
    X=             -0.0309    Y=             -1.9933    Z=              0.0000  Tot=              1.9935
 Quadrupole moment (field-independent basis, Debye-Ang):
   XX=             -4.5226   YY=             -6.2113   ZZ=             -7.5346
   XY=             -0.1380   XZ=              0.0000   YZ=              0.0000

 1\1\GINC-NODE27\SP\RB2PLYPD3-FC\def2QZVP\H2O1\BOITTIER\26-Aug-2020\0\\
 #p B2PLYPD3/Def2QZVP\\h2o\\0,1\O,0,-5.326605,-0.76469,0.923789\H,0,-4.
 368927,-0.656332,0.894648\H,0,-5.609308,0.075423,0.729341\\Version=ES6
 4L-G09RevD.01\State=1-A'\HF=-76.3324501\MP2=-76.4218014\RMSD=5.959e-09
 \PG=CS [SG(H2O1)]\\@

 WE HAVE LEARNED THAT NOTHING IS SIMPLE AND

 Normal termination of Gaussian 09 at Wed Aug 26 09:17:10 2020.
