 Gaussian 09, Revision D.01,
 Gaussian 09:  ES64L-G09RevD.01 24-Apr-2013

 --------------------
 #p B2PLYPD3/Def2QZVP
 --------------------

 ---
 h2o
 ---
 Symbolic Z-matrix:
 Charge =  0 Multiplicity = 1

                         Standard orientation:
 ---------------------------------------------------------------------
 Center     Atomic      Atomic             Coordinates (Angstroms)
 Number     Number       Type             X           Y           Z
 ---------------------------------------------------------------------
      1          8           0        0.000000    0.116353    0.000000
      2          1           0        0.754027   -0.476981    0.000000
      3          1           0       -0.754027   -0.453846    0.000000
 ---------------------------------------------------------------------

 SCF Done:  E(RB2PLYPD3) =  -76.3351641473     A.U. after   10 cycles
 E2(B2PLYPD3) =    -0.8978682580D-01 E(B2PLYPD3) =    -0.76424950973084D+02

 The electronic state is 1-A'.
 Alpha  occ. eigenvalues --  -19.73027  -1.15980  -0.61577  -0.47537  -0.40019
 Alpha virt. eigenvalues --    0.04605   0.10267   0.27471   0.30396   0.31108
 Alpha virt. eigenvalues --    0.36181   0.44159   0.50325   0.56329   0.62252
 Alpha virt. eigenvalues --    0.65471   0.81311   0.94000   0.95806   1.04306

 Mulliken charges:
               1
     1  O   -0.438041
     2  H    0.222294
     3  H    0.215747
 Sum of Mulliken charges =   0.00000

 Dipole moment (field-independent basis, Debye):
    X=             -0.0072    Y=             -1.9559    Z=              0.0000  Tot=              1.9559
 Quadrupole moment (field-independent basis, Debye-Ang):
   XX=             -4.3489   YY=             -6.3233   ZZ=             -7.5791
   XY=             -0.0379   XZ=              0.0000   YZ=              0.0000

 1\1\GINC-NODE32\SP\RB2PLYPD3-FC\def2QZVP\H2O1\BOITTIER\26-Aug-2020\0\\
 #p B2PLYPD3/Def2QZVP\\h2o\\0,1\O,0,-5.326605,-0.762972,0.924631\H,0,-4
 .368927,-0.727115,0.87805\H,0,-5.609308,0.118712,0.733854\\Version=ES6
 4L-G09RevD.01\State=1-A'\HF=-76.3351641\MP2=-76.424951\RMSD=4.243e-09\
 PG=CS [SG(H2O1)]\\@

 MAN IS A SINGULAR CREATURE.  HE HAS A SET OF GIFTS

 Normal termination of Gaussian 09 at Wed Aug 26 09:55:39 2020.
