 Gaussian 09, Revision D.01,
 Gaussian 09:  ES64L-G09RevD.01 24-Apr-2013

 --------------------
 #p B2PLYPD3/Def2QZVP
 --------------------

 ---
 h2o
 ---
 Symbolic Z-matrix:
 Charge =  0 Multiplicity = 1

                         Standard orientation:
 ---------------------------------------------------------------------
 Center     Atomic      Atomic             Coordinates (Angstroms)
 Number     Number       Type             X           Y           Z
 ---------------------------------------------------------------------
      1          8           0        0.000000    0.116232    0.000000
      2          1           0        0.748665   -0.486186    0.000000
      3          1           0       -0.748665   -0.443668    0.000000
 ---------------------------------------------------------------------

 SCF Done:  E(RB2PLYPD3) =  -76.3348830922     A.U. after   10 cycles
 E2(B2PLYPD3) =    -0.8964983051D-01 E(B2PLYPD3) =    -0.76424532922674D+02

 The electronic state is 1-A'.
 Alpha  occ. eigenvalues --  -19.72964  -1.16232  -0.61726  -0.47657  -0.40067
 Alpha virt. eigenvalues --    0.04642   0.10315   0.27443   0.30383   0.31139
 Alpha virt. eigenvalues --    0.36441   0.44307   0.50307   0.56426   0.62196
 Alpha virt. eigenvalues --    0.65358   0.81433   0.94118   0.95716   1.04486

 Mulliken charges:
               1
     1  O   -0.433269
     2  H    0.222834
     3  H    0.210434
 Sum of Mulliken charges =   0.00000

 Dipole moment (field-independent basis, Debye):
    X=             -0.0134    Y=             -1.9578    Z=              0.0000  Tot=              1.9578
 Quadrupole moment (field-independent basis, Debye-Ang):
   XX=             -4.3729   YY=             -6.3098   ZZ=             -7.5680
   XY=             -0.0691   XZ=              0.0000   YZ=              0.0000

 1\1\GINC-NODE23\SP\RB2PLYPD3-FC\def2QZVP\H2O1\BOITTIER\26-Aug-2020\0\\
 #p B2PLYPD3/Def2QZVP\\h2o\\0,1\O,0,-5.326605,-0.762309,0.926691\H,0,-4
 .368927,-0.723857,0.857544\H,0,-5.609308,0.104847,0.721492\\Version=ES
 64L-G09RevD.01\State=1-A'\HF=-76.3348831\MP2=-76.4245329\RMSD=4.592e-0
 9\PG=CS [SG(H2O1)]\\@

 DON'T WORRY CHARLIE BROWN...WE LEARN MORE FROM LOSING  THAN WE DO FROM WINNING.

 Normal termination of Gaussian 09 at Wed Aug 26 11:14:29 2020.
