 Gaussian 09, Revision D.01,
 Gaussian 09:  ES64L-G09RevD.01 24-Apr-2013

 --------------------
 #p B2PLYPD3/Def2QZVP
 --------------------

 ---
 h2o
 ---
 Symbolic Z-matrix:
 Charge =  0 Multiplicity = 1

                         Standard orientation:
 ---------------------------------------------------------------------
 Center     Atomic      Atomic             Coordinates (Angstroms)
 Number     Number       Type             X           Y           Z
 ---------------------------------------------------------------------
      1          8           0        0.000000    0.113422    0.000000
      2          1           0        0.790255   -0.428833    0.000000
      3          1           0       -0.790255   -0.478543    0.000000
 ---------------------------------------------------------------------

 SCF Done:  E(RB2PLYPD3) =  -76.3335548748     A.U. after   10 cycles
 E2(B2PLYPD3) =    -0.9035044243D-01 E(B2PLYPD3) =    -0.76423905317244D+02

 The electronic state is 1-A'.
 Alpha  occ. eigenvalues --  -19.73174  -1.14759  -0.61346  -0.46510  -0.39745
 Alpha virt. eigenvalues --    0.04428   0.10006   0.27523   0.30461   0.31054
 Alpha virt. eigenvalues --    0.34645   0.43580   0.50976   0.55474   0.63296
 Alpha virt. eigenvalues --    0.65896   0.80409   0.92999   0.96352   1.03510

 Mulliken charges:
               1
     1  O   -0.462908
     2  H    0.225372
     3  H    0.237535
 Sum of Mulliken charges =   0.00000

 Dipole moment (field-independent basis, Debye):
    X=              0.0133    Y=             -1.9061    Z=              0.0000  Tot=              1.9061
 Quadrupole moment (field-independent basis, Debye-Ang):
   XX=             -4.1299   YY=             -6.4522   ZZ=             -7.6337
   XY=              0.0873   XZ=              0.0000   YZ=              0.0000

 1\1\GINC-NODE12\SP\RB2PLYPD3-FC\def2QZVP\H2O1\BOITTIER\26-Aug-2020\0\\
 #p B2PLYPD3/Def2QZVP\\h2o\\0,1\O,0,-5.326605,-0.762333,0.917011\H,0,-4
 .368927,-0.794946,0.935275\H,0,-5.609308,0.176316,0.798932\\Version=ES
 64L-G09RevD.01\State=1-A'\HF=-76.3335549\MP2=-76.4239053\RMSD=4.250e-0
 9\PG=CS [SG(H2O1)]\\@

 EXPERIENCE IS THE FRUIT OF THE TREE OF ERRORS.

 Normal termination of Gaussian 09 at Wed Aug 26 11:23:50 2020.
