 Gaussian 09, Revision D.01,
 Gaussian 09:  ES64L-G09RevD.01 24-Apr-2013

 --------------------
 #p B2PLYPD3/Def2QZVP
 --------------------

 ---
 h2o
 ---
 Symbolic Z-matrix:
 Charge =  0 Multiplicity = 1

                         Standard orientation:
 ---------------------------------------------------------------------
 Center     Atomic      Atomic             Coordinates (Angstroms)
 Number     Number       Type             X           Y           Z
 ---------------------------------------------------------------------
      1          8           0        0.000000    0.119267    0.000000
      2          1           0        0.743672   -0.489608    0.000000
      3          1           0       -0.743672   -0.464530    0.000000
 ---------------------------------------------------------------------

 SCF Done:  E(RB2PLYPD3) =  -76.3349165771     A.U. after   10 cycles
 E2(B2PLYPD3) =    -0.8988204872D-01 E(B2PLYPD3) =    -0.76424798625794D+02

 The electronic state is 1-A'.
 Alpha  occ. eigenvalues --  -19.73127  -1.16097  -0.61129  -0.47935  -0.40064
 Alpha virt. eigenvalues --    0.04551   0.10298   0.27511   0.30392   0.30891
 Alpha virt. eigenvalues --    0.36486   0.44146   0.49946   0.56643   0.61618
 Alpha virt. eigenvalues --    0.65536   0.81382   0.94210   0.95789   1.03823

 Mulliken charges:
               1
     1  O   -0.434257
     2  H    0.220710
     3  H    0.213547
 Sum of Mulliken charges =   0.00000

 Dipole moment (field-independent basis, Debye):
    X=             -0.0084    Y=             -1.9894    Z=              0.0000  Tot=              1.9894
 Quadrupole moment (field-independent basis, Debye-Ang):
   XX=             -4.4387   YY=             -6.2608   ZZ=             -7.5772
   XY=             -0.0398   XZ=              0.0000   YZ=              0.0000

 1\1\GINC-NODE08\SP\RB2PLYPD3-FC\def2QZVP\H2O1\BOITTIER\26-Aug-2020\0\\
 #p B2PLYPD3/Def2QZVP\\h2o\\0,1\O,0,-5.326605,-0.765219,0.923728\H,0,-4
 .368927,-0.687713,0.898777\H,0,-5.609308,0.115256,0.726979\\Version=ES
 64L-G09RevD.01\State=1-A'\HF=-76.3349166\MP2=-76.4247986\RMSD=4.468e-0
 9\PG=CS [SG(H2O1)]\\@

 A CHEMICAL PHYSICIST MAKES PRECISE MEASUREMENTS ON IMPURE COMPOUNDS.

 Normal termination of Gaussian 09 at Wed Aug 26 11:19:35 2020.
