 Gaussian 09, Revision D.01,
 Gaussian 09:  ES64L-G09RevD.01 24-Apr-2013

 --------------------
 #p B2PLYPD3/Def2QZVP
 --------------------

 ---
 h2o
 ---
 Symbolic Z-matrix:
 Charge =  0 Multiplicity = 1

                         Standard orientation:
 ---------------------------------------------------------------------
 Center     Atomic      Atomic             Coordinates (Angstroms)
 Number     Number       Type             X           Y           Z
 ---------------------------------------------------------------------
      1          8           0        0.000000    0.115946    0.000000
      2          1           0        0.772046   -0.451121    0.000000
      3          1           0       -0.772046   -0.476449    0.000000
 ---------------------------------------------------------------------

 SCF Done:  E(RB2PLYPD3) =  -76.3346895202     A.U. after   10 cycles
 E2(B2PLYPD3) =    -0.9017292280D-01 E(B2PLYPD3) =    -0.76424862442958D+02

 The electronic state is 1-A'.
 Alpha  occ. eigenvalues --  -19.73173  -1.15254  -0.61247  -0.47078  -0.39870
 Alpha virt. eigenvalues --    0.04485   0.10117   0.27530   0.30434   0.30992
 Alpha virt. eigenvalues --    0.35356   0.43781   0.50498   0.55941   0.62592
 Alpha virt. eigenvalues --    0.65766   0.80869   0.93467   0.96111   1.03652

 Mulliken charges:
               1
     1  O   -0.451739
     2  H    0.222587
     3  H    0.229153
 Sum of Mulliken charges =   0.00000

 Dipole moment (field-independent basis, Debye):
    X=              0.0075    Y=             -1.9414    Z=              0.0000  Tot=              1.9414
 Quadrupole moment (field-independent basis, Debye-Ang):
   XX=             -4.2555   YY=             -6.3753   ZZ=             -7.6120
   XY=              0.0427   XZ=              0.0000   YZ=              0.0000

 1\1\GINC-NODE28\SP\RB2PLYPD3-FC\def2QZVP\H2O1\BOITTIER\26-Aug-2020\0\\
 #p B2PLYPD3/Def2QZVP\\h2o\\0,1\O,0,-5.326605,-0.76331,0.921958\H,0,-4.
 368927,-0.755457,0.901678\H,0,-5.609308,0.152458,0.753332\\Version=ES6
 4L-G09RevD.01\State=1-A'\HF=-76.3346895\MP2=-76.4248624\RMSD=4.012e-09
 \PG=CS [SG(H2O1)]\\@

 NOTHING MAKES A PERSON MORE PRODUCTIVE THAN THE LAST MINUTE.

 Normal termination of Gaussian 09 at Wed Aug 26 08:29:55 2020.
