 Gaussian 09, Revision D.01,
 Gaussian 09:  ES64L-G09RevD.01 24-Apr-2013

 --------------------
 #p B2PLYPD3/Def2QZVP
 --------------------

 ---
 h2o
 ---
 Symbolic Z-matrix:
 Charge =  0 Multiplicity = 1

                         Standard orientation:
 ---------------------------------------------------------------------
 Center     Atomic      Atomic             Coordinates (Angstroms)
 Number     Number       Type             X           Y           Z
 ---------------------------------------------------------------------
      1          8           0        0.000000    0.113619    0.000000
      2          1           0        0.698636   -0.555559    0.000000
      3          1           0       -0.698636   -0.353390    0.000000
 ---------------------------------------------------------------------

 SCF Done:  E(RB2PLYPD3) =  -76.3182794195     A.U. after   10 cycles
 E2(B2PLYPD3) =    -0.8831767785D-01 E(B2PLYPD3) =    -0.76406597097366D+02

 The electronic state is 1-A'.
 Alpha  occ. eigenvalues --  -19.72203  -1.19048  -0.63445  -0.48572  -0.40537
 Alpha virt. eigenvalues --    0.04885   0.10744   0.27039   0.30257   0.31215
 Alpha virt. eigenvalues --    0.38468   0.46170   0.50385   0.57051   0.62038
 Alpha virt. eigenvalues --    0.64225   0.82277   0.94011   0.95365   1.05311

 Mulliken charges:
               1
     1  O   -0.371529
     2  H    0.225931
     3  H    0.145598
 Sum of Mulliken charges =   0.00000

 Dipole moment (field-independent basis, Debye):
    X=             -0.0682    Y=             -1.9569    Z=              0.0000  Tot=              1.9581
 Quadrupole moment (field-independent basis, Debye-Ang):
   XX=             -4.5638   YY=             -6.1795   ZZ=             -7.4579
   XY=             -0.3076   XZ=              0.0000   YZ=              0.0000

 1\1\GINC-NODE29\SP\RB2PLYPD3-FC\def2QZVP\H2O1\BOITTIER\26-Aug-2020\0\\
 #p B2PLYPD3/Def2QZVP\\h2o\\0,1\O,0,-5.326605,-0.760035,0.927806\H,0,-4
 .368927,-0.660493,0.833813\H,0,-5.609308,0.005094,0.725703\\Version=ES
 64L-G09RevD.01\State=1-A'\HF=-76.3182794\MP2=-76.4065971\RMSD=6.267e-0
 9\PG=CS [SG(H2O1)]\\@

 IT'S WHAT YOU LEARN AFTER YOU KNOW IT ALL

 Normal termination of Gaussian 09 at Wed Aug 26 09:25:55 2020.
