 Gaussian 09, Revision D.01,
 Gaussian 09:  ES64L-G09RevD.01 24-Apr-2013

 --------------------
 #p B2PLYPD3/Def2QZVP
 --------------------

 ---
 h2o
 ---
 Symbolic Z-matrix:
 Charge =  0 Multiplicity = 1

                         Standard orientation:
 ---------------------------------------------------------------------
 Center     Atomic      Atomic             Coordinates (Angstroms)
 Number     Number       Type             X           Y           Z
 ---------------------------------------------------------------------
      1          8           0        0.000000    0.115998    0.000000
      2          1           0        0.763207   -0.463277    0.000000
      3          1           0       -0.763207   -0.464709    0.000000
 ---------------------------------------------------------------------

 SCF Done:  E(RB2PLYPD3) =  -76.3351513534     A.U. after   10 cycles
 E2(B2PLYPD3) =    -0.8996395740D-01 E(B2PLYPD3) =    -0.76425115310795D+02

 The electronic state is 1-A'.
 Alpha  occ. eigenvalues --  -19.73092  -1.15621  -0.61445  -0.47298  -0.39945
 Alpha virt. eigenvalues --    0.04555   0.10194   0.27499   0.30414   0.31079
 Alpha virt. eigenvalues --    0.35765   0.43973   0.50427   0.56130   0.62448
 Alpha virt. eigenvalues --    0.65610   0.81105   0.93756   0.95949   1.04062

 Mulliken charges:
               1
     1  O   -0.444961
     2  H    0.222287
     3  H    0.222675
 Sum of Mulliken charges =   0.00000

 Dipole moment (field-independent basis, Debye):
    X=              0.0004    Y=             -1.9472    Z=              0.0000  Tot=              1.9472
 Quadrupole moment (field-independent basis, Debye-Ang):
   XX=             -4.2996   YY=             -6.3521   ZZ=             -7.5948
   XY=              0.0024   XZ=              0.0000   YZ=              0.0000

 1\1\GINC-NODE21\SP\RB2PLYPD3-FC\def2QZVP\H2O1\BOITTIER\26-Aug-2020\0\\
 #p B2PLYPD3/Def2QZVP\\h2o\\0,1\O,0,-5.326605,-0.763389,0.921726\H,0,-4
 .368927,-0.73936,0.903835\H,0,-5.609308,0.137625,0.754518\\Version=ES6
 4L-G09RevD.01\State=1-A'\HF=-76.3351514\MP2=-76.4251153\RMSD=3.980e-09
 \PG=CS [SG(H2O1)]\\@

 MY DESCRIPTION OF EXPERIENCE IS NOT WHAT HAPPENS

 Normal termination of Gaussian 09 at Wed Aug 26 09:01:25 2020.
