 Gaussian 09, Revision D.01,
 Gaussian 09:  ES64L-G09RevD.01 24-Apr-2013

 --------------------
 #p B2PLYPD3/Def2QZVP
 --------------------

 ---
 h2o
 ---
 Symbolic Z-matrix:
 Charge =  0 Multiplicity = 1

                         Standard orientation:
 ---------------------------------------------------------------------
 Center     Atomic      Atomic             Coordinates (Angstroms)
 Number     Number       Type             X           Y           Z
 ---------------------------------------------------------------------
      1          8           0        0.000000    0.115443    0.000000
      2          1           0        0.758622   -0.470095    0.000000
      3          1           0       -0.758622   -0.453451    0.000000
 ---------------------------------------------------------------------

 SCF Done:  E(RB2PLYPD3) =  -76.3352262277     A.U. after   10 cycles
 E2(B2PLYPD3) =    -0.8979289015D-01 E(B2PLYPD3) =    -0.76425019117894D+02

 The electronic state is 1-A'.
 Alpha  occ. eigenvalues --  -19.73010  -1.15880  -0.61679  -0.47380  -0.39993
 Alpha virt. eigenvalues --    0.04611   0.10245   0.27465   0.30401   0.31170
 Alpha virt. eigenvalues --    0.36012   0.44128   0.50461   0.56204   0.62472
 Alpha virt. eigenvalues --    0.65477   0.81246   0.93908   0.95839   1.04422

 Mulliken charges:
               1
     1  O   -0.440457
     2  H    0.222559
     3  H    0.217898
 Sum of Mulliken charges =   0.00000

 Dipole moment (field-independent basis, Debye):
    X=             -0.0050    Y=             -1.9446    Z=              0.0000  Tot=              1.9446
 Quadrupole moment (field-independent basis, Debye-Ang):
   XX=             -4.3143   YY=             -6.3465   ZZ=             -7.5825
   XY=             -0.0276   XZ=              0.0000   YZ=              0.0000

 1\1\GINC-NODE31\SP\RB2PLYPD3-FC\def2QZVP\H2O1\BOITTIER\26-Aug-2020\0\\
 #p B2PLYPD3/Def2QZVP\\h2o\\0,1\O,0,-5.326605,-0.763522,0.918651\H,0,-4
 .368927,-0.730205,0.928949\H,0,-5.609308,0.130595,0.778001\\Version=ES
 64L-G09RevD.01\State=1-A'\HF=-76.3352262\MP2=-76.4250191\RMSD=4.107e-0
 9\PG=CS [SG(H2O1)]\\@

 THE TEST OF A FIRST RATE INTELLIGENCE IS THE ABILITY TO HOLD TWO OPPOSED

 Normal termination of Gaussian 09 at Wed Aug 26 10:56:47 2020.
