 Gaussian 09, Revision D.01,
 Gaussian 09:  ES64L-G09RevD.01 24-Apr-2013

 --------------------
 #p B2PLYPD3/Def2QZVP
 --------------------

 ---
 h2o
 ---
 Symbolic Z-matrix:
 Charge =  0 Multiplicity = 1

                         Standard orientation:
 ---------------------------------------------------------------------
 Center     Atomic      Atomic             Coordinates (Angstroms)
 Number     Number       Type             X           Y           Z
 ---------------------------------------------------------------------
      1          8           0        0.000000    0.124091    0.000000
      2          1           0        0.746775   -0.486685    0.000000
      3          1           0       -0.746775   -0.506046    0.000000
 ---------------------------------------------------------------------

 SCF Done:  E(RB2PLYPD3) =  -76.3338955769     A.U. after   10 cycles
 E2(B2PLYPD3) =    -0.9053858905D-01 E(B2PLYPD3) =    -0.76424434165976D+02

 The electronic state is 1-A'.
 Alpha  occ. eigenvalues --  -19.73491  -1.15404  -0.59961  -0.48080  -0.39966
 Alpha virt. eigenvalues --    0.04316   0.10160   0.27669   0.30347   0.30426
 Alpha virt. eigenvalues --    0.35985   0.43659   0.49471   0.56730   0.60905
 Alpha virt. eigenvalues --    0.66015   0.81049   0.93957   0.96134   1.02222

 Mulliken charges:
               1
     1  O   -0.443400
     2  H    0.219185
     3  H    0.224216
 Sum of Mulliken charges =   0.00000

 Dipole moment (field-independent basis, Debye):
    X=              0.0069    Y=             -2.0319    Z=              0.0000  Tot=              2.0319
 Quadrupole moment (field-independent basis, Debye-Ang):
   XX=             -4.4917   YY=             -6.2094   ZZ=             -7.6138
   XY=              0.0300   XZ=              0.0000   YZ=              0.0000

 1\1\GINC-NODE32\SP\RB2PLYPD3-FC\def2QZVP\H2O1\BOITTIER\26-Aug-2020\0\\
 #p B2PLYPD3/Def2QZVP\\h2o\\0,1\O,0,-5.326605,-0.76656,0.93069\H,0,-4.3
 68927,-0.680798,0.851835\H,0,-5.609308,0.129802,0.663558\\Version=ES64
 L-G09RevD.01\State=1-A'\HF=-76.3338956\MP2=-76.4244342\RMSD=4.435e-09\
 PG=CS [SG(H2O1)]\\@

 IT IS IMPOSSIBLE TO MEDITATE ON TIME AND THE MYSTERY

 Normal termination of Gaussian 09 at Wed Aug 26 08:44:35 2020.
