 Gaussian 09, Revision D.01,
 Gaussian 09:  ES64L-G09RevD.01 24-Apr-2013

 --------------------
 #p B2PLYPD3/Def2QZVP
 --------------------

 ---
 h2o
 ---
 Symbolic Z-matrix:
 Charge =  0 Multiplicity = 1

                         Standard orientation:
 ---------------------------------------------------------------------
 Center     Atomic      Atomic             Coordinates (Angstroms)
 Number     Number       Type             X           Y           Z
 ---------------------------------------------------------------------
      1          8           0        0.000000    0.119455    0.000000
      2          1           0        0.742700   -0.491056    0.000000
      3          1           0       -0.742700   -0.464580    0.000000
 ---------------------------------------------------------------------

 SCF Done:  E(RB2PLYPD3) =  -76.3348770883     A.U. after   10 cycles
 E2(B2PLYPD3) =    -0.8988190307D-01 E(B2PLYPD3) =    -0.76424758991361D+02

 The electronic state is 1-A'.
 Alpha  occ. eigenvalues --  -19.73131  -1.16118  -0.61106  -0.47968  -0.40069
 Alpha virt. eigenvalues --    0.04549   0.10302   0.27513   0.30391   0.30879
 Alpha virt. eigenvalues --    0.36518   0.44153   0.49922   0.56669   0.61574
 Alpha virt. eigenvalues --    0.65535   0.81391   0.94231   0.95784   1.03803

 Mulliken charges:
               1
     1  O   -0.433778
     2  H    0.220679
     3  H    0.213099
 Sum of Mulliken charges =   0.00000

 Dipole moment (field-independent basis, Debye):
    X=             -0.0089    Y=             -1.9917    Z=              0.0000  Tot=              1.9917
 Quadrupole moment (field-independent basis, Debye-Ang):
   XX=             -4.4459   YY=             -6.2560   ZZ=             -7.5766
   XY=             -0.0419   XZ=              0.0000   YZ=              0.0000

 1\1\GINC-NODE01\SP\RB2PLYPD3-FC\def2QZVP\H2O1\BOITTIER\26-Aug-2020\0\\
 #p B2PLYPD3/Def2QZVP\\h2o\\0,1\O,0,-5.326605,-0.765725,0.921947\H,0,-4
 .368927,-0.681202,0.915983\H,0,-5.609308,0.116845,0.737966\\Version=ES
 64L-G09RevD.01\State=1-A'\HF=-76.3348771\MP2=-76.424759\RMSD=4.503e-09
 \PG=CS [SG(H2O1)]\\@

 GOORD'S AXIOM:  A MEETING IS AN EVENT AT WHICH

 Normal termination of Gaussian 09 at Wed Aug 26 12:14:08 2020.
