 Gaussian 09, Revision D.01,
 Gaussian 09:  ES64L-G09RevD.01 24-Apr-2013

 --------------------
 #p B2PLYPD3/Def2QZVP
 --------------------

 ---
 h2o
 ---
 Symbolic Z-matrix:
 Charge =  0 Multiplicity = 1

                         Standard orientation:
 ---------------------------------------------------------------------
 Center     Atomic      Atomic             Coordinates (Angstroms)
 Number     Number       Type             X           Y           Z
 ---------------------------------------------------------------------
      1          8           0        0.000000    0.117426    0.000000
      2          1           0        0.764347   -0.461189    0.000000
      3          1           0       -0.764347   -0.478219    0.000000
 ---------------------------------------------------------------------

 SCF Done:  E(RB2PLYPD3) =  -76.3348687459     A.U. after   10 cycles
 E2(B2PLYPD3) =    -0.9015371537D-01 E(B2PLYPD3) =    -0.76425022461234D+02

 The electronic state is 1-A'.
 Alpha  occ. eigenvalues --  -19.73200  -1.15418  -0.61096  -0.47339  -0.39915
 Alpha virt. eigenvalues --    0.04484   0.10155   0.27542   0.30426   0.30909
 Alpha virt. eigenvalues --    0.35635   0.43831   0.50266   0.56152   0.62229
 Alpha virt. eigenvalues --    0.65753   0.81007   0.93647   0.96044   1.03532

 Mulliken charges:
               1
     1  O   -0.447689
     2  H    0.221598
     3  H    0.226091
 Sum of Mulliken charges =   0.00000

 Dipole moment (field-independent basis, Debye):
    X=              0.0052    Y=             -1.9600    Z=              0.0000  Tot=              1.9601
 Quadrupole moment (field-independent basis, Debye-Ang):
   XX=             -4.3136   YY=             -6.3375   ZZ=             -7.6057
   XY=              0.0282   XZ=              0.0000   YZ=              0.0000

 1\1\GINC-NODE29\SP\RB2PLYPD3-FC\def2QZVP\H2O1\BOITTIER\26-Aug-2020\0\\
 #p B2PLYPD3/Def2QZVP\\h2o\\0,1\O,0,-5.326605,-0.764927,0.918359\H,0,-4
 .368927,-0.727415,0.939991\H,0,-5.609308,0.150285,0.771781\\Version=ES
 64L-G09RevD.01\State=1-A'\HF=-76.3348687\MP2=-76.4250225\RMSD=4.046e-0
 9\PG=CS [SG(H2O1)]\\@

 BRING ME INTO THE COMPANY OF THOSE WHO SEEK TRUTH,

 Normal termination of Gaussian 09 at Wed Aug 26 10:30:57 2020.
