 Gaussian 09, Revision D.01,
 Gaussian 09:  ES64L-G09RevD.01 24-Apr-2013

 --------------------
 #p B2PLYPD3/Def2QZVP
 --------------------

 ---
 h2o
 ---
 Symbolic Z-matrix:
 Charge =  0 Multiplicity = 1

                         Standard orientation:
 ---------------------------------------------------------------------
 Center     Atomic      Atomic             Coordinates (Angstroms)
 Number     Number       Type             X           Y           Z
 ---------------------------------------------------------------------
      1          8           0        0.000000    0.122527    0.000000
      2          1           0        0.759675   -0.465136    0.000000
      3          1           0       -0.759675   -0.515082    0.000000
 ---------------------------------------------------------------------

 SCF Done:  E(RB2PLYPD3) =  -76.3334150523     A.U. after   10 cycles
 E2(B2PLYPD3) =    -0.9064993393D-01 E(B2PLYPD3) =    -0.76424064986200D+02

 The electronic state is 1-A'.
 Alpha  occ. eigenvalues --  -19.73500  -1.15059  -0.60058  -0.47680  -0.39883
 Alpha virt. eigenvalues --    0.04282   0.10080   0.27666   0.30339   0.30444
 Alpha virt. eigenvalues --    0.35540   0.43537   0.49676   0.56391   0.61352
 Alpha virt. eigenvalues --    0.66101   0.80850   0.93484   0.96258   1.02095

 Mulliken charges:
               1
     1  O   -0.450156
     2  H    0.218846
     3  H    0.231310
 Sum of Mulliken charges =   0.00000

 Dipole moment (field-independent basis, Debye):
    X=              0.0168    Y=             -2.0099    Z=              0.0000  Tot=              2.0099
 Quadrupole moment (field-independent basis, Debye-Ang):
   XX=             -4.4074   YY=             -6.2607   ZZ=             -7.6282
   XY=              0.0798   XZ=              0.0000   YZ=              0.0000

 1\1\GINC-NODE29\SP\RB2PLYPD3-FC\def2QZVP\H2O1\BOITTIER\26-Aug-2020\0\\
 #p B2PLYPD3/Def2QZVP\\h2o\\0,1\O,0,-5.326605,-0.767067,0.925417\H,0,-4
 .368927,-0.699973,0.897033\H,0,-5.609308,0.157083,0.702532\\Version=ES
 64L-G09RevD.01\State=1-A'\HF=-76.3334151\MP2=-76.424065\RMSD=4.523e-09
 \PG=CS [SG(H2O1)]\\@

 THE SECRET OF SUCCESS IN LIFE IS TO EAT WHAT YOU LIKE, AND LET THE FOOD

 Normal termination of Gaussian 09 at Wed Aug 26 08:55:35 2020.
