 Gaussian 09, Revision D.01,
 Gaussian 09:  ES64L-G09RevD.01 24-Apr-2013

 --------------------
 #p B2PLYPD3/Def2QZVP
 --------------------

 ---
 h2o
 ---
 Symbolic Z-matrix:
 Charge =  0 Multiplicity = 1

                         Standard orientation:
 ---------------------------------------------------------------------
 Center     Atomic      Atomic             Coordinates (Angstroms)
 Number     Number       Type             X           Y           Z
 ---------------------------------------------------------------------
      1          8           0        0.000000    0.113988    0.000000
      2          1           0        0.779856   -0.442191    0.000000
      3          1           0       -0.779856   -0.469714    0.000000
 ---------------------------------------------------------------------

 SCF Done:  E(RB2PLYPD3) =  -76.3345130505     A.U. after   10 cycles
 E2(B2PLYPD3) =    -0.9014865922D-01 E(B2PLYPD3) =    -0.76424661709694D+02

 The electronic state is 1-A'.
 Alpha  occ. eigenvalues --  -19.73116  -1.15130  -0.61489  -0.46792  -0.39829
 Alpha virt. eigenvalues --    0.04503   0.10088   0.27506   0.30440   0.31132
 Alpha virt. eigenvalues --    0.35083   0.43761   0.50806   0.55714   0.63040
 Alpha virt. eigenvalues --    0.65748   0.80723   0.93330   0.96170   1.03932

 Mulliken charges:
               1
     1  O   -0.455538
     2  H    0.224244
     3  H    0.231293
 Sum of Mulliken charges =   0.00000

 Dipole moment (field-independent basis, Debye):
    X=              0.0077    Y=             -1.9180    Z=              0.0000  Tot=              1.9180
 Quadrupole moment (field-independent basis, Debye-Ang):
   XX=             -4.1900   YY=             -6.4194   ZZ=             -7.6160
   XY=              0.0475   XZ=              0.0000   YZ=              0.0000

 1\1\GINC-NODE16\SP\RB2PLYPD3-FC\def2QZVP\H2O1\BOITTIER\26-Aug-2020\0\\
 #p B2PLYPD3/Def2QZVP\\h2o\\0,1\O,0,-5.326605,-0.762659,0.917579\H,0,-4
 .368927,-0.774476,0.932568\H,0,-5.609308,0.161056,0.792224\\Version=ES
 64L-G09RevD.01\State=1-A'\HF=-76.3345131\MP2=-76.4246617\RMSD=3.949e-0
 9\PG=CS [SG(H2O1)]\\@

 UNLESS WE CHANGE DIRECTIONS, WE WILL WIND UP WHERE WE ARE HEADED.

 Normal termination of Gaussian 09 at Wed Aug 26 11:20:06 2020.
