 Gaussian 09, Revision D.01,
 Gaussian 09:  ES64L-G09RevD.01 24-Apr-2013

 --------------------
 #p B2PLYPD3/Def2QZVP
 --------------------

 ---
 h2o
 ---
 Symbolic Z-matrix:
 Charge =  0 Multiplicity = 1

                         Standard orientation:
 ---------------------------------------------------------------------
 Center     Atomic      Atomic             Coordinates (Angstroms)
 Number     Number       Type             X           Y           Z
 ---------------------------------------------------------------------
      1          8           0        0.000000    0.121917    0.000000
      2          1           0        0.724813   -0.518127    0.000000
      3          1           0       -0.724813   -0.457210    0.000000
 ---------------------------------------------------------------------

 SCF Done:  E(RB2PLYPD3) =  -76.3335739598     A.U. after   10 cycles
 E2(B2PLYPD3) =    -0.8977934651D-01 E(B2PLYPD3) =    -0.76423353306345D+02

 The electronic state is 1-A'.
 Alpha  occ. eigenvalues --  -19.73125  -1.16620  -0.60882  -0.48517  -0.40179
 Alpha virt. eigenvalues --    0.04538   0.10405   0.27505   0.30368   0.30725
 Alpha virt. eigenvalues --    0.37136   0.44380   0.49619   0.57101   0.60936
 Alpha virt. eigenvalues --    0.65406   0.81555   0.94597   0.95661   1.03715

 Mulliken charges:
               1
     1  O   -0.423344
     2  H    0.220882
     3  H    0.202462
 Sum of Mulliken charges =   0.00000

 Dipole moment (field-independent basis, Debye):
    X=             -0.0220    Y=             -2.0243    Z=              0.0000  Tot=              2.0244
 Quadrupole moment (field-independent basis, Debye-Ang):
   XX=             -4.5638   YY=             -6.1773   ZZ=             -7.5590
   XY=             -0.0923   XZ=              0.0000   YZ=              0.0000

 1\1\GINC-NODE40\SP\RB2PLYPD3-FC\def2QZVP\H2O1\BOITTIER\26-Aug-2020\0\\
 #p B2PLYPD3/Def2QZVP\\h2o\\0,1\O,0,-5.326605,-0.767205,0.922915\H,0,-4
 .368927,-0.633685,0.916997\H,0,-5.609308,0.093009,0.720796\\Version=ES
 64L-G09RevD.01\State=1-A'\HF=-76.333574\MP2=-76.4233533\RMSD=5.359e-09
 \PG=CS [SG(H2O1)]\\@

 FROM WHENCE IT HAPPENS, THAT THEY WHICH TRUST TO BOOKS, DO AS THEY THAT CAST UP MANY LITTLE SUMMS INTO GREATER,

 Normal termination of Gaussian 09 at Wed Aug 26 09:10:46 2020.
