 Gaussian 09, Revision D.01,
 Gaussian 09:  ES64L-G09RevD.01 24-Apr-2013

 --------------------
 #p B2PLYPD3/Def2QZVP
 --------------------

 ---
 h2o
 ---
 Symbolic Z-matrix:
 Charge =  0 Multiplicity = 1

                         Standard orientation:
 ---------------------------------------------------------------------
 Center     Atomic      Atomic             Coordinates (Angstroms)
 Number     Number       Type             X           Y           Z
 ---------------------------------------------------------------------
      1          8           0        0.000000    0.116446    0.000000
      2          1           0        0.767854   -0.456294    0.000000
      3          1           0       -0.767854   -0.475272    0.000000
 ---------------------------------------------------------------------

 SCF Done:  E(RB2PLYPD3) =  -76.3348635362     A.U. after   10 cycles
 E2(B2PLYPD3) =    -0.9012686257D-01 E(B2PLYPD3) =    -0.76424990398745D+02

 The electronic state is 1-A'.
 Alpha  occ. eigenvalues --  -19.73167  -1.15376  -0.61235  -0.47205  -0.39899
 Alpha virt. eigenvalues --    0.04498   0.10144   0.27528   0.30428   0.30982
 Alpha virt. eigenvalues --    0.35525   0.43833   0.50406   0.56046   0.62445
 Alpha virt. eigenvalues --    0.65733   0.80962   0.93581   0.96057   1.03691

 Mulliken charges:
               1
     1  O   -0.449140
     2  H    0.222075
     3  H    0.227065
 Sum of Mulliken charges =   0.00000

 Dipole moment (field-independent basis, Debye):
    X=              0.0057    Y=             -1.9487    Z=              0.0000  Tot=              1.9487
 Quadrupole moment (field-independent basis, Debye-Ang):
   XX=             -4.2830   YY=             -6.3585   ZZ=             -7.6067
   XY=              0.0317   XZ=              0.0000   YZ=              0.0000

 1\1\GINC-NODE39\SP\RB2PLYPD3-FC\def2QZVP\H2O1\BOITTIER\26-Aug-2020\0\\
 #p B2PLYPD3/Def2QZVP\\h2o\\0,1\O,0,-5.326605,-0.763995,0.920111\H,0,-4
 .368927,-0.742011,0.92045\H,0,-5.609308,0.149974,0.763687\\Version=ES6
 4L-G09RevD.01\State=1-A'\HF=-76.3348635\MP2=-76.4249904\RMSD=4.004e-09
 \PG=CS [SG(H2O1)]\\@

 OF ALL THE WONDERS OF THE UNIVERSE, THE GREATEST IS MAN.

 Normal termination of Gaussian 09 at Wed Aug 26 11:05:25 2020.
