 Gaussian 09, Revision D.01,
 Gaussian 09:  ES64L-G09RevD.01 24-Apr-2013

 --------------------
 #p B2PLYPD3/Def2QZVP
 --------------------

 ---
 h2o
 ---
 Symbolic Z-matrix:
 Charge =  0 Multiplicity = 1

                         Standard orientation:
 ---------------------------------------------------------------------
 Center     Atomic      Atomic             Coordinates (Angstroms)
 Number     Number       Type             X           Y           Z
 ---------------------------------------------------------------------
      1          8           0        0.000000    0.122311    0.000000
      2          1           0        0.749897   -0.481542    0.000000
      3          1           0       -0.749897   -0.496944    0.000000
 ---------------------------------------------------------------------

 SCF Done:  E(RB2PLYPD3) =  -76.3343441467     A.U. after   10 cycles
 E2(B2PLYPD3) =    -0.9039056814D-01 E(B2PLYPD3) =    -0.76424734714815D+02

 The electronic state is 1-A'.
 Alpha  occ. eigenvalues --  -19.73398  -1.15479  -0.60303  -0.47924  -0.39966
 Alpha virt. eigenvalues --    0.04375   0.10175   0.27627   0.30423   0.30515
 Alpha virt. eigenvalues --    0.35983   0.43741   0.49657   0.56611   0.61227
 Alpha virt. eigenvalues --    0.65917   0.81087   0.93919   0.96074   1.02626

 Mulliken charges:
               1
     1  O   -0.443314
     2  H    0.219629
     3  H    0.223685
 Sum of Mulliken charges =   0.00000

 Dipole moment (field-independent basis, Debye):
    X=              0.0053    Y=             -2.0139    Z=              0.0000  Tot=              2.0139
 Quadrupole moment (field-independent basis, Debye-Ang):
   XX=             -4.4516   YY=             -6.2398   ZZ=             -7.6082
   XY=              0.0243   XZ=              0.0000   YZ=              0.0000

 1\1\GINC-NODE13\SP\RB2PLYPD3-FC\def2QZVP\H2O1\BOITTIER\26-Aug-2020\0\\
 #p B2PLYPD3/Def2QZVP\\h2o\\0,1\O,0,-5.326605,-0.765917,0.928894\H,0,-4
 .368927,-0.692513,0.8622\H,0,-5.609308,0.131223,0.681828\\Version=ES64
 L-G09RevD.01\State=1-A'\HF=-76.3343441\MP2=-76.4247347\RMSD=4.331e-09\
 PG=CS [SG(H2O1)]\\@

 IT IS UNWORTHY OF EXCELLENT MEN TO LOSE HOURS LIKE SLAVES IN THE LABOR

 Normal termination of Gaussian 09 at Wed Aug 26 08:43:53 2020.
