 Gaussian 09, Revision D.01,
 Gaussian 09:  ES64L-G09RevD.01 24-Apr-2013

 --------------------
 #p B2PLYPD3/Def2QZVP
 --------------------

 ---
 h2o
 ---
 Symbolic Z-matrix:
 Charge =  0 Multiplicity = 1

                         Standard orientation:
 ---------------------------------------------------------------------
 Center     Atomic      Atomic             Coordinates (Angstroms)
 Number     Number       Type             X           Y           Z
 ---------------------------------------------------------------------
      1          8           0        0.000000    0.118561    0.000000
      2          1           0        0.756765   -0.476339    0.000000
      3          1           0       -0.756765   -0.472146    0.000000
 ---------------------------------------------------------------------

 SCF Done:  E(RB2PLYPD3) =  -76.3349895718     A.U. after   10 cycles
 E2(B2PLYPD3) =    -0.9010368342D-01 E(B2PLYPD3) =    -0.76425093255226D+02

 The electronic state is 1-A'.
 Alpha  occ. eigenvalues --  -19.73205  -1.15613  -0.61010  -0.47580  -0.39964
 Alpha virt. eigenvalues --    0.04493   0.10198   0.27545   0.30416   0.30862
 Alpha virt. eigenvalues --    0.35922   0.43904   0.50090   0.56349   0.61928
 Alpha virt. eigenvalues --    0.65715   0.81137   0.93847   0.95970   1.03510

 Mulliken charges:
               1
     1  O   -0.443425
     2  H    0.222278
     3  H    0.221147
 Sum of Mulliken charges =   0.00000

 Dipole moment (field-independent basis, Debye):
    X=             -0.0013    Y=             -1.9752    Z=              0.0000  Tot=              1.9752
 Quadrupole moment (field-independent basis, Debye-Ang):
   XX=             -4.3662   YY=             -6.3040   ZZ=             -7.5979
   XY=             -0.0068   XZ=              0.0000   YZ=              0.0000

 1\1\GINC-NODE01\SP\RB2PLYPD3-FC\def2QZVP\H2O1\BOITTIER\26-Aug-2020\0\\
 #p B2PLYPD3/Def2QZVP\\h2o\\0,1\O,0,-5.326605,-0.762982,0.929736\H,0,-4
 .368927,-0.731742,0.837671\H,0,-5.609308,0.12349,0.693359\\Version=ES6
 4L-G09RevD.01\State=1-A'\HF=-76.3349896\MP2=-76.4250933\RMSD=4.117e-09
 \PG=CS [SG(H2O1)]\\@

 The theorems and results in mathematical physics are

 Normal termination of Gaussian 09 at Wed Aug 26 09:21:37 2020.
