 Gaussian 09, Revision D.01,
 Gaussian 09:  ES64L-G09RevD.01 24-Apr-2013

 --------------------
 #p B2PLYPD3/Def2QZVP
 --------------------

 ---
 h2o
 ---
 Symbolic Z-matrix:
 Charge =  0 Multiplicity = 1

                         Standard orientation:
 ---------------------------------------------------------------------
 Center     Atomic      Atomic             Coordinates (Angstroms)
 Number     Number       Type             X           Y           Z
 ---------------------------------------------------------------------
      1          8           0        0.000000    0.119185    0.000000
      2          1           0        0.775800   -0.455565    0.000000
      3          1           0       -0.775800   -0.497912    0.000000
 ---------------------------------------------------------------------

 SCF Done:  E(RB2PLYPD3) =  -76.3334788712     A.U. after   10 cycles
 E2(B2PLYPD3) =    -0.9063614875D-01 E(B2PLYPD3) =    -0.76424115019950D+02

 The electronic state is 1-A'.
 Alpha  occ. eigenvalues --  -19.73423  -1.14760  -0.60446  -0.47139  -0.39795
 Alpha virt. eigenvalues --    0.04309   0.10011   0.27629   0.30460   0.30568
 Alpha virt. eigenvalues --    0.35020   0.43451   0.50135   0.55958   0.62116
 Alpha virt. eigenvalues --    0.66108   0.80616   0.93135   0.96323   1.02461

 Mulliken charges:
               1
     1  O   -0.458028
     2  H    0.223886
     3  H    0.234142
 Sum of Mulliken charges =   0.00000

 Dipole moment (field-independent basis, Debye):
    X=              0.0130    Y=             -1.9695    Z=              0.0000  Tot=              1.9696
 Quadrupole moment (field-independent basis, Debye-Ang):
   XX=             -4.2816   YY=             -6.3444   ZZ=             -7.6385
   XY=              0.0706   XZ=              0.0000   YZ=              0.0000

 1\1\GINC-NODE25\SP\RB2PLYPD3-FC\def2QZVP\H2O1\BOITTIER\26-Aug-2020\0\\
 #p B2PLYPD3/Def2QZVP\\h2o\\0,1\O,0,-5.326605,-0.766503,0.908674\H,0,-4
 .368927,-0.732989,1.026711\H,0,-5.609308,0.181082,0.839134\\Version=ES
 64L-G09RevD.01\State=1-A'\HF=-76.3334789\MP2=-76.424115\RMSD=4.210e-09
 \PG=CS [SG(H2O1)]\\@

 IN THE UNIVERSE THE DIFFICULT THINGS ARE DONE AS IF THEY WERE EASY.

 Normal termination of Gaussian 09 at Wed Aug 26 09:28:24 2020.
