 Gaussian 09, Revision D.01,
 Gaussian 09:  ES64L-G09RevD.01 24-Apr-2013

 --------------------
 #p B2PLYPD3/Def2QZVP
 --------------------

 ---
 h2o
 ---
 Symbolic Z-matrix:
 Charge =  0 Multiplicity = 1

                         Standard orientation:
 ---------------------------------------------------------------------
 Center     Atomic      Atomic             Coordinates (Angstroms)
 Number     Number       Type             X           Y           Z
 ---------------------------------------------------------------------
      1          8           0        0.000000    0.113525    0.000000
      2          1           0        0.766213   -0.461776    0.000000
      3          1           0       -0.766213   -0.446425    0.000000
 ---------------------------------------------------------------------

 SCF Done:  E(RB2PLYPD3) =  -76.3351872275     A.U. after   10 cycles
 E2(B2PLYPD3) =    -0.8976382155D-01 E(B2PLYPD3) =    -0.76424951049045D+02

 The electronic state is 1-A'.
 Alpha  occ. eigenvalues --  -19.72954  -1.15760  -0.61934  -0.47098  -0.39954
 Alpha virt. eigenvalues --    0.04635   0.10216   0.27445   0.30406   0.31308
 Alpha virt. eigenvalues --    0.35744   0.44111   0.50752   0.55981   0.62913
 Alpha virt. eigenvalues --    0.65454   0.81135   0.93772   0.95889   1.04725

 Mulliken charges:
               1
     1  O   -0.443947
     2  H    0.224097
     3  H    0.219849
 Sum of Mulliken charges =   0.00000

 Dipole moment (field-independent basis, Debye):
    X=             -0.0044    Y=             -1.9217    Z=              0.0000  Tot=              1.9217
 Quadrupole moment (field-independent basis, Debye-Ang):
   XX=             -4.2512   YY=             -6.3895   ZZ=             -7.5861
   XY=             -0.0260   XZ=              0.0000   YZ=              0.0000

 1\1\GINC-NODE34\SP\RB2PLYPD3-FC\def2QZVP\H2O1\BOITTIER\26-Aug-2020\0\\
 #p B2PLYPD3/Def2QZVP\\h2o\\0,1\O,0,-5.326605,-0.762506,0.91594\H,0,-4.
 368927,-0.752581,0.944375\H,0,-5.609308,0.136715,0.80591\\Version=ES64
 L-G09RevD.01\State=1-A'\HF=-76.3351872\MP2=-76.424951\RMSD=3.976e-09\P
 G=CS [SG(H2O1)]\\@

 THERE IS SOMETHING FASCINATING ABOUT SCIENCE.

 Normal termination of Gaussian 09 at Wed Aug 26 11:21:42 2020.
