 Gaussian 09, Revision D.01,
 Gaussian 09:  ES64L-G09RevD.01 24-Apr-2013

 --------------------
 #p B2PLYPD3/Def2QZVP
 --------------------

 ---
 h2o
 ---
 Symbolic Z-matrix:
 Charge =  0 Multiplicity = 1

                         Standard orientation:
 ---------------------------------------------------------------------
 Center     Atomic      Atomic             Coordinates (Angstroms)
 Number     Number       Type             X           Y           Z
 ---------------------------------------------------------------------
      1          8           0        0.000000    0.114064    0.000000
      2          1           0        0.713818   -0.533388    0.000000
      3          1           0       -0.713818   -0.379122    0.000000
 ---------------------------------------------------------------------

 SCF Done:  E(RB2PLYPD3) =  -76.3262504053     A.U. after   10 cycles
 E2(B2PLYPD3) =    -0.8866080117D-01 E(B2PLYPD3) =    -0.76414911206434D+02

 The electronic state is 1-A'.
 Alpha  occ. eigenvalues --  -19.72423  -1.18179  -0.63015  -0.48303  -0.40401
 Alpha virt. eigenvalues --    0.04854   0.10629   0.27174   0.30292   0.31278
 Alpha virt. eigenvalues --    0.37996   0.45581   0.50384   0.56897   0.62121
 Alpha virt. eigenvalues --    0.64514   0.82105   0.94242   0.95377   1.05316

 Mulliken charges:
               1
     1  O   -0.392763
     2  H    0.224445
     3  H    0.168318
 Sum of Mulliken charges =   0.00000

 Dipole moment (field-independent basis, Debye):
    X=             -0.0508    Y=             -1.9545    Z=              0.0000  Tot=              1.9552
 Quadrupole moment (field-independent basis, Debye-Ang):
   XX=             -4.5038   YY=             -6.2271   ZZ=             -7.4886
   XY=             -0.2399   XZ=              0.0000   YZ=              0.0000

 1\1\GINC-NODE16\SP\RB2PLYPD3-FC\def2QZVP\H2O1\BOITTIER\26-Aug-2020\0\\
 #p B2PLYPD3/Def2QZVP\\h2o\\0,1\O,0,-5.326605,-0.761123,0.925374\H,0,-4
 .368927,-0.675592,0.860055\H,0,-5.609308,0.037598,0.738581\\Version=ES
 64L-G09RevD.01\State=1-A'\HF=-76.3262504\MP2=-76.4149112\RMSD=6.760e-0
 9\PG=CS [SG(H2O1)]\\@

 CHARLIE BROWN.."I CAN'T GET THAT STUPID KITE IN THE

 Normal termination of Gaussian 09 at Wed Aug 26 09:03:56 2020.
