 Gaussian 09, Revision D.01,
 Gaussian 09:  ES64L-G09RevD.01 24-Apr-2013

 --------------------
 #p B2PLYPD3/Def2QZVP
 --------------------

 ---
 h2o
 ---
 Symbolic Z-matrix:
 Charge =  0 Multiplicity = 1

                         Standard orientation:
 ---------------------------------------------------------------------
 Center     Atomic      Atomic             Coordinates (Angstroms)
 Number     Number       Type             X           Y           Z
 ---------------------------------------------------------------------
      1          8           0        0.000000    0.124891    0.000000
      2          1           0        0.719770   -0.526687    0.000000
      3          1           0       -0.719770   -0.472441    0.000000
 ---------------------------------------------------------------------

 SCF Done:  E(RB2PLYPD3) =  -76.3331923621     A.U. after   10 cycles
 E2(B2PLYPD3) =    -0.9003787342D-01 E(B2PLYPD3) =    -0.76423230235558D+02

 The electronic state is 1-A'.
 Alpha  occ. eigenvalues --  -19.73289  -1.16469  -0.60268  -0.48784  -0.40172
 Alpha virt. eigenvalues --    0.04437   0.10382   0.27579   0.30376   0.30477
 Alpha virt. eigenvalues --    0.37093   0.44211   0.49355   0.57307   0.60405
 Alpha virt. eigenvalues --    0.65568   0.81455   0.94733   0.95750   1.03112

 Mulliken charges:
               1
     1  O   -0.424741
     2  H    0.220380
     3  H    0.204361
 Sum of Mulliken charges =   0.00000

 Dipole moment (field-independent basis, Debye):
    X=             -0.0206    Y=             -2.0544    Z=              0.0000  Tot=              2.0545
 Quadrupole moment (field-independent basis, Debye-Ang):
   XX=             -4.6293   YY=             -6.1283   ZZ=             -7.5694
   XY=             -0.0801   XZ=              0.0000   YZ=              0.0000

 1\1\GINC-NODE40\SP\RB2PLYPD3-FC\def2QZVP\H2O1\BOITTIER\26-Aug-2020\0\\
 #p B2PLYPD3/Def2QZVP\\h2o\\0,1\O,0,-5.326605,-0.768373,0.926529\H,0,-4
 .368927,-0.611833,0.895365\H,0,-5.609308,0.08984,0.684819\\Version=ES6
 4L-G09RevD.01\State=1-A'\HF=-76.3331924\MP2=-76.4232302\RMSD=5.358e-09
 \PG=CS [SG(H2O1)]\\@

 A FOOL CAN ASK MORE QUESTIONS THAN

 Normal termination of Gaussian 09 at Wed Aug 26 08:36:22 2020.
