 Gaussian 09, Revision D.01,
 Gaussian 09:  ES64L-G09RevD.01 24-Apr-2013

 --------------------
 #p B2PLYPD3/Def2QZVP
 --------------------

 ---
 h2o
 ---
 Symbolic Z-matrix:
 Charge =  0 Multiplicity = 1

                         Standard orientation:
 ---------------------------------------------------------------------
 Center     Atomic      Atomic             Coordinates (Angstroms)
 Number     Number       Type             X           Y           Z
 ---------------------------------------------------------------------
      1          8           0        0.000000    0.118547    0.000000
      2          1           0        0.752132   -0.477512    0.000000
      3          1           0       -0.752132   -0.470863    0.000000
 ---------------------------------------------------------------------

 SCF Done:  E(RB2PLYPD3) =  -76.3350811706     A.U. after   10 cycles
 E2(B2PLYPD3) =    -0.8999314514D-01 E(B2PLYPD3) =    -0.76425074315776D+02

 The electronic state is 1-A'.
 Alpha  occ. eigenvalues --  -19.73160  -1.15812  -0.61114  -0.47694  -0.40003
 Alpha virt. eigenvalues --    0.04527   0.10239   0.27526   0.30405   0.30905
 Alpha virt. eigenvalues --    0.36139   0.44010   0.50066   0.56446   0.61860
 Alpha virt. eigenvalues --    0.65630   0.81244   0.93992   0.95889   1.03714

 Mulliken charges:
               1
     1  O   -0.439844
     2  H    0.220841
     3  H    0.219003
 Sum of Mulliken charges =   0.00000

 Dipole moment (field-independent basis, Debye):
    X=             -0.0021    Y=             -1.9778    Z=              0.0000  Tot=              1.9778
 Quadrupole moment (field-independent basis, Debye-Ang):
   XX=             -4.3883   YY=             -6.2921   ZZ=             -7.5889
   XY=             -0.0107   XZ=              0.0000   YZ=              0.0000

 1\1\GINC-NODE17\SP\RB2PLYPD3-FC\def2QZVP\H2O1\BOITTIER\26-Aug-2020\0\\
 #p B2PLYPD3/Def2QZVP\\h2o\\0,1\O,0,-5.326605,-0.765159,0.92167\H,0,-4.
 368927,-0.703552,0.914906\H,0,-5.609308,0.130141,0.743841\\Version=ES6
 4L-G09RevD.01\State=1-A'\HF=-76.3350812\MP2=-76.4250743\RMSD=4.199e-09
 \PG=CS [SG(H2O1)]\\@

 THE MORE ACCURATE THE CALCULATIONS BECOME, THE MORE THE CONCEPTS

 Normal termination of Gaussian 09 at Wed Aug 26 09:56:07 2020.
