 Gaussian 09, Revision D.01,
 Gaussian 09:  ES64L-G09RevD.01 24-Apr-2013

 --------------------
 #p B2PLYPD3/Def2QZVP
 --------------------

 ---
 h2o
 ---
 Symbolic Z-matrix:
 Charge =  0 Multiplicity = 1

                         Standard orientation:
 ---------------------------------------------------------------------
 Center     Atomic      Atomic             Coordinates (Angstroms)
 Number     Number       Type             X           Y           Z
 ---------------------------------------------------------------------
      1          8           0        0.000000    0.114711    0.000000
      2          1           0        0.784257   -0.435222    0.000000
      3          1           0       -0.784257   -0.482464    0.000000
 ---------------------------------------------------------------------

 SCF Done:  E(RB2PLYPD3) =  -76.3338441439     A.U. after   10 cycles
 E2(B2PLYPD3) =    -0.9033986807D-01 E(B2PLYPD3) =    -0.76424184011947D+02

 The electronic state is 1-A'.
 Alpha  occ. eigenvalues --  -19.73203  -1.14877  -0.61219  -0.46717  -0.39781
 Alpha virt. eigenvalues --    0.04428   0.10033   0.27537   0.30455   0.30974
 Alpha virt. eigenvalues --    0.34862   0.43615   0.50754   0.55640   0.62988
 Alpha virt. eigenvalues --    0.65886   0.80555   0.93109   0.96287   1.03401

 Mulliken charges:
               1
     1  O   -0.459599
     2  H    0.223946
     3  H    0.235653
 Sum of Mulliken charges =   0.00000

 Dipole moment (field-independent basis, Debye):
    X=              0.0132    Y=             -1.9221    Z=              0.0000  Tot=              1.9222
 Quadrupole moment (field-independent basis, Debye-Ang):
   XX=             -4.1777   YY=             -6.4211   ZZ=             -7.6291
   XY=              0.0817   XZ=              0.0000   YZ=              0.0000

 1\1\GINC-NODE39\SP\RB2PLYPD3-FC\def2QZVP\H2O1\BOITTIER\26-Aug-2020\0\\
 #p B2PLYPD3/Def2QZVP\\h2o\\0,1\O,0,-5.326605,-0.763049,0.918453\H,0,-4
 .368927,-0.778675,0.928125\H,0,-5.609308,0.171511,0.782978\\Version=ES
 64L-G09RevD.01\State=1-A'\HF=-76.3338441\MP2=-76.424184\RMSD=4.236e-09
 \PG=CS [SG(H2O1)]\\@

 NOT WHAT WE DID SHALL BE THE TEST

 Normal termination of Gaussian 09 at Wed Aug 26 08:30:08 2020.
