 Gaussian 09, Revision D.01,
 Gaussian 09:  ES64L-G09RevD.01 24-Apr-2013

 --------------------
 #p B2PLYPD3/Def2QZVP
 --------------------

 ---
 h2o
 ---
 Symbolic Z-matrix:
 Charge =  0 Multiplicity = 1

                         Standard orientation:
 ---------------------------------------------------------------------
 Center     Atomic      Atomic             Coordinates (Angstroms)
 Number     Number       Type             X           Y           Z
 ---------------------------------------------------------------------
      1          8           0        0.000000    0.121474    0.000000
      2          1           0        0.757119   -0.469496    0.000000
      3          1           0       -0.757119   -0.502298    0.000000
 ---------------------------------------------------------------------

 SCF Done:  E(RB2PLYPD3) =  -76.3341326860     A.U. after   10 cycles
 E2(B2PLYPD3) =    -0.9045932717D-01 E(B2PLYPD3) =    -0.76424592013199D+02

 The electronic state is 1-A'.
 Alpha  occ. eigenvalues --  -19.73406  -1.15276  -0.60345  -0.47703  -0.39919
 Alpha virt. eigenvalues --    0.04356   0.10129   0.27628   0.30433   0.30517
 Alpha virt. eigenvalues --    0.35720   0.43664   0.49775   0.56425   0.61471
 Alpha virt. eigenvalues --    0.65971   0.80972   0.93675   0.96148   1.02548

 Mulliken charges:
               1
     1  O   -0.447297
     2  H    0.219431
     3  H    0.227867
 Sum of Mulliken charges =   0.00000

 Dipole moment (field-independent basis, Debye):
    X=              0.0109    Y=             -2.0019    Z=              0.0000  Tot=              2.0019
 Quadrupole moment (field-independent basis, Debye-Ang):
   XX=             -4.4050   YY=             -6.2683   ZZ=             -7.6167
   XY=              0.0525   XZ=              0.0000   YZ=              0.0000

 1\1\GINC-NODE18\SP\RB2PLYPD3-FC\def2QZVP\H2O1\BOITTIER\26-Aug-2020\0\\
 #p B2PLYPD3/Def2QZVP\\h2o\\0,1\O,0,-5.326605,-0.766284,0.925638\H,0,-4
 .368927,-0.702345,0.890425\H,0,-5.609308,0.146929,0.705541\\Version=ES
 64L-G09RevD.01\State=1-A'\HF=-76.3341327\MP2=-76.424592\RMSD=4.339e-09
 \PG=CS [SG(H2O1)]\\@

 GETTING A SIMPLE ANSWER FROM A PROFESSOR IS LIKE

 Normal termination of Gaussian 09 at Wed Aug 26 08:30:12 2020.
