 Gaussian 09, Revision D.01,
 Gaussian 09:  ES64L-G09RevD.01 24-Apr-2013

 --------------------
 #p B2PLYPD3/Def2QZVP
 --------------------

 ---
 h2o
 ---
 Symbolic Z-matrix:
 Charge =  0 Multiplicity = 1

                         Standard orientation:
 ---------------------------------------------------------------------
 Center     Atomic      Atomic             Coordinates (Angstroms)
 Number     Number       Type             X           Y           Z
 ---------------------------------------------------------------------
      1          8           0        0.000000    0.117212    0.000000
      2          1           0        0.748082   -0.483878    0.000000
      3          1           0       -0.748082   -0.453821    0.000000
 ---------------------------------------------------------------------

 SCF Done:  E(RB2PLYPD3) =  -76.3350352213     A.U. after   10 cycles
 E2(B2PLYPD3) =    -0.8974595735D-01 E(B2PLYPD3) =    -0.76424781178638D+02

 The electronic state is 1-A'.
 Alpha  occ. eigenvalues --  -19.73027  -1.16143  -0.61511  -0.47724  -0.40057
 Alpha virt. eigenvalues --    0.04608   0.10301   0.27470   0.30388   0.31061
 Alpha virt. eigenvalues --    0.36411   0.44227   0.50192   0.56479   0.62021
 Alpha virt. eigenvalues --    0.65436   0.81399   0.94133   0.95750   1.04265

 Mulliken charges:
               1
     1  O   -0.434505
     2  H    0.221584
     3  H    0.212921
 Sum of Mulliken charges =   0.00000

 Dipole moment (field-independent basis, Debye):
    X=             -0.0096    Y=             -1.9675    Z=              0.0000  Tot=              1.9675
 Quadrupole moment (field-independent basis, Debye-Ang):
   XX=             -4.3892   YY=             -6.2971   ZZ=             -7.5729
   XY=             -0.0485   XZ=              0.0000   YZ=              0.0000

 1\1\GINC-NODE37\SP\RB2PLYPD3-FC\def2QZVP\H2O1\BOITTIER\26-Aug-2020\0\\
 #p B2PLYPD3/Def2QZVP\\h2o\\0,1\O,0,-5.326605,-0.764024,0.922704\H,0,-4
 .368927,-0.706933,0.899674\H,0,-5.609308,0.115367,0.742548\\Version=ES
 64L-G09RevD.01\State=1-A'\HF=-76.3350352\MP2=-76.4247812\RMSD=4.421e-0
 9\PG=CS [SG(H2O1)]\\@

 IF NO USE IS MADE OF THE LABOR OF PAST AGES,

 Normal termination of Gaussian 09 at Wed Aug 26 09:23:46 2020.
