 Gaussian 09, Revision D.01,
 Gaussian 09:  ES64L-G09RevD.01 24-Apr-2013

 --------------------
 #p B2PLYPD3/Def2QZVP
 --------------------

 ---
 h2o
 ---
 Symbolic Z-matrix:
 Charge =  0 Multiplicity = 1

                         Standard orientation:
 ---------------------------------------------------------------------
 Center     Atomic      Atomic             Coordinates (Angstroms)
 Number     Number       Type             X           Y           Z
 ---------------------------------------------------------------------
      1          8           0        0.000000    0.116015    0.000000
      2          1           0        0.745614   -0.488029    0.000000
      3          1           0       -0.745614   -0.440087    0.000000
 ---------------------------------------------------------------------

 SCF Done:  E(RB2PLYPD3) =  -76.3347133271     A.U. after   10 cycles
 E2(B2PLYPD3) =    -0.8955504482D-01 E(B2PLYPD3) =    -0.76424268371959D+02

 The electronic state is 1-A'.
 Alpha  occ. eigenvalues --  -19.72918  -1.16394  -0.61846  -0.47719  -0.40097
 Alpha virt. eigenvalues --    0.04670   0.10345   0.27423   0.30375   0.31177
 Alpha virt. eigenvalues --    0.36595   0.44403   0.50314   0.56479   0.62188
 Alpha virt. eigenvalues --    0.65283   0.81509   0.94197   0.95654   1.04656

 Mulliken charges:
               1
     1  O   -0.430299
     2  H    0.222278
     3  H    0.208021
 Sum of Mulliken charges =   0.00000

 Dipole moment (field-independent basis, Debye):
    X=             -0.0151    Y=             -1.9574    Z=              0.0000  Tot=              1.9575
 Quadrupole moment (field-independent basis, Debye-Ang):
   XX=             -4.3844   YY=             -6.3040   ZZ=             -7.5608
   XY=             -0.0776   XZ=              0.0000   YZ=              0.0000

 1\1\GINC-NODE20\SP\RB2PLYPD3-FC\def2QZVP\H2O1\BOITTIER\26-Aug-2020\0\\
 #p B2PLYPD3/Def2QZVP\\h2o\\0,1\O,0,-5.326605,-0.763134,0.922947\H,0,-4
 .368927,-0.710992,0.892239\H,0,-5.609308,0.105184,0.74605\\Version=ES6
 4L-G09RevD.01\State=1-A'\HF=-76.3347133\MP2=-76.4242684\RMSD=4.753e-09
 \PG=CS [SG(H2O1)]\\@

 ALL OUR THINKING ABOUT NATURE MUST NECESSARILY MOVE IN CIRCLES OR SPIRALS;

 Normal termination of Gaussian 09 at Wed Aug 26 10:23:29 2020.
