 Gaussian 09, Revision D.01,
 Gaussian 09:  ES64L-G09RevD.01 24-Apr-2013

 --------------------
 #p B2PLYPD3/Def2QZVP
 --------------------

 ---
 h2o
 ---
 Symbolic Z-matrix:
 Charge =  0 Multiplicity = 1

                         Standard orientation:
 ---------------------------------------------------------------------
 Center     Atomic      Atomic             Coordinates (Angstroms)
 Number     Number       Type             X           Y           Z
 ---------------------------------------------------------------------
      1          8           0        0.000000    0.121934    0.000000
      2          1           0        0.767316   -0.462632    0.000000
      3          1           0       -0.767316   -0.512841    0.000000
 ---------------------------------------------------------------------

 SCF Done:  E(RB2PLYPD3) =  -76.3331027122     A.U. after   10 cycles
 E2(B2PLYPD3) =    -0.9075917051D-01 E(B2PLYPD3) =    -0.76423861882657D+02

 The electronic state is 1-A'.
 Alpha  occ. eigenvalues --  -19.73529  -1.14813  -0.60030  -0.47467  -0.39829
 Alpha virt. eigenvalues --    0.04250   0.10024   0.27676   0.30325   0.30457
 Alpha virt. eigenvalues --    0.35240   0.43423   0.49775   0.56213   0.61556
 Alpha virt. eigenvalues --    0.66188   0.80699   0.93249   0.96335   1.01973

 Mulliken charges:
               1
     1  O   -0.454826
     2  H    0.221332
     3  H    0.233494
 Sum of Mulliken charges =   0.00000

 Dipole moment (field-independent basis, Debye):
    X=              0.0165    Y=             -1.9999    Z=              0.0000  Tot=              2.0000
 Quadrupole moment (field-independent basis, Debye-Ang):
   XX=             -4.3618   YY=             -6.2877   ZZ=             -7.6390
   XY=              0.0815   XZ=              0.0000   YZ=              0.0000

 1\1\GINC-NODE29\SP\RB2PLYPD3-FC\def2QZVP\H2O1\BOITTIER\26-Aug-2020\0\\
 #p B2PLYPD3/Def2QZVP\\h2o\\0,1\O,0,-5.326605,-0.768398,0.912679\H,0,-4
 .368927,-0.700852,1.006385\H,0,-5.609308,0.179266,0.795525\\Version=ES
 64L-G09RevD.01\State=1-A'\HF=-76.3331027\MP2=-76.4238619\RMSD=4.427e-0
 9\PG=CS [SG(H2O1)]\\@

 THE ONLY TROUBLE WITH A SURE THING IS THE UNCERTAINTY.

 Normal termination of Gaussian 09 at Wed Aug 26 08:55:30 2020.
