 Gaussian 09, Revision D.01,
 Gaussian 09:  ES64L-G09RevD.01 24-Apr-2013

 --------------------
 #p B2PLYPD3/Def2QZVP
 --------------------

 ---
 h2o
 ---
 Symbolic Z-matrix:
 Charge =  0 Multiplicity = 1

                         Standard orientation:
 ---------------------------------------------------------------------
 Center     Atomic      Atomic             Coordinates (Angstroms)
 Number     Number       Type             X           Y           Z
 ---------------------------------------------------------------------
      1          8           0        0.000000    0.122268    0.000000
      2          1           0        0.760875   -0.465583    0.000000
      3          1           0       -0.760875   -0.512558    0.000000
 ---------------------------------------------------------------------

 SCF Done:  E(RB2PLYPD3) =  -76.3334814111     A.U. after   10 cycles
 E2(B2PLYPD3) =    -0.9064606266D-01 E(B2PLYPD3) =    -0.76424127473713D+02

 The electronic state is 1-A'.
 Alpha  occ. eigenvalues --  -19.73494  -1.15037  -0.60091  -0.47641  -0.39877
 Alpha virt. eigenvalues --    0.04287   0.10075   0.27664   0.30363   0.30445
 Alpha virt. eigenvalues --    0.35503   0.43530   0.49708   0.56361   0.61408
 Alpha virt. eigenvalues --    0.66102   0.80838   0.93466   0.96259   1.02131

 Mulliken charges:
               1
     1  O   -0.450741
     2  H    0.219521
     3  H    0.231220
 Sum of Mulliken charges =   0.00000

 Dipole moment (field-independent basis, Debye):
    X=              0.0157    Y=             -2.0068    Z=              0.0000  Tot=              2.0069
 Quadrupole moment (field-independent basis, Debye-Ang):
   XX=             -4.3979   YY=             -6.2672   ZZ=             -7.6288
   XY=              0.0753   XZ=              0.0000   YZ=              0.0000

 1\1\GINC-NODE25\SP\RB2PLYPD3-FC\def2QZVP\H2O1\BOITTIER\26-Aug-2020\0\\
 #p B2PLYPD3/Def2QZVP\\h2o\\0,1\O,0,-5.326605,-0.765862,0.928996\H,0,-4
 .368927,-0.713256,0.861283\H,0,-5.609308,0.15109,0.681583\\Version=ES6
 4L-G09RevD.01\State=1-A'\HF=-76.3334814\MP2=-76.4241275\RMSD=4.465e-09
 \PG=CS [SG(H2O1)]\\@

 I DON'T EXACTLY UNDERSTAND WHAT YOU ARE SAYING,

 Normal termination of Gaussian 09 at Wed Aug 26 09:12:29 2020.
