 Gaussian 09, Revision D.01,
 Gaussian 09:  ES64L-G09RevD.01 24-Apr-2013

 --------------------
 #p B2PLYPD3/Def2QZVP
 --------------------

 ---
 h2o
 ---
 Symbolic Z-matrix:
 Charge =  0 Multiplicity = 1

                         Standard orientation:
 ---------------------------------------------------------------------
 Center     Atomic      Atomic             Coordinates (Angstroms)
 Number     Number       Type             X           Y           Z
 ---------------------------------------------------------------------
      1          8           0        0.000000    0.121529    0.000000
      2          1           0        0.767084   -0.462972    0.000000
      3          1           0       -0.767084   -0.509260    0.000000
 ---------------------------------------------------------------------

 SCF Done:  E(RB2PLYPD3) =  -76.3333284998     A.U. after   10 cycles
 E2(B2PLYPD3) =    -0.9070408591D-01 E(B2PLYPD3) =    -0.76424032585725D+02

 The electronic state is 1-A'.
 Alpha  occ. eigenvalues --  -19.73501  -1.14865  -0.60124  -0.47456  -0.39836
 Alpha virt. eigenvalues --    0.04273   0.10036   0.27664   0.30383   0.30454
 Alpha virt. eigenvalues --    0.35274   0.43456   0.49818   0.56209   0.61615
 Alpha virt. eigenvalues --    0.66150   0.80727   0.93293   0.96309   1.02106

 Mulliken charges:
               1
     1  O   -0.454280
     2  H    0.221490
     3  H    0.232789
 Sum of Mulliken charges =   0.00000

 Dipole moment (field-independent basis, Debye):
    X=              0.0151    Y=             -1.9964    Z=              0.0000  Tot=              1.9964
 Quadrupole moment (field-independent basis, Debye-Ang):
   XX=             -4.3573   YY=             -6.2925   ZZ=             -7.6360
   XY=              0.0752   XZ=              0.0000   YZ=              0.0000

 1\1\GINC-NODE31\SP\RB2PLYPD3-FC\def2QZVP\H2O1\BOITTIER\26-Aug-2020\0\\
 #p B2PLYPD3/Def2QZVP\\h2o\\0,1\O,0,-5.326605,-0.76813,0.912571\H,0,-4.
 368927,-0.702878,1.005599\H,0,-5.609308,0.177001,0.798034\\Version=ES6
 4L-G09RevD.01\State=1-A'\HF=-76.3333285\MP2=-76.4240326\RMSD=4.373e-09
 \PG=CS [SG(H2O1)]\\@

 TIME GOES, YOU SAY?  AH NO!

 Normal termination of Gaussian 09 at Wed Aug 26 08:40:09 2020.
