 Gaussian 09, Revision D.01,
 Gaussian 09:  ES64L-G09RevD.01 24-Apr-2013

 --------------------
 #p B2PLYPD3/Def2QZVP
 --------------------

 ---
 h2o
 ---
 Symbolic Z-matrix:
 Charge =  0 Multiplicity = 1

                         Standard orientation:
 ---------------------------------------------------------------------
 Center     Atomic      Atomic             Coordinates (Angstroms)
 Number     Number       Type             X           Y           Z
 ---------------------------------------------------------------------
      1          8           0        0.000000    0.115254    0.000000
      2          1           0        0.762507   -0.464795    0.000000
      3          1           0       -0.762507   -0.457241    0.000000
 ---------------------------------------------------------------------

 SCF Done:  E(RB2PLYPD3) =  -76.3352193215     A.U. after   10 cycles
 E2(B2PLYPD3) =    -0.8986415836D-01 E(B2PLYPD3) =    -0.76425083479907D+02

 The electronic state is 1-A'.
 Alpha  occ. eigenvalues --  -19.73035  -1.15732  -0.61631  -0.47277  -0.39962
 Alpha virt. eigenvalues --    0.04591   0.10215   0.27476   0.30408   0.31162
 Alpha virt. eigenvalues --    0.35837   0.44051   0.50511   0.56118   0.62562
 Alpha virt. eigenvalues --    0.65533   0.81157   0.93808   0.95900   1.04332

 Mulliken charges:
               1
     1  O   -0.443368
     2  H    0.222723
     3  H    0.220645
 Sum of Mulliken charges =   0.00000

 Dipole moment (field-independent basis, Debye):
    X=             -0.0023    Y=             -1.9405    Z=              0.0000  Tot=              1.9405
 Quadrupole moment (field-independent basis, Debye-Ang):
   XX=             -4.2928   YY=             -6.3592   ZZ=             -7.5890
   XY=             -0.0126   XZ=              0.0000   YZ=              0.0000

 1\1\GINC-NODE11\SP\RB2PLYPD3-FC\def2QZVP\H2O1\BOITTIER\26-Aug-2020\0\\
 #p B2PLYPD3/Def2QZVP\\h2o\\0,1\O,0,-5.326605,-0.76339,0.918668\H,0,-4.
 368927,-0.738146,0.928084\H,0,-5.609308,0.136427,0.778756\\Version=ES6
 4L-G09RevD.01\State=1-A'\HF=-76.3352193\MP2=-76.4250835\RMSD=3.995e-09
 \PG=CS [SG(H2O1)]\\@

 THE DIFFERENCE BETWEEN A NOOSE AND A HALO IS ONLY 12 INCHES.

 Normal termination of Gaussian 09 at Wed Aug 26 10:20:43 2020.
