 Gaussian 09, Revision D.01,
 Gaussian 09:  ES64L-G09RevD.01 24-Apr-2013

 --------------------
 #p B2PLYPD3/Def2QZVP
 --------------------

 ---
 h2o
 ---
 Symbolic Z-matrix:
 Charge =  0 Multiplicity = 1

                         Standard orientation:
 ---------------------------------------------------------------------
 Center     Atomic      Atomic             Coordinates (Angstroms)
 Number     Number       Type             X           Y           Z
 ---------------------------------------------------------------------
      1          8           0        0.000000    0.120112    0.000000
      2          1           0        0.765417   -0.457866    0.000000
      3          1           0       -0.765417   -0.503027    0.000000
 ---------------------------------------------------------------------

 SCF Done:  E(RB2PLYPD3) =  -76.3339021170     A.U. after   10 cycles
 E2(B2PLYPD3) =    -0.9049525201D-01 E(B2PLYPD3) =    -0.76424397369060D+02

 The electronic state is 1-A'.
 Alpha  occ. eigenvalues --  -19.73390  -1.15087  -0.60473  -0.47432  -0.39869
 Alpha virt. eigenvalues --    0.04349   0.10085   0.27618   0.30443   0.30562
 Alpha virt. eigenvalues --    0.35439   0.43604   0.49967   0.56202   0.61817
 Alpha virt. eigenvalues --    0.65998   0.80841   0.93423   0.96213   1.02579

 Mulliken charges:
               1
     1  O   -0.451508
     2  H    0.220068
     3  H    0.231440
 Sum of Mulliken charges =   0.00000

 Dipole moment (field-independent basis, Debye):
    X=              0.0145    Y=             -1.9843    Z=              0.0000  Tot=              1.9844
 Quadrupole moment (field-independent basis, Debye-Ang):
   XX=             -4.3456   YY=             -6.3059   ZZ=             -7.6242
   XY=              0.0738   XZ=              0.0000   YZ=              0.0000

 1\1\GINC-NODE30\SP\RB2PLYPD3-FC\def2QZVP\H2O1\BOITTIER\26-Aug-2020\0\\
 #p B2PLYPD3/Def2QZVP\\h2o\\0,1\O,0,-5.326605,-0.765549,0.924839\H,0,-4
 .368927,-0.724043,0.892432\H,0,-5.609308,0.156876,0.716572\\Version=ES
 64L-G09RevD.01\State=1-A'\HF=-76.3339021\MP2=-76.4243974\RMSD=4.376e-0
 9\PG=CS [SG(H2O1)]\\@

 HAPPINESS IS NOT HAVING WHAT YOU WANT --

 Normal termination of Gaussian 09 at Wed Aug 26 08:32:58 2020.
