 Gaussian 09, Revision D.01,
 Gaussian 09:  ES64L-G09RevD.01 24-Apr-2013

 --------------------
 #p B2PLYPD3/Def2QZVP
 --------------------

 ---
 h2o
 ---
 Symbolic Z-matrix:
 Charge =  0 Multiplicity = 1

                         Standard orientation:
 ---------------------------------------------------------------------
 Center     Atomic      Atomic             Coordinates (Angstroms)
 Number     Number       Type             X           Y           Z
 ---------------------------------------------------------------------
      1          8           0        0.000000    0.118247    0.000000
      2          1           0        0.733199   -0.505134    0.000000
      3          1           0       -0.733199   -0.440842    0.000000
 ---------------------------------------------------------------------

 SCF Done:  E(RB2PLYPD3) =  -76.3339310894     A.U. after   10 cycles
 E2(B2PLYPD3) =    -0.8952961314D-01 E(B2PLYPD3) =    -0.76423460702519D+02

 The electronic state is 1-A'.
 Alpha  occ. eigenvalues --  -19.72947  -1.16693  -0.61588  -0.48129  -0.40168
 Alpha virt. eigenvalues --    0.04646   0.10407   0.27430   0.30363   0.31020
 Alpha virt. eigenvalues --    0.37030   0.44520   0.50007   0.56800   0.61642
 Alpha virt. eigenvalues --    0.65244   0.81625   0.94416   0.95588   1.04407

 Mulliken charges:
               1
     1  O   -0.423513
     2  H    0.221622
     3  H    0.201891
 Sum of Mulliken charges =   0.00000

 Dipole moment (field-independent basis, Debye):
    X=             -0.0216    Y=             -1.9854    Z=              0.0000  Tot=              1.9856
 Quadrupole moment (field-independent basis, Debye-Ang):
   XX=             -4.4735   YY=             -6.2433   ZZ=             -7.5510
   XY=             -0.1008   XZ=              0.0000   YZ=              0.0000

 1\1\GINC-NODE21\SP\RB2PLYPD3-FC\def2QZVP\H2O1\BOITTIER\26-Aug-2020\0\\
 #p B2PLYPD3/Def2QZVP\\h2o\\0,1\O,0,-5.326605,-0.76426,0.924741\H,0,-4.
 368927,-0.678057,0.884655\H,0,-5.609308,0.090257,0.724639\\Version=ES6
 4L-G09RevD.01\State=1-A'\HF=-76.3339311\MP2=-76.4234607\RMSD=5.286e-09
 \PG=CS [SG(H2O1)]\\@

 SATCHEL PAIGE'S GUIDE TO LONGEVITY

 Normal termination of Gaussian 09 at Wed Aug 26 08:32:56 2020.
