 Gaussian 09, Revision D.01,
 Gaussian 09:  ES64L-G09RevD.01 24-Apr-2013

 --------------------
 #p B2PLYPD3/Def2QZVP
 --------------------

 ---
 h2o
 ---
 Symbolic Z-matrix:
 Charge =  0 Multiplicity = 1

                         Standard orientation:
 ---------------------------------------------------------------------
 Center     Atomic      Atomic             Coordinates (Angstroms)
 Number     Number       Type             X           Y           Z
 ---------------------------------------------------------------------
      1          8           0        0.000000    0.116251    0.000000
      2          1           0        0.757786   -0.471949    0.000000
      3          1           0       -0.757786   -0.458063    0.000000
 ---------------------------------------------------------------------

 SCF Done:  E(RB2PLYPD3) =  -76.3352055130     A.U. after   10 cycles
 E2(B2PLYPD3) =    -0.8986355675D-01 E(B2PLYPD3) =    -0.76425069069778D+02

 The electronic state is 1-A'.
 Alpha  occ. eigenvalues --  -19.73057  -1.15827  -0.61514  -0.47442  -0.39988
 Alpha virt. eigenvalues --    0.04584   0.10237   0.27484   0.30404   0.31094
 Alpha virt. eigenvalues --    0.36008   0.44078   0.50360   0.56249   0.62324
 Alpha virt. eigenvalues --    0.65532   0.81228   0.93903   0.95865   1.04200

 Mulliken charges:
               1
     1  O   -0.440967
     2  H    0.222413
     3  H    0.218554
 Sum of Mulliken charges =   0.00000

 Dipole moment (field-independent basis, Debye):
    X=             -0.0043    Y=             -1.9528    Z=              0.0000  Tot=              1.9528
 Quadrupole moment (field-independent basis, Debye-Ang):
   XX=             -4.3294   YY=             -6.3346   ZZ=             -7.5858
   XY=             -0.0229   XZ=              0.0000   YZ=              0.0000

 1\1\GINC-NODE14\SP\RB2PLYPD3-FC\def2QZVP\H2O1\BOITTIER\26-Aug-2020\0\\
 #p B2PLYPD3/Def2QZVP\\h2o\\0,1\O,0,-5.326605,-0.764336,0.916454\H,0,-4
 .368927,-0.721279,0.951352\H,0,-5.609308,0.1347,0.790398\\Version=ES64
 L-G09RevD.01\State=1-A'\HF=-76.3352055\MP2=-76.4250691\RMSD=4.108e-09\
 PG=CS [SG(H2O1)]\\@

 ERWIN WITH HIS PSI CAN DO

 Normal termination of Gaussian 09 at Wed Aug 26 12:49:38 2020.
