 Gaussian 09, Revision D.01,
 Gaussian 09:  ES64L-G09RevD.01 24-Apr-2013

 --------------------
 #p B2PLYPD3/Def2QZVP
 --------------------

 ---
 h2o
 ---
 Symbolic Z-matrix:
 Charge =  0 Multiplicity = 1

                         Standard orientation:
 ---------------------------------------------------------------------
 Center     Atomic      Atomic             Coordinates (Angstroms)
 Number     Number       Type             X           Y           Z
 ---------------------------------------------------------------------
      1          8           0        0.000000    0.116440    0.000000
      2          1           0        0.743054   -0.491554    0.000000
      3          1           0       -0.743054   -0.439969    0.000000
 ---------------------------------------------------------------------

 SCF Done:  E(RB2PLYPD3) =  -76.3345779923     A.U. after   10 cycles
 E2(B2PLYPD3) =    -0.8954459062D-01 E(B2PLYPD3) =    -0.76424122582894D+02

 The electronic state is 1-A'.
 Alpha  occ. eigenvalues --  -19.72921  -1.16460  -0.61803  -0.47802  -0.40112
 Alpha virt. eigenvalues --    0.04667   0.10359   0.27424   0.30372   0.31148
 Alpha virt. eigenvalues --    0.36690   0.44430   0.50251   0.56544   0.62080
 Alpha virt. eigenvalues --    0.65272   0.81539   0.94243   0.95636   1.04611

 Mulliken charges:
               1
     1  O   -0.428816
     2  H    0.222133
     3  H    0.206683
 Sum of Mulliken charges =   0.00000

 Dipole moment (field-independent basis, Debye):
    X=             -0.0165    Y=             -1.9629    Z=              0.0000  Tot=              1.9630
 Quadrupole moment (field-independent basis, Debye-Ang):
   XX=             -4.4024   YY=             -6.2919   ZZ=             -7.5585
   XY=             -0.0830   XZ=              0.0000   YZ=              0.0000

 1\1\GINC-NODE06\SP\RB2PLYPD3-FC\def2QZVP\H2O1\BOITTIER\26-Aug-2020\0\\
 #p B2PLYPD3/Def2QZVP\\h2o\\0,1\O,0,-5.326605,-0.763293,0.923549\H,0,-4
 .368927,-0.704959,0.888386\H,0,-5.609308,0.101692,0.740245\\Version=ES
 64L-G09RevD.01\State=1-A'\HF=-76.334578\MP2=-76.4241226\RMSD=4.867e-09
 \PG=CS [SG(H2O1)]\\@

 "TIGER, TIGER BURNING BRIGHT

 Normal termination of Gaussian 09 at Wed Aug 26 10:55:42 2020.
