 Gaussian 09, Revision D.01,
 Gaussian 09:  ES64L-G09RevD.01 24-Apr-2013

 --------------------
 #p B2PLYPD3/Def2QZVP
 --------------------

 ---
 h2o
 ---
 Symbolic Z-matrix:
 Charge =  0 Multiplicity = 1

                         Standard orientation:
 ---------------------------------------------------------------------
 Center     Atomic      Atomic             Coordinates (Angstroms)
 Number     Number       Type             X           Y           Z
 ---------------------------------------------------------------------
      1          8           0        0.000000    0.123684    0.000000
      2          1           0        0.739648   -0.498871    0.000000
      3          1           0       -0.739648   -0.490598    0.000000
 ---------------------------------------------------------------------

 SCF Done:  E(RB2PLYPD3) =  -76.3342550067     A.U. after   10 cycles
 E2(B2PLYPD3) =    -0.9032433645D-01 E(B2PLYPD3) =    -0.76424579343166D+02

 The electronic state is 1-A'.
 Alpha  occ. eigenvalues --  -19.73397  -1.15749  -0.60189  -0.48242  -0.40030
 Alpha virt. eigenvalues --    0.04384   0.10234   0.27629   0.30409   0.30470
 Alpha virt. eigenvalues --    0.36335   0.43843   0.49491   0.56873   0.60860
 Alpha virt. eigenvalues --    0.65850   0.81211   0.94229   0.95989   1.02656

 Mulliken charges:
               1
     1  O   -0.437875
     2  H    0.220060
     3  H    0.217814
 Sum of Mulliken charges =   0.00000

 Dipole moment (field-independent basis, Debye):
    X=             -0.0030    Y=             -2.0324    Z=              0.0000  Tot=              2.0324
 Quadrupole moment (field-independent basis, Debye-Ang):
   XX=             -4.5198   YY=             -6.1964   ZZ=             -7.5979
   XY=             -0.0127   XZ=              0.0000   YZ=              0.0000

 1\1\GINC-NODE22\SP\RB2PLYPD3-FC\def2QZVP\H2O1\BOITTIER\26-Aug-2020\0\\
 #p B2PLYPD3/Def2QZVP\\h2o\\0,1\O,0,-5.326605,-0.765763,0.932069\H,0,-4
 .368927,-0.674931,0.835862\H,0,-5.609308,0.111188,0.657373\\Version=ES
 64L-G09RevD.01\State=1-A'\HF=-76.334255\MP2=-76.4245793\RMSD=4.515e-09
 \PG=CS [SG(H2O1)]\\@

 IF AT FIRST YOU DON'T SUCCEED, TRY LOOKING IN

 Normal termination of Gaussian 09 at Wed Aug 26 09:21:24 2020.
