 Gaussian 09, Revision D.01,
 Gaussian 09:  ES64L-G09RevD.01 24-Apr-2013

 --------------------
 #p B2PLYPD3/Def2QZVP
 --------------------

 ---
 h2o
 ---
 Symbolic Z-matrix:
 Charge =  0 Multiplicity = 1

                         Standard orientation:
 ---------------------------------------------------------------------
 Center     Atomic      Atomic             Coordinates (Angstroms)
 Number     Number       Type             X           Y           Z
 ---------------------------------------------------------------------
      1          8           0        0.000000    0.114850    0.000000
      2          1           0        0.760213   -0.468477    0.000000
      3          1           0       -0.760213   -0.450324    0.000000
 ---------------------------------------------------------------------

 SCF Done:  E(RB2PLYPD3) =  -76.3352223197     A.U. after   10 cycles
 E2(B2PLYPD3) =    -0.8976501321D-01 E(B2PLYPD3) =    -0.76424987332931D+02

 The electronic state is 1-A'.
 Alpha  occ. eigenvalues --  -19.72985  -1.15877  -0.61778  -0.47311  -0.39988
 Alpha virt. eigenvalues --    0.04624   0.10243   0.27456   0.30401   0.31217
 Alpha virt. eigenvalues --    0.35967   0.44141   0.50544   0.56150   0.62597
 Alpha virt. eigenvalues --    0.65455   0.81233   0.93885   0.95839   1.04542

 Mulliken charges:
               1
     1  O   -0.440882
     2  H    0.222984
     3  H    0.217898
 Sum of Mulliken charges =   0.00000

 Dipole moment (field-independent basis, Debye):
    X=             -0.0054    Y=             -1.9380    Z=              0.0000  Tot=              1.9380
 Quadrupole moment (field-independent basis, Debye-Ang):
   XX=             -4.2985   YY=             -6.3578   ZZ=             -7.5821
   XY=             -0.0303   XZ=              0.0000   YZ=              0.0000

 1\1\GINC-NODE32\SP\RB2PLYPD3-FC\def2QZVP\H2O1\BOITTIER\26-Aug-2020\0\\
 #p B2PLYPD3/Def2QZVP\\h2o\\0,1\O,0,-5.326605,-0.763234,0.91772\H,0,-4.
 368927,-0.735626,0.934604\H,0,-5.609308,0.13141,0.787193\\Version=ES64
 L-G09RevD.01\State=1-A'\HF=-76.3352223\MP2=-76.4249873\RMSD=4.092e-09\
 PG=CS [SG(H2O1)]\\@

 We make a living by what we get,

 Normal termination of Gaussian 09 at Wed Aug 26 12:46:05 2020.
