 Gaussian 09, Revision D.01,
 Gaussian 09:  ES64L-G09RevD.01 24-Apr-2013

 --------------------
 #p B2PLYPD3/Def2QZVP
 --------------------

 ---
 h2o
 ---
 Symbolic Z-matrix:
 Charge =  0 Multiplicity = 1

                         Standard orientation:
 ---------------------------------------------------------------------
 Center     Atomic      Atomic             Coordinates (Angstroms)
 Number     Number       Type             X           Y           Z
 ---------------------------------------------------------------------
      1          8           0        0.000000    0.117277    0.000000
      2          1           0        0.753183   -0.480280    0.000000
      3          1           0       -0.753183   -0.457937    0.000000
 ---------------------------------------------------------------------

 SCF Done:  E(RB2PLYPD3) =  -76.3351162277     A.U. after   10 cycles
 E2(B2PLYPD3) =    -0.8987208077D-01 E(B2PLYPD3) =    -0.76424988308500D+02

 The electronic state is 1-A'.
 Alpha  occ. eigenvalues --  -19.73082  -1.15912  -0.61383  -0.47604  -0.40013
 Alpha virt. eigenvalues --    0.04572   0.10256   0.27494   0.30400   0.31019
 Alpha virt. eigenvalues --    0.36168   0.44099   0.50214   0.56378   0.62086
 Alpha virt. eigenvalues --    0.65536   0.81284   0.93991   0.95841   1.04046

 Mulliken charges:
               1
     1  O   -0.438745
     2  H    0.222504
     3  H    0.216241
 Sum of Mulliken charges =   0.00000

 Dipole moment (field-independent basis, Debye):
    X=             -0.0071    Y=             -1.9652    Z=              0.0000  Tot=              1.9652
 Quadrupole moment (field-independent basis, Debye-Ang):
   XX=             -4.3657   YY=             -6.3100   ZZ=             -7.5831
   XY=             -0.0364   XZ=              0.0000   YZ=              0.0000

 1\1\GINC-NODE39\SP\RB2PLYPD3-FC\def2QZVP\H2O1\BOITTIER\26-Aug-2020\0\\
 #p B2PLYPD3/Def2QZVP\\h2o\\0,1\O,0,-5.326605,-0.76268,0.927904\H,0,-4.
 368927,-0.728235,0.85028\H,0,-5.609308,0.115163,0.709669\\Version=ES64
 L-G09RevD.01\State=1-A'\HF=-76.3351162\MP2=-76.4249883\RMSD=4.256e-09\
 PG=CS [SG(H2O1)]\\@

 Any fool can criticize, condemn, and complain -- and most do.

 Normal termination of Gaussian 09 at Wed Aug 26 12:08:10 2020.
