 Gaussian 09, Revision D.01,
 Gaussian 09:  ES64L-G09RevD.01 24-Apr-2013

 --------------------
 #p B2PLYPD3/Def2QZVP
 --------------------

 ---
 h2o
 ---
 Symbolic Z-matrix:
 Charge =  0 Multiplicity = 1

                         Standard orientation:
 ---------------------------------------------------------------------
 Center     Atomic      Atomic             Coordinates (Angstroms)
 Number     Number       Type             X           Y           Z
 ---------------------------------------------------------------------
      1          8           0        0.000000    0.117727    0.000000
      2          1           0        0.766473   -0.458500    0.000000
      3          1           0       -0.766473   -0.483319    0.000000
 ---------------------------------------------------------------------

 SCF Done:  E(RB2PLYPD3) =  -76.3346610846     A.U. after   10 cycles
 E2(B2PLYPD3) =    -0.9023993329D-01 E(B2PLYPD3) =    -0.76424901017882D+02

 The electronic state is 1-A'.
 Alpha  occ. eigenvalues --  -19.73240  -1.15297  -0.60980  -0.47300  -0.39893
 Alpha virt. eigenvalues --    0.04453   0.10129   0.27558   0.30432   0.30850
 Alpha virt. eigenvalues --    0.35521   0.43761   0.50245   0.56115   0.62213
 Alpha virt. eigenvalues --    0.65817   0.80937   0.93555   0.96098   1.03327

 Mulliken charges:
               1
     1  O   -0.449642
     2  H    0.221597
     3  H    0.228045
 Sum of Mulliken charges =   0.00000

 Dipole moment (field-independent basis, Debye):
    X=              0.0076    Y=             -1.9616    Z=              0.0000  Tot=              1.9616
 Quadrupole moment (field-independent basis, Debye-Ang):
   XX=             -4.3074   YY=             -6.3391   ZZ=             -7.6117
   XY=              0.0411   XZ=              0.0000   YZ=              0.0000

 1\1\GINC-NODE13\SP\RB2PLYPD3-FC\def2QZVP\H2O1\BOITTIER\26-Aug-2020\0\\
 #p B2PLYPD3/Def2QZVP\\h2o\\0,1\O,0,-5.326605,-0.765243,0.917452\H,0,-4
 .368927,-0.728291,0.949174\H,0,-5.609308,0.156229,0.777073\\Version=ES
 64L-G09RevD.01\State=1-A'\HF=-76.3346611\MP2=-76.424901\RMSD=4.089e-09
 \PG=CS [SG(H2O1)]\\@

 REFRAIN FROM ILLUSIONS, INSIST ON WORK AND NOT WORDS,

 Normal termination of Gaussian 09 at Wed Aug 26 10:57:53 2020.
