 Gaussian 09, Revision D.01,
 Gaussian 09:  ES64L-G09RevD.01 24-Apr-2013

 --------------------
 #p B2PLYPD3/Def2QZVP
 --------------------

 ---
 h2o
 ---
 Symbolic Z-matrix:
 Charge =  0 Multiplicity = 1

                         Standard orientation:
 ---------------------------------------------------------------------
 Center     Atomic      Atomic             Coordinates (Angstroms)
 Number     Number       Type             X           Y           Z
 ---------------------------------------------------------------------
      1          8           0        0.000000    0.117364    0.000000
      2          1           0        0.761440   -0.465710    0.000000
      3          1           0       -0.761440   -0.473203    0.000000
 ---------------------------------------------------------------------

 SCF Done:  E(RB2PLYPD3) =  -76.3350269625     A.U. after   10 cycles
 E2(B2PLYPD3) =    -0.9007666038D-01 E(B2PLYPD3) =    -0.76425103622923D+02

 The electronic state is 1-A'.
 Alpha  occ. eigenvalues --  -19.73168  -1.15547  -0.61177  -0.47408  -0.39941
 Alpha virt. eigenvalues --    0.04510   0.10182   0.27529   0.30419   0.30948
 Alpha virt. eigenvalues --    0.35774   0.43899   0.50254   0.56212   0.62194
 Alpha virt. eigenvalues --    0.65696   0.81085   0.93749   0.95988   1.03691

 Mulliken charges:
               1
     1  O   -0.445403
     2  H    0.221697
     3  H    0.223706
 Sum of Mulliken charges =   0.00000

 Dipole moment (field-independent basis, Debye):
    X=              0.0023    Y=             -1.9612    Z=              0.0000  Tot=              1.9612
 Quadrupole moment (field-independent basis, Debye-Ang):
   XX=             -4.3270   YY=             -6.3308   ZZ=             -7.5997
   XY=              0.0123   XZ=              0.0000   YZ=              0.0000

 1\1\GINC-NODE26\SP\RB2PLYPD3-FC\def2QZVP\H2O1\BOITTIER\26-Aug-2020\0\\
 #p B2PLYPD3/Def2QZVP\\h2o\\0,1\O,0,-5.326605,-0.764965,0.917703\H,0,-4
 .368927,-0.721911,0.945372\H,0,-5.609308,0.145395,0.776691\\Version=ES
 64L-G09RevD.01\State=1-A'\HF=-76.335027\MP2=-76.4251036\RMSD=4.036e-09
 \PG=CS [SG(H2O1)]\\@

 WHEN ALL ELSE FAILS, LOOK AT THE SCHRODINGER EQUATION.

 Normal termination of Gaussian 09 at Wed Aug 26 10:38:34 2020.
