 Gaussian 09, Revision D.01,
 Gaussian 09:  ES64L-G09RevD.01 24-Apr-2013

 --------------------
 #p B2PLYPD3/Def2QZVP
 --------------------

 ---
 h2o
 ---
 Symbolic Z-matrix:
 Charge =  0 Multiplicity = 1

                         Standard orientation:
 ---------------------------------------------------------------------
 Center     Atomic      Atomic             Coordinates (Angstroms)
 Number     Number       Type             X           Y           Z
 ---------------------------------------------------------------------
      1          8           0        0.000000    0.110700    0.000000
      2          1           0        0.802639   -0.416632    0.000000
      3          1           0       -0.802639   -0.468969    0.000000
 ---------------------------------------------------------------------

 SCF Done:  E(RB2PLYPD3) =  -76.3328047953     A.U. after   10 cycles
 E2(B2PLYPD3) =    -0.9037924097D-01 E(B2PLYPD3) =    -0.76423184036306D+02

 The electronic state is 1-A'.
 Alpha  occ. eigenvalues --  -19.73111  -1.14514  -0.61597  -0.46080  -0.39669
 Alpha virt. eigenvalues --    0.04425   0.09949   0.27492   0.30475   0.31230
 Alpha virt. eigenvalues --    0.34189   0.43503   0.51473   0.55133   0.63947
 Alpha virt. eigenvalues --    0.65938   0.80060   0.92808   0.96515   1.03706

 Mulliken charges:
               1
     1  O   -0.470085
     2  H    0.228810
     3  H    0.241275
 Sum of Mulliken charges =   0.00000

 Dipole moment (field-independent basis, Debye):
    X=              0.0128    Y=             -1.8719    Z=              0.0000  Tot=              1.8719
 Quadrupole moment (field-independent basis, Debye-Ang):
   XX=             -4.0300   YY=             -6.5172   ZZ=             -7.6437
   XY=              0.0948   XZ=              0.0000   YZ=              0.0000

 1\1\GINC-NODE31\SP\RB2PLYPD3-FC\def2QZVP\H2O1\BOITTIER\26-Aug-2020\0\\
 #p B2PLYPD3/Def2QZVP\\h2o\\0,1\O,0,-5.326605,-0.760359,0.9176\H,0,-4.3
 68927,-0.832189,0.918722\H,0,-5.609308,0.181983,0.806624\\Version=ES64
 L-G09RevD.01\State=1-A'\HF=-76.3328048\MP2=-76.423184\RMSD=4.299e-09\P
 G=CS [SG(H2O1)]\\@

 WHAT, THEN, IS TIME?  IF NO ONE ASKS ME, I KNOW WHAT IT IS.

 Normal termination of Gaussian 09 at Wed Aug 26 09:09:26 2020.
