 Gaussian 09, Revision D.01,
 Gaussian 09:  ES64L-G09RevD.01 24-Apr-2013

 --------------------
 #p B2PLYPD3/Def2QZVP
 --------------------

 ---
 h2o
 ---
 Symbolic Z-matrix:
 Charge =  0 Multiplicity = 1

                         Standard orientation:
 ---------------------------------------------------------------------
 Center     Atomic      Atomic             Coordinates (Angstroms)
 Number     Number       Type             X           Y           Z
 ---------------------------------------------------------------------
      1          8           0        0.000000    0.117742    0.000000
      2          1           0        0.772135   -0.449472    0.000000
      3          1           0       -0.772135   -0.492464    0.000000
 ---------------------------------------------------------------------

 SCF Done:  E(RB2PLYPD3) =  -76.3341253630     A.U. after   10 cycles
 E2(B2PLYPD3) =    -0.9038094914D-01 E(B2PLYPD3) =    -0.76424506312177D+02

 The electronic state is 1-A'.
 Alpha  occ. eigenvalues --  -19.73293  -1.15063  -0.60846  -0.47158  -0.39845
 Alpha virt. eigenvalues --    0.04401   0.10078   0.27577   0.30445   0.30765
 Alpha virt. eigenvalues --    0.35268   0.43645   0.50283   0.55989   0.62301
 Alpha virt. eigenvalues --    0.65916   0.80781   0.93331   0.96204   1.03018

 Mulliken charges:
               1
     1  O   -0.453755
     2  H    0.221454
     3  H    0.232301
 Sum of Mulliken charges =   0.00000

 Dipole moment (field-independent basis, Debye):
    X=              0.0130    Y=             -1.9582    Z=              0.0000  Tot=              1.9583
 Quadrupole moment (field-independent basis, Debye-Ang):
   XX=             -4.2797   YY=             -6.3527   ZZ=             -7.6229
   XY=              0.0719   XZ=              0.0000   YZ=              0.0000

 1\1\GINC-NODE24\SP\RB2PLYPD3-FC\def2QZVP\H2O1\BOITTIER\26-Aug-2020\0\\
 #p B2PLYPD3/Def2QZVP\\h2o\\0,1\O,0,-5.326605,-0.765007,0.919357\H,0,-4
 .368927,-0.740542,0.932719\H,0,-5.609308,0.164692,0.763527\\Version=ES
 64L-G09RevD.01\State=1-A'\HF=-76.3341254\MP2=-76.4245063\RMSD=4.263e-0
 9\PG=CS [SG(H2O1)]\\@

 OLD HORSE! OLD HORSE! WHAT BROUGHT YOU HERE?

 Normal termination of Gaussian 09 at Wed Aug 26 10:20:52 2020.
