 Gaussian 09, Revision D.01,
 Gaussian 09:  ES64L-G09RevD.01 24-Apr-2013

 --------------------
 #p B2PLYPD3/Def2QZVP
 --------------------

 ---
 h2o
 ---
 Symbolic Z-matrix:
 Charge =  0 Multiplicity = 1

                         Standard orientation:
 ---------------------------------------------------------------------
 Center     Atomic      Atomic             Coordinates (Angstroms)
 Number     Number       Type             X           Y           Z
 ---------------------------------------------------------------------
      1          8           0        0.000000    0.118326    0.000000
      2          1           0        0.742728   -0.504981    0.000000
      3          1           0       -0.742728   -0.441624    0.000000
 ---------------------------------------------------------------------

 SCF Done:  E(RB2PLYPD3) =  -76.3342979156     A.U. after   10 cycles
 E2(B2PLYPD3) =    -0.8975707805D-01 E(B2PLYPD3) =    -0.76424054993647D+02

 The electronic state is 1-A'.
 Alpha  occ. eigenvalues --  -19.73048  -1.16261  -0.61369  -0.47895  -0.40085
 Alpha virt. eigenvalues --    0.04581   0.10325   0.27474   0.30384   0.30929
 Alpha virt. eigenvalues --    0.36590   0.44286   0.50046   0.56605   0.61777
 Alpha virt. eigenvalues --    0.65423   0.81439   0.94140   0.95756   1.03957

 Mulliken charges:
               1
     1  O   -0.431414
     2  H    0.224940
     3  H    0.206474
 Sum of Mulliken charges =   0.00000

 Dipole moment (field-independent basis, Debye):
    X=             -0.0208    Y=             -1.9807    Z=              0.0000  Tot=              1.9808
 Quadrupole moment (field-independent basis, Debye-Ang):
   XX=             -4.4298   YY=             -6.2675   ZZ=             -7.5699
   XY=             -0.1009   XZ=              0.0000   YZ=              0.0000

 1\1\GINC-NODE01\SP\RB2PLYPD3-FC\def2QZVP\H2O1\BOITTIER\26-Aug-2020\0\\
 #p B2PLYPD3/Def2QZVP\\h2o\\0,1\O,0,-5.326605,-0.760852,0.934484\H,0,-4
 .368927,-0.72678,0.78667\H,0,-5.609308,0.084449,0.668525\\Version=ES64
 L-G09RevD.01\State=1-A'\HF=-76.3342979\MP2=-76.424055\RMSD=5.048e-09\P
 G=CS [SG(H2O1)]\\@

 Everywhere is walking distance if you have the time.

 Normal termination of Gaussian 09 at Wed Aug 26 09:12:36 2020.
