 Gaussian 09, Revision D.01,
 Gaussian 09:  ES64L-G09RevD.01 24-Apr-2013

 --------------------
 #p B2PLYPD3/Def2QZVP
 --------------------

 ---
 h2o
 ---
 Symbolic Z-matrix:
 Charge =  0 Multiplicity = 1

                         Standard orientation:
 ---------------------------------------------------------------------
 Center     Atomic      Atomic             Coordinates (Angstroms)
 Number     Number       Type             X           Y           Z
 ---------------------------------------------------------------------
      1          8           0        0.000000    0.115835    0.000000
      2          1           0        0.744787   -0.489353    0.000000
      3          1           0       -0.744787   -0.437327    0.000000
 ---------------------------------------------------------------------

 SCF Done:  E(RB2PLYPD3) =  -76.3345981338     A.U. after   10 cycles
 E2(B2PLYPD3) =    -0.8951641680D-01 E(B2PLYPD3) =    -0.76424114550623D+02

 The electronic state is 1-A'.
 Alpha  occ. eigenvalues --  -19.72897  -1.16453  -0.61907  -0.47728  -0.40107
 Alpha virt. eigenvalues --    0.04681   0.10355   0.27414   0.30372   0.31194
 Alpha virt. eigenvalues --    0.36644   0.44443   0.50330   0.56487   0.62207
 Alpha virt. eigenvalues --    0.65251   0.81534   0.94212   0.95634   1.04718

 Mulliken charges:
               1
     1  O   -0.429231
     2  H    0.222406
     3  H    0.206825
 Sum of Mulliken charges =   0.00000

 Dipole moment (field-independent basis, Debye):
    X=             -0.0164    Y=             -1.9561    Z=              0.0000  Tot=              1.9562
 Quadrupole moment (field-independent basis, Debye-Ang):
   XX=             -4.3859   YY=             -6.3036   ZZ=             -7.5581
   XY=             -0.0842   XZ=              0.0000   YZ=              0.0000

 1\1\GINC-NODE04\SP\RB2PLYPD3-FC\def2QZVP\H2O1\BOITTIER\26-Aug-2020\0\\
 #p B2PLYPD3/Def2QZVP\\h2o\\0,1\O,0,-5.326605,-0.762961,0.923156\H,0,-4
 .368927,-0.711182,0.889504\H,0,-5.609308,0.102599,0.745446\\Version=ES
 64L-G09RevD.01\State=1-A'\HF=-76.3345981\MP2=-76.4241146\RMSD=4.849e-0
 9\PG=CS [SG(H2O1)]\\@

 PERICLES, SOPHOCLES,

 Normal termination of Gaussian 09 at Wed Aug 26 08:32:14 2020.
