 Gaussian 09, Revision D.01,
 Gaussian 09:  ES64L-G09RevD.01 24-Apr-2013

 --------------------
 #p B2PLYPD3/Def2QZVP
 --------------------

 ---
 h2o
 ---
 Symbolic Z-matrix:
 Charge =  0 Multiplicity = 1

                         Standard orientation:
 ---------------------------------------------------------------------
 Center     Atomic      Atomic             Coordinates (Angstroms)
 Number     Number       Type             X           Y           Z
 ---------------------------------------------------------------------
      1          8           0        0.000000    0.115025    0.000000
      2          1           0        0.744629   -0.496417    0.000000
      3          1           0       -0.744629   -0.423780    0.000000
 ---------------------------------------------------------------------

 SCF Done:  E(RB2PLYPD3) =  -76.3340157640     A.U. after   10 cycles
 E2(B2PLYPD3) =    -0.8942769198D-01 E(B2PLYPD3) =    -0.76423443455998D+02

 The electronic state is 1-A'.
 Alpha  occ. eigenvalues --  -19.72835  -1.16562  -0.62100  -0.47678  -0.40119
 Alpha virt. eigenvalues --    0.04704   0.10371   0.27386   0.30367   0.31228
 Alpha virt. eigenvalues --    0.36690   0.44541   0.50426   0.56442   0.62354
 Alpha virt. eigenvalues --    0.65170   0.81567   0.94156   0.95619   1.04775

 Mulliken charges:
               1
     1  O   -0.427238
     2  H    0.224640
     3  H    0.202598
 Sum of Mulliken charges =   0.00000

 Dipole moment (field-independent basis, Debye):
    X=             -0.0226    Y=             -1.9482    Z=              0.0000  Tot=              1.9483
 Quadrupole moment (field-independent basis, Debye-Ang):
   XX=             -4.3754   YY=             -6.3110   ZZ=             -7.5531
   XY=             -0.1181   XZ=              0.0000   YZ=              0.0000

 1\1\GINC-NODE16\SP\RB2PLYPD3-FC\def2QZVP\H2O1\BOITTIER\26-Aug-2020\0\\
 #p B2PLYPD3/Def2QZVP\\h2o\\0,1\O,0,-5.326605,-0.760607,0.929197\H,0,-4
 .368927,-0.732805,0.827156\H,0,-5.609308,0.086561,0.712016\\Version=ES
 64L-G09RevD.01\State=1-A'\HF=-76.3340158\MP2=-76.4234435\RMSD=5.291e-0
 9\PG=CS [SG(H2O1)]\\@

 E PUR SI MUOVE    -- GALILEO GALILEI

 Normal termination of Gaussian 09 at Wed Aug 26 09:26:14 2020.
