 Gaussian 09, Revision D.01,
 Gaussian 09:  ES64L-G09RevD.01 24-Apr-2013

 --------------------
 #p B2PLYPD3/Def2QZVP
 --------------------

 ---
 h2o
 ---
 Symbolic Z-matrix:
 Charge =  0 Multiplicity = 1

                         Standard orientation:
 ---------------------------------------------------------------------
 Center     Atomic      Atomic             Coordinates (Angstroms)
 Number     Number       Type             X           Y           Z
 ---------------------------------------------------------------------
      1          8           0        0.000000    0.113897    0.000000
      2          1           0        0.775114   -0.448703    0.000000
      3          1           0       -0.775114   -0.462471    0.000000
 ---------------------------------------------------------------------

 SCF Done:  E(RB2PLYPD3) =  -76.3348794614     A.U. after   10 cycles
 E2(B2PLYPD3) =    -0.9002076536D-01 E(B2PLYPD3) =    -0.76424900226724D+02

 The electronic state is 1-A'.
 Alpha  occ. eigenvalues --  -19.73065  -1.15338  -0.61629  -0.46904  -0.39871
 Alpha virt. eigenvalues --    0.04549   0.10132   0.27488   0.30429   0.31197
 Alpha virt. eigenvalues --    0.35305   0.43873   0.50777   0.55812   0.62983
 Alpha virt. eigenvalues --    0.65652   0.80870   0.93494   0.96074   1.04220

 Mulliken charges:
               1
     1  O   -0.451717
     2  H    0.224049
     3  H    0.227667
 Sum of Mulliken charges =   0.00000

 Dipole moment (field-independent basis, Debye):
    X=              0.0039    Y=             -1.9200    Z=              0.0000  Tot=              1.9200
 Quadrupole moment (field-independent basis, Debye-Ang):
   XX=             -4.2123   YY=             -6.4085   ZZ=             -7.6060
   XY=              0.0236   XZ=              0.0000   YZ=              0.0000

 1\1\GINC-NODE10\SP\RB2PLYPD3-FC\def2QZVP\H2O1\BOITTIER\26-Aug-2020\0\\
 #p B2PLYPD3/Def2QZVP\\h2o\\0,1\O,0,-5.326605,-0.762566,0.917805\H,0,-4
 .368927,-0.767196,0.930124\H,0,-5.609308,0.1523,0.790914\\Version=ES64
 L-G09RevD.01\State=1-A'\HF=-76.3348795\MP2=-76.4249002\RMSD=3.856e-09\
 PG=CS [SG(H2O1)]\\@

 CONFIDENCE IS WHAT YOU FEEL BEFORE YOU FULLY

 Normal termination of Gaussian 09 at Wed Aug 26 11:22:56 2020.
