 Gaussian 09, Revision D.01,
 Gaussian 09:  ES64L-G09RevD.01 24-Apr-2013

 --------------------
 #p B2PLYPD3/Def2QZVP
 --------------------

 ---
 h2o
 ---
 Symbolic Z-matrix:
 Charge =  0 Multiplicity = 1

                         Standard orientation:
 ---------------------------------------------------------------------
 Center     Atomic      Atomic             Coordinates (Angstroms)
 Number     Number       Type             X           Y           Z
 ---------------------------------------------------------------------
      1          8           0        0.000000    0.110269    0.000000
      2          1           0        0.813902   -0.403061    0.000000
      3          1           0       -0.813902   -0.479091    0.000000
 ---------------------------------------------------------------------

 SCF Done:  E(RB2PLYPD3) =  -76.3311306357     A.U. after   10 cycles
 E2(B2PLYPD3) =    -0.9063432424D-01 E(B2PLYPD3) =    -0.76421764959909D+02

 The electronic state is 1-A'.
 Alpha  occ. eigenvalues --  -19.73184  -1.14101  -0.61369  -0.45786  -0.39573
 Alpha virt. eigenvalues --    0.04316   0.09855   0.27500   0.30500   0.31063
 Alpha virt. eigenvalues --    0.33776   0.43293   0.51667   0.54879   0.64187
 Alpha virt. eigenvalues --    0.66141   0.79636   0.92430   0.96731   1.03013

 Mulliken charges:
               1
     1  O   -0.478343
     2  H    0.230578
     3  H    0.247765
 Sum of Mulliken charges =   0.00000

 Dipole moment (field-independent basis, Debye):
    X=              0.0178    Y=             -1.8604    Z=              0.0000  Tot=              1.8605
 Quadrupole moment (field-independent basis, Debye-Ang):
   XX=             -3.9657   YY=             -6.5494   ZZ=             -7.6648
   XY=              0.1402   XZ=              0.0000   YZ=              0.0000

 1\1\GINC-NODE30\SP\RB2PLYPD3-FC\def2QZVP\H2O1\BOITTIER\26-Aug-2020\0\\
 #p B2PLYPD3/Def2QZVP\\h2o\\0,1\O,0,-5.326605,-0.760312,0.915024\H,0,-4
 .368927,-0.850968,0.939077\H,0,-5.609308,0.200006,0.82756\\Version=ES6
 4L-G09RevD.01\State=1-A'\HF=-76.3311306\MP2=-76.421765\RMSD=4.940e-09\
 PG=CS [SG(H2O1)]\\@

 BE LIKE A POSTAGE STAMP.  STICK TO ONE THING UNTIL

 Normal termination of Gaussian 09 at Wed Aug 26 09:02:02 2020.
