 Gaussian 09, Revision D.01,
 Gaussian 09:  ES64L-G09RevD.01 24-Apr-2013

 --------------------
 #p B2PLYPD3/Def2QZVP
 --------------------

 ---
 h2o
 ---
 Symbolic Z-matrix:
 Charge =  0 Multiplicity = 1

                         Standard orientation:
 ---------------------------------------------------------------------
 Center     Atomic      Atomic             Coordinates (Angstroms)
 Number     Number       Type             X           Y           Z
 ---------------------------------------------------------------------
      1          8           0        0.000000    0.114442    0.000000
      2          1           0        0.740295   -0.496032    0.000000
      3          1           0       -0.740295   -0.419501    0.000000
 ---------------------------------------------------------------------

 SCF Done:  E(RB2PLYPD3) =  -76.3335928336     A.U. after   10 cycles
 E2(B2PLYPD3) =    -0.8926334903D-01 E(B2PLYPD3) =    -0.76422856182588D+02

 The electronic state is 1-A'.
 Alpha  occ. eigenvalues --  -19.72750  -1.16827  -0.62338  -0.47753  -0.40167
 Alpha virt. eigenvalues --    0.04755   0.10417   0.27350   0.30353   0.31312
 Alpha virt. eigenvalues --    0.36919   0.44704   0.50466   0.56507   0.62385
 Alpha virt. eigenvalues --    0.65042   0.81686   0.94269   0.95519   1.05106

 Mulliken charges:
               1
     1  O   -0.422302
     2  H    0.223138
     3  H    0.199163
 Sum of Mulliken charges =   0.00000

 Dipole moment (field-independent basis, Debye):
    X=             -0.0238    Y=             -1.9450    Z=              0.0000  Tot=              1.9452
 Quadrupole moment (field-independent basis, Debye-Ang):
   XX=             -4.3880   YY=             -6.3060   ZZ=             -7.5410
   XY=             -0.1239   XZ=              0.0000   YZ=              0.0000

 1\1\GINC-NODE02\SP\RB2PLYPD3-FC\def2QZVP\H2O1\BOITTIER\26-Aug-2020\0\\
 #p B2PLYPD3/Def2QZVP\\h2o\\0,1\O,0,-5.326605,-0.762171,0.922296\H,0,-4
 .368927,-0.711049,0.891406\H,0,-5.609308,0.089829,0.757051\\Version=ES
 64L-G09RevD.01\State=1-A'\HF=-76.3335928\MP2=-76.4228562\RMSD=5.493e-0
 9\PG=CS [SG(H2O1)]\\@

 I KNOW YOU BELIEVE YOU UNDERSTAND WHAT YOU THINK I SAID,

 Normal termination of Gaussian 09 at Wed Aug 26 11:53:08 2020.
