 Gaussian 09, Revision D.01,
 Gaussian 09:  ES64L-G09RevD.01 24-Apr-2013

 --------------------
 #p B2PLYPD3/Def2QZVP
 --------------------

 ---
 h2o
 ---
 Symbolic Z-matrix:
 Charge =  0 Multiplicity = 1

                         Standard orientation:
 ---------------------------------------------------------------------
 Center     Atomic      Atomic             Coordinates (Angstroms)
 Number     Number       Type             X           Y           Z
 ---------------------------------------------------------------------
      1          8           0        0.000000    0.115002    0.000000
      2          1           0        0.766191   -0.461521    0.000000
      3          1           0       -0.766191   -0.458493    0.000000
 ---------------------------------------------------------------------

 SCF Done:  E(RB2PLYPD3) =  -76.3351552033     A.U. after   10 cycles
 E2(B2PLYPD3) =    -0.8992461487D-01 E(B2PLYPD3) =    -0.76425079818212D+02

 The electronic state is 1-A'.
 Alpha  occ. eigenvalues --  -19.73054  -1.15601  -0.61600  -0.47175  -0.39934
 Alpha virt. eigenvalues --    0.04574   0.10188   0.27484   0.30415   0.31159
 Alpha virt. eigenvalues --    0.35674   0.43987   0.50569   0.56034   0.62660
 Alpha virt. eigenvalues --    0.65580   0.81073   0.93711   0.95955   1.04260

 Mulliken charges:
               1
     1  O   -0.445996
     2  H    0.223408
     3  H    0.222588
 Sum of Mulliken charges =   0.00000

 Dipole moment (field-independent basis, Debye):
    X=             -0.0009    Y=             -1.9359    Z=              0.0000  Tot=              1.9359
 Quadrupole moment (field-independent basis, Debye-Ang):
   XX=             -4.2714   YY=             -6.3719   ZZ=             -7.5948
   XY=             -0.0051   XZ=              0.0000   YZ=              0.0000

 1\1\GINC-NODE03\SP\RB2PLYPD3-FC\def2QZVP\H2O1\BOITTIER\26-Aug-2020\0\\
 #p B2PLYPD3/Def2QZVP\\h2o\\0,1\O,0,-5.326605,-0.763595,0.915066\H,0,-4
 .368927,-0.742667,0.957985\H,0,-5.609308,0.144236,0.806132\\Version=ES
 64L-G09RevD.01\State=1-A'\HF=-76.3351552\MP2=-76.4250798\RMSD=3.929e-0
 9\PG=CS [SG(H2O1)]\\@

 THE FIRST AND LAST THING REQUIRED OF GENIUS IS THE LOVE OF TRUTH.

 Normal termination of Gaussian 09 at Wed Aug 26 08:30:38 2020.
