 Gaussian 09, Revision D.01,
 Gaussian 09:  ES64L-G09RevD.01 24-Apr-2013

 --------------------
 #p B2PLYPD3/Def2QZVP
 --------------------

 ---
 h2o
 ---
 Symbolic Z-matrix:
 Charge =  0 Multiplicity = 1

                         Standard orientation:
 ---------------------------------------------------------------------
 Center     Atomic      Atomic             Coordinates (Angstroms)
 Number     Number       Type             X           Y           Z
 ---------------------------------------------------------------------
      1          8           0        0.000000    0.114662    0.000000
      2          1           0        0.776552   -0.445849    0.000000
      3          1           0       -0.776552   -0.471444    0.000000
 ---------------------------------------------------------------------

 SCF Done:  E(RB2PLYPD3) =  -76.3346333112     A.U. after   10 cycles
 E2(B2PLYPD3) =    -0.9014064014D-01 E(B2PLYPD3) =    -0.76424773951359D+02

 The electronic state is 1-A'.
 Alpha  occ. eigenvalues --  -19.73129  -1.15199  -0.61423  -0.46906  -0.39848
 Alpha virt. eigenvalues --    0.04503   0.10104   0.27512   0.30437   0.31091
 Alpha virt. eigenvalues --    0.35206   0.43782   0.50693   0.55805   0.62876
 Alpha virt. eigenvalues --    0.65741   0.80795   0.93396   0.96136   1.03868

 Mulliken charges:
               1
     1  O   -0.453725
     2  H    0.223560
     3  H    0.230165
 Sum of Mulliken charges =   0.00000

 Dipole moment (field-independent basis, Debye):
    X=              0.0073    Y=             -1.9265    Z=              0.0000  Tot=              1.9265
 Quadrupole moment (field-independent basis, Debye-Ang):
   XX=             -4.2156   YY=             -6.4027   ZZ=             -7.6133
   XY=              0.0438   XZ=              0.0000   YZ=              0.0000

 1\1\GINC-NODE19\SP\RB2PLYPD3-FC\def2QZVP\H2O1\BOITTIER\26-Aug-2020\0\\
 #p B2PLYPD3/Def2QZVP\\h2o\\0,1\O,0,-5.326605,-0.762979,0.918698\H,0,-4
 .368927,-0.766051,0.925594\H,0,-5.609308,0.157758,0.781314\\Version=ES
 64L-G09RevD.01\State=1-A'\HF=-76.3346333\MP2=-76.424774\RMSD=3.959e-09
 \PG=CS [SG(H2O1)]\\@

 BULLDOZER: SOMEONE WHO SLEEPS THROUGH SPEECHES.

 Normal termination of Gaussian 09 at Wed Aug 26 12:04:03 2020.
