 Gaussian 09, Revision D.01,
 Gaussian 09:  ES64L-G09RevD.01 24-Apr-2013

 --------------------
 #p B2PLYPD3/Def2QZVP
 --------------------

 ---
 h2o
 ---
 Symbolic Z-matrix:
 Charge =  0 Multiplicity = 1

                         Standard orientation:
 ---------------------------------------------------------------------
 Center     Atomic      Atomic             Coordinates (Angstroms)
 Number     Number       Type             X           Y           Z
 ---------------------------------------------------------------------
      1          8           0        0.000000    0.114761    0.000000
      2          1           0        0.755833   -0.474274    0.000000
      3          1           0       -0.755833   -0.443810    0.000000
 ---------------------------------------------------------------------

 SCF Done:  E(RB2PLYPD3) =  -76.3351214706     A.U. after   10 cycles
 E2(B2PLYPD3) =    -0.8965208944D-01 E(B2PLYPD3) =    -0.76424773560035D+02

 The electronic state is 1-A'.
 Alpha  occ. eigenvalues --  -19.72935  -1.16080  -0.61902  -0.47411  -0.40027
 Alpha virt. eigenvalues --    0.04657   0.10282   0.27434   0.30390   0.31249
 Alpha virt. eigenvalues --    0.36180   0.44257   0.50524   0.56233   0.62548
 Alpha virt. eigenvalues --    0.65365   0.81343   0.93996   0.95759   1.04712

 Mulliken charges:
               1
     1  O   -0.437034
     2  H    0.222889
     3  H    0.214145
 Sum of Mulliken charges =   0.00000

 Dipole moment (field-independent basis, Debye):
    X=             -0.0092    Y=             -1.9396    Z=              0.0000  Tot=              1.9396
 Quadrupole moment (field-independent basis, Debye-Ang):
   XX=             -4.3184   YY=             -6.3469   ZZ=             -7.5730
   XY=             -0.0505   XZ=              0.0000   YZ=              0.0000

 1\1\GINC-NODE21\SP\RB2PLYPD3-FC\def2QZVP\H2O1\BOITTIER\26-Aug-2020\0\\
 #p B2PLYPD3/Def2QZVP\\h2o\\0,1\O,0,-5.326605,-0.763003,0.918961\H,0,-4
 .368927,-0.730158,0.923264\H,0,-5.609308,0.122257,0.778682\\Version=ES
 64L-G09RevD.01\State=1-A'\HF=-76.3351215\MP2=-76.4247736\RMSD=4.298e-0
 9\PG=CS [SG(H2O1)]\\@

      SCIENCE SANS CONSCIENCE N'EST QUE RUINE DE L'AME.

 Normal termination of Gaussian 09 at Wed Aug 26 10:07:39 2020.
