 Gaussian 09, Revision D.01,
 Gaussian 09:  ES64L-G09RevD.01 24-Apr-2013

 --------------------
 #p B2PLYPD3/Def2QZVP
 --------------------

 ---
 h2o
 ---
 Symbolic Z-matrix:
 Charge =  0 Multiplicity = 1

                         Standard orientation:
 ---------------------------------------------------------------------
 Center     Atomic      Atomic             Coordinates (Angstroms)
 Number     Number       Type             X           Y           Z
 ---------------------------------------------------------------------
      1          8           0        0.000000    0.112569    0.000000
      2          1           0        0.762857   -0.467221    0.000000
      3          1           0       -0.762857   -0.433334    0.000000
 ---------------------------------------------------------------------

 SCF Done:  E(RB2PLYPD3) =  -76.3350355531     A.U. after   10 cycles
 E2(B2PLYPD3) =    -0.8958188941D-01 E(B2PLYPD3) =    -0.76424617442528D+02

 The electronic state is 1-A'.
 Alpha  occ. eigenvalues --  -19.72855  -1.16012  -0.62235  -0.47126  -0.39997
 Alpha virt. eigenvalues --    0.04695   0.10262   0.27405   0.30392   0.31413
 Alpha virt. eigenvalues --    0.35948   0.44277   0.50847   0.56009   0.63031
 Alpha virt. eigenvalues --    0.65309   0.81261   0.93884   0.95789   1.05086

 Mulliken charges:
               1
     1  O   -0.439584
     2  H    0.224629
     3  H    0.214955
 Sum of Mulliken charges =   0.00000

 Dipole moment (field-independent basis, Debye):
    X=             -0.0097    Y=             -1.9143    Z=              0.0000  Tot=              1.9143
 Quadrupole moment (field-independent basis, Debye-Ang):
   XX=             -4.2547   YY=             -6.3914   ZZ=             -7.5738
   XY=             -0.0574   XZ=              0.0000   YZ=              0.0000

 1\1\GINC-NODE20\SP\RB2PLYPD3-FC\def2QZVP\H2O1\BOITTIER\26-Aug-2020\0\\
 #p B2PLYPD3/Def2QZVP\\h2o\\0,1\O,0,-5.326605,-0.761888,0.915382\H,0,-4
 .368927,-0.752557,0.94495\H,0,-5.609308,0.126806,0.814075\\Version=ES6
 4L-G09RevD.01\State=1-A'\HF=-76.3350356\MP2=-76.4246174\RMSD=4.256e-09
 \PG=CS [SG(H2O1)]\\@

 ERWIN WITH HIS PSI CAN DO

 Normal termination of Gaussian 09 at Wed Aug 26 12:26:47 2020.
