 Gaussian 09, Revision D.01,
 Gaussian 09:  ES64L-G09RevD.01 24-Apr-2013

 --------------------
 #p B2PLYPD3/Def2QZVP
 --------------------

 ---
 h2o
 ---
 Symbolic Z-matrix:
 Charge =  0 Multiplicity = 1

                         Standard orientation:
 ---------------------------------------------------------------------
 Center     Atomic      Atomic             Coordinates (Angstroms)
 Number     Number       Type             X           Y           Z
 ---------------------------------------------------------------------
      1          8           0        0.000000    0.118256    0.000000
      2          1           0        0.750393   -0.480133    0.000000
      3          1           0       -0.750393   -0.465913    0.000000
 ---------------------------------------------------------------------

 SCF Done:  E(RB2PLYPD3) =  -76.3351016999     A.U. after   10 cycles
 E2(B2PLYPD3) =    -0.8991888963D-01 E(B2PLYPD3) =    -0.76425020589538D+02

 The electronic state is 1-A'.
 Alpha  occ. eigenvalues --  -19.73123  -1.15921  -0.61219  -0.47722  -0.40022
 Alpha virt. eigenvalues --    0.04551   0.10260   0.27510   0.30400   0.30947
 Alpha virt. eigenvalues --    0.36239   0.44076   0.50088   0.56471   0.61882
 Alpha virt. eigenvalues --    0.65572   0.81297   0.94051   0.95843   1.03874

 Mulliken charges:
               1
     1  O   -0.438043
     2  H    0.221014
     3  H    0.217029
 Sum of Mulliken charges =   0.00000

 Dipole moment (field-independent basis, Debye):
    X=             -0.0046    Y=             -1.9760    Z=              0.0000  Tot=              1.9761
 Quadrupole moment (field-independent basis, Debye-Ang):
   XX=             -4.3926   YY=             -6.2910   ZZ=             -7.5838
   XY=             -0.0229   XZ=              0.0000   YZ=              0.0000

 1\1\GINC-NODE39\SP\RB2PLYPD3-FC\def2QZVP\H2O1\BOITTIER\26-Aug-2020\0\\
 #p B2PLYPD3/Def2QZVP\\h2o\\0,1\O,0,-5.326605,-0.764999,0.921454\H,0,-4
 .368927,-0.701936,0.915608\H,0,-5.609308,0.125964,0.746509\\Version=ES
 64L-G09RevD.01\State=1-A'\HF=-76.3351017\MP2=-76.4250206\RMSD=4.254e-0
 9\PG=CS [SG(H2O1)]\\@

 Once you get people laughing, they're

 Normal termination of Gaussian 09 at Wed Aug 26 09:48:43 2020.
