 Gaussian 09, Revision D.01,
 Gaussian 09:  ES64L-G09RevD.01 24-Apr-2013

 --------------------
 #p B2PLYPD3/Def2QZVP
 --------------------

 ---
 h2o
 ---
 Symbolic Z-matrix:
 Charge =  0 Multiplicity = 1

                         Standard orientation:
 ---------------------------------------------------------------------
 Center     Atomic      Atomic             Coordinates (Angstroms)
 Number     Number       Type             X           Y           Z
 ---------------------------------------------------------------------
      1          8           0        0.000000    0.121677    0.000000
      2          1           0        0.760598   -0.464259    0.000000
      3          1           0       -0.760598   -0.509160    0.000000
 ---------------------------------------------------------------------

 SCF Done:  E(RB2PLYPD3) =  -76.3337234098     A.U. after   10 cycles
 E2(B2PLYPD3) =    -0.9056768859D-01 E(B2PLYPD3) =    -0.76424291098424D+02

 The electronic state is 1-A'.
 Alpha  occ. eigenvalues --  -19.73451  -1.15113  -0.60228  -0.47622  -0.39887
 Alpha virt. eigenvalues --    0.04316   0.10092   0.27646   0.30437   0.30441
 Alpha virt. eigenvalues --    0.35554   0.43581   0.49770   0.56351   0.61496
 Alpha virt. eigenvalues --    0.66047   0.80876   0.93511   0.96221   1.02316

 Mulliken charges:
               1
     1  O   -0.449885
     2  H    0.219289
     3  H    0.230595
 Sum of Mulliken charges =   0.00000

 Dipole moment (field-independent basis, Debye):
    X=              0.0149    Y=             -2.0016    Z=              0.0000  Tot=              2.0017
 Quadrupole moment (field-independent basis, Debye-Ang):
   XX=             -4.3910   YY=             -6.2740   ZZ=             -7.6246
   XY=              0.0722   XZ=              0.0000   YZ=              0.0000

 1\1\GINC-NODE13\SP\RB2PLYPD3-FC\def2QZVP\H2O1\BOITTIER\26-Aug-2020\0\\
 #p B2PLYPD3/Def2QZVP\\h2o\\0,1\O,0,-5.326605,-0.766406,0.925717\H,0,-4
 .368927,-0.707653,0.890623\H,0,-5.609308,0.154188,0.704243\\Version=ES
 64L-G09RevD.01\State=1-A'\HF=-76.3337234\MP2=-76.4242911\RMSD=4.438e-0
 9\PG=CS [SG(H2O1)]\\@

 THE 2ND LAW OF THERMODYNAMICS HAS THE SAME

 Normal termination of Gaussian 09 at Wed Aug 26 11:22:48 2020.
