 Gaussian 09, Revision D.01,
 Gaussian 09:  ES64L-G09RevD.01 24-Apr-2013

 --------------------
 #p B2PLYPD3/Def2QZVP
 --------------------

 ---
 h2o
 ---
 Symbolic Z-matrix:
 Charge =  0 Multiplicity = 1

                         Standard orientation:
 ---------------------------------------------------------------------
 Center     Atomic      Atomic             Coordinates (Angstroms)
 Number     Number       Type             X           Y           Z
 ---------------------------------------------------------------------
      1          8           0        0.000000    0.115173    0.000000
      2          1           0        0.767086   -0.458721    0.000000
      3          1           0       -0.767086   -0.462665    0.000000
 ---------------------------------------------------------------------

 SCF Done:  E(RB2PLYPD3) =  -76.3351110849     A.U. after   10 cycles
 E2(B2PLYPD3) =    -0.8996522746D-01 E(B2PLYPD3) =    -0.76425076312322D+02

 The electronic state is 1-A'.
 Alpha  occ. eigenvalues --  -19.73074  -1.15544  -0.61540  -0.47162  -0.39924
 Alpha virt. eigenvalues --    0.04560   0.10177   0.27492   0.30418   0.31133
 Alpha virt. eigenvalues --    0.35624   0.43952   0.50554   0.56021   0.62645
 Alpha virt. eigenvalues --    0.65611   0.81041   0.93676   0.95980   1.04164

 Mulliken charges:
               1
     1  O   -0.446941
     2  H    0.222940
     3  H    0.224001
 Sum of Mulliken charges =   0.00000

 Dipole moment (field-independent basis, Debye):
    X=              0.0012    Y=             -1.9371    Z=              0.0000  Tot=              1.9371
 Quadrupole moment (field-independent basis, Debye-Ang):
   XX=             -4.2693   YY=             -6.3722   ZZ=             -7.5975
   XY=              0.0066   XZ=              0.0000   YZ=              0.0000

 1\1\GINC-NODE37\SP\RB2PLYPD3-FC\def2QZVP\H2O1\BOITTIER\26-Aug-2020\0\\
 #p B2PLYPD3/Def2QZVP\\h2o\\0,1\O,0,-5.326605,-0.763448,0.917809\H,0,-4
 .368927,-0.745546,0.935343\H,0,-5.609308,0.144758,0.7853\\Version=ES64
 L-G09RevD.01\State=1-A'\HF=-76.3351111\MP2=-76.4250763\RMSD=3.921e-09\
 PG=CS [SG(H2O1)]\\@

 AND ALL THIS SCIENCE I DON'T UNDERSTAND

 Normal termination of Gaussian 09 at Wed Aug 26 10:43:30 2020.
