 Gaussian 09, Revision D.01,
 Gaussian 09:  ES64L-G09RevD.01 24-Apr-2013

 --------------------
 #p B2PLYPD3/Def2QZVP
 --------------------

 ---
 h2o
 ---
 Symbolic Z-matrix:
 Charge =  0 Multiplicity = 1

                         Standard orientation:
 ---------------------------------------------------------------------
 Center     Atomic      Atomic             Coordinates (Angstroms)
 Number     Number       Type             X           Y           Z
 ---------------------------------------------------------------------
      1          8           0        0.000000    0.111615    0.000000
      2          1           0        0.809547   -0.406048    0.000000
      3          1           0       -0.809547   -0.486872    0.000000
 ---------------------------------------------------------------------

 SCF Done:  E(RB2PLYPD3) =  -76.3312774203     A.U. after   10 cycles
 E2(B2PLYPD3) =    -0.9066151016D-01 E(B2PLYPD3) =    -0.76421938930458D+02

 The electronic state is 1-A'.
 Alpha  occ. eigenvalues --  -19.73230  -1.14155  -0.61210  -0.45952  -0.39596
 Alpha virt. eigenvalues --    0.04301   0.09867   0.27521   0.30497   0.30937
 Alpha virt. eigenvalues --    0.33929   0.43301   0.51427   0.55005   0.63896
 Alpha virt. eigenvalues --    0.66138   0.79769   0.92433   0.96673   1.02847

 Mulliken charges:
               1
     1  O   -0.475889
     2  H    0.228766
     3  H    0.247123
 Sum of Mulliken charges =   0.00000

 Dipole moment (field-independent basis, Debye):
    X=              0.0197    Y=             -1.8762    Z=              0.0000  Tot=              1.8763
 Quadrupole moment (field-independent basis, Debye-Ang):
   XX=             -4.0065   YY=             -6.5212   ZZ=             -7.6631
   XY=              0.1472   XZ=              0.0000   YZ=              0.0000

 1\1\GINC-NODE16\SP\RB2PLYPD3-FC\def2QZVP\H2O1\BOITTIER\26-Aug-2020\0\\
 #p B2PLYPD3/Def2QZVP\\h2o\\0,1\O,0,-5.326605,-0.761191,0.915841\H,0,-4
 .368927,-0.836735,0.937916\H,0,-5.609308,0.199841,0.815596\\Version=ES
 64L-G09RevD.01\State=1-A'\HF=-76.3312774\MP2=-76.4219389\RMSD=5.032e-0
 9\PG=CS [SG(H2O1)]\\@

 NATURE WILL TELL YOU A DIRECT LIE IF SHE CAN.

 Normal termination of Gaussian 09 at Wed Aug 26 09:03:39 2020.
