 Gaussian 09, Revision D.01,
 Gaussian 09:  ES64L-G09RevD.01 24-Apr-2013

 --------------------
 #p B2PLYPD3/Def2QZVP
 --------------------

 ---
 h2o
 ---
 Symbolic Z-matrix:
 Charge =  0 Multiplicity = 1

                         Standard orientation:
 ---------------------------------------------------------------------
 Center     Atomic      Atomic             Coordinates (Angstroms)
 Number     Number       Type             X           Y           Z
 ---------------------------------------------------------------------
      1          8           0        0.000000    0.113304    0.000000
      2          1           0        0.744893   -0.490139    0.000000
      3          1           0       -0.744893   -0.416297    0.000000
 ---------------------------------------------------------------------

 SCF Done:  E(RB2PLYPD3) =  -76.3337647705     A.U. after   10 cycles
 E2(B2PLYPD3) =    -0.8924467407D-01 E(B2PLYPD3) =    -0.76423009444533D+02

 The electronic state is 1-A'.
 Alpha  occ. eigenvalues --  -19.72719  -1.16747  -0.62500  -0.47582  -0.40144
 Alpha virt. eigenvalues --    0.04774   0.10398   0.27340   0.30356   0.31395
 Alpha virt. eigenvalues --    0.36762   0.44687   0.50630   0.56374   0.62647
 Alpha virt. eigenvalues --    0.65031   0.81646   0.94202   0.95536   1.05263

 Mulliken charges:
               1
     1  O   -0.424368
     2  H    0.223659
     3  H    0.200709
 Sum of Mulliken charges =   0.00000

 Dipole moment (field-independent basis, Debye):
    X=             -0.0223    Y=             -1.9315    Z=              0.0000  Tot=              1.9316
 Quadrupole moment (field-independent basis, Debye-Ang):
   XX=             -4.3509   YY=             -6.3319   ZZ=             -7.5430
   XY=             -0.1212   XZ=              0.0000   YZ=              0.0000

 1\1\GINC-NODE38\SP\RB2PLYPD3-FC\def2QZVP\H2O1\BOITTIER\26-Aug-2020\0\\
 #p B2PLYPD3/Def2QZVP\\h2o\\0,1\O,0,-5.326605,-0.761667,0.920838\H,0,-4
 .368927,-0.723891,0.89997\H,0,-5.609308,0.094611,0.771804\\Version=ES6
 4L-G09RevD.01\State=1-A'\HF=-76.3337648\MP2=-76.4230094\RMSD=5.385e-09
 \PG=CS [SG(H2O1)]\\@

 IF MATHEMATICALLY YOU END UP WITH THE INCORRECT ANSWER,

 Normal termination of Gaussian 09 at Wed Aug 26 09:16:14 2020.
