 Gaussian 09, Revision D.01,
 Gaussian 09:  ES64L-G09RevD.01 24-Apr-2013

 --------------------
 #p B2PLYPD3/Def2QZVP
 --------------------

 ---
 h2o
 ---
 Symbolic Z-matrix:
 Charge =  0 Multiplicity = 1

                         Standard orientation:
 ---------------------------------------------------------------------
 Center     Atomic      Atomic             Coordinates (Angstroms)
 Number     Number       Type             X           Y           Z
 ---------------------------------------------------------------------
      1          8           0        0.000000    0.118369    0.000000
      2          1           0        0.760250   -0.466250    0.000000
      3          1           0       -0.760250   -0.480701    0.000000
 ---------------------------------------------------------------------

 SCF Done:  E(RB2PLYPD3) =  -76.3348773911     A.U. after   10 cycles
 E2(B2PLYPD3) =    -0.9016436568D-01 E(B2PLYPD3) =    -0.76425041756786D+02

 The electronic state is 1-A'.
 Alpha  occ. eigenvalues --  -19.73225  -1.15487  -0.60976  -0.47485  -0.39937
 Alpha virt. eigenvalues --    0.04475   0.10171   0.27553   0.30422   0.30847
 Alpha virt. eigenvalues --    0.35772   0.43844   0.50132   0.56268   0.62012
 Alpha virt. eigenvalues --    0.65761   0.81063   0.93737   0.96021   1.03411

 Mulliken charges:
               1
     1  O   -0.445793
     2  H    0.220977
     3  H    0.224816
 Sum of Mulliken charges =   0.00000

 Dipole moment (field-independent basis, Debye):
    X=              0.0046    Y=             -1.9713    Z=              0.0000  Tot=              1.9713
 Quadrupole moment (field-independent basis, Debye-Ang):
   XX=             -4.3466   YY=             -6.3153   ZZ=             -7.6035
   XY=              0.0236   XZ=              0.0000   YZ=              0.0000

 1\1\GINC-NODE21\SP\RB2PLYPD3-FC\def2QZVP\H2O1\BOITTIER\26-Aug-2020\0\\
 #p B2PLYPD3/Def2QZVP\\h2o\\0,1\O,0,-5.326605,-0.764554,0.923945\H,0,-4
 .368927,-0.723635,0.89332\H,0,-5.609308,0.140547,0.729686\\Version=ES6
 4L-G09RevD.01\State=1-A'\HF=-76.3348774\MP2=-76.4250418\RMSD=4.099e-09
 \PG=CS [SG(H2O1)]\\@

 THEORY:  SUPPOSITION WHICH HAS SCIENTIFIC BASIS,

 Normal termination of Gaussian 09 at Wed Aug 26 12:33:02 2020.
