 Gaussian 09, Revision D.01,
 Gaussian 09:  ES64L-G09RevD.01 24-Apr-2013

 --------------------
 #p B2PLYPD3/Def2QZVP
 --------------------

 ---
 h2o
 ---
 Symbolic Z-matrix:
 Charge =  0 Multiplicity = 1

                         Standard orientation:
 ---------------------------------------------------------------------
 Center     Atomic      Atomic             Coordinates (Angstroms)
 Number     Number       Type             X           Y           Z
 ---------------------------------------------------------------------
      1          8           0        0.000000    0.119291    0.000000
      2          1           0        0.763462   -0.460747    0.000000
      3          1           0       -0.763462   -0.493584    0.000000
 ---------------------------------------------------------------------

 SCF Done:  E(RB2PLYPD3) =  -76.3343914942     A.U. after   10 cycles
 E2(B2PLYPD3) =    -0.9035012638D-01 E(B2PLYPD3) =    -0.76424741620630D+02

 The electronic state is 1-A'.
 Alpha  occ. eigenvalues --  -19.73317  -1.15254  -0.60698  -0.47446  -0.39897
 Alpha virt. eigenvalues --    0.04406   0.10122   0.27589   0.30434   0.30696
 Alpha virt. eigenvalues --    0.35572   0.43705   0.50047   0.56224   0.61915
 Alpha virt. eigenvalues --    0.65896   0.80935   0.93562   0.96132   1.02944

 Mulliken charges:
               1
     1  O   -0.449238
     2  H    0.220389
     3  H    0.228849
 Sum of Mulliken charges =   0.00000

 Dipole moment (field-independent basis, Debye):
    X=              0.0104    Y=             -1.9780    Z=              0.0000  Tot=              1.9780
 Quadrupole moment (field-independent basis, Debye-Ang):
   XX=             -4.3437   YY=             -6.3117   ZZ=             -7.6154
   XY=              0.0537   XZ=              0.0000   YZ=              0.0000

 1\1\GINC-NODE28\SP\RB2PLYPD3-FC\def2QZVP\H2O1\BOITTIER\26-Aug-2020\0\\
 #p B2PLYPD3/Def2QZVP\\h2o\\0,1\O,0,-5.326605,-0.765448,0.922806\H,0,-4
 .368927,-0.721295,0.9079\H,0,-5.609308,0.152512,0.733282\\Version=ES64
 L-G09RevD.01\State=1-A'\HF=-76.3343915\MP2=-76.4247416\RMSD=4.231e-09\
 PG=CS [SG(H2O1)]\\@

 DEFINE YOUR TERMS, YOU WILL PERMIT ME AGAIN TO SAY,

 Normal termination of Gaussian 09 at Wed Aug 26 12:53:49 2020.
