 Gaussian 09, Revision D.01,
 Gaussian 09:  ES64L-G09RevD.01 24-Apr-2013

 --------------------
 #p B2PLYPD3/Def2QZVP
 --------------------

 ---
 h2o
 ---
 Symbolic Z-matrix:
 Charge =  0 Multiplicity = 1

                         Standard orientation:
 ---------------------------------------------------------------------
 Center     Atomic      Atomic             Coordinates (Angstroms)
 Number     Number       Type             X           Y           Z
 ---------------------------------------------------------------------
      1          8           0        0.000000    0.115591    0.000000
      2          1           0        0.741415   -0.494103    0.000000
      3          1           0       -0.741415   -0.430626    0.000000
 ---------------------------------------------------------------------

 SCF Done:  E(RB2PLYPD3) =  -76.3341769383     A.U. after   10 cycles
 E2(B2PLYPD3) =    -0.8941352178D-01 E(B2PLYPD3) =    -0.76423590460064D+02

 The electronic state is 1-A'.
 Alpha  occ. eigenvalues --  -19.72844  -1.16636  -0.62040  -0.47793  -0.40139
 Alpha virt. eigenvalues --    0.04708   0.10388   0.27390   0.30363   0.31221
 Alpha virt. eigenvalues --    0.36812   0.44558   0.50339   0.56538   0.62202
 Alpha virt. eigenvalues --    0.65165   0.81612   0.94267   0.95577   1.04847

 Mulliken charges:
               1
     1  O   -0.425706
     2  H    0.222567
     3  H    0.203139
 Sum of Mulliken charges =   0.00000

 Dipole moment (field-independent basis, Debye):
    X=             -0.0201    Y=             -1.9556    Z=              0.0000  Tot=              1.9557
 Quadrupole moment (field-independent basis, Debye-Ang):
   XX=             -4.3985   YY=             -6.2967   ZZ=             -7.5501
   XY=             -0.1023   XZ=              0.0000   YZ=              0.0000

 1\1\GINC-NODE31\SP\RB2PLYPD3-FC\def2QZVP\H2O1\BOITTIER\26-Aug-2020\0\\
 #p B2PLYPD3/Def2QZVP\\h2o\\0,1\O,0,-5.326605,-0.762814,0.923042\H,0,-4
 .368927,-0.706724,0.889441\H,0,-5.609308,0.095791,0.747188\\Version=ES
 64L-G09RevD.01\State=1-A'\HF=-76.3341769\MP2=-76.4235905\RMSD=5.155e-0
 9\PG=CS [SG(H2O1)]\\@

 MICRO CREDO - NEVER TRUST A COMPUTER BIGGER

 Normal termination of Gaussian 09 at Wed Aug 26 10:51:03 2020.
