 Gaussian 09, Revision D.01,
 Gaussian 09:  ES64L-G09RevD.01 24-Apr-2013

 --------------------
 #p B2PLYPD3/Def2QZVP
 --------------------

 ---
 h2o
 ---
 Symbolic Z-matrix:
 Charge =  0 Multiplicity = 1

                         Standard orientation:
 ---------------------------------------------------------------------
 Center     Atomic      Atomic             Coordinates (Angstroms)
 Number     Number       Type             X           Y           Z
 ---------------------------------------------------------------------
      1          8           0        0.000000    0.121513    0.000000
      2          1           0        0.737862   -0.498427    0.000000
      3          1           0       -0.737862   -0.473680    0.000000
 ---------------------------------------------------------------------

 SCF Done:  E(RB2PLYPD3) =  -76.3346029535     A.U. after   10 cycles
 E2(B2PLYPD3) =    -0.9001776247D-01 E(B2PLYPD3) =    -0.76424620715986D+02

 The electronic state is 1-A'.
 Alpha  occ. eigenvalues --  -19.73228  -1.16085  -0.60724  -0.48186  -0.40078
 Alpha virt. eigenvalues --    0.04490   0.10300   0.27554   0.30393   0.30708
 Alpha virt. eigenvalues --    0.36590   0.44080   0.49694   0.56839   0.61174
 Alpha virt. eigenvalues --    0.65626   0.81368   0.94327   0.95826   1.03378

 Mulliken charges:
               1
     1  O   -0.433273
     2  H    0.220151
     3  H    0.213121
 Sum of Mulliken charges =   0.00000

 Dipole moment (field-independent basis, Debye):
    X=             -0.0086    Y=             -2.0135    Z=              0.0000  Tot=              2.0135
 Quadrupole moment (field-independent basis, Debye-Ang):
   XX=             -4.4975   YY=             -6.2183   ZZ=             -7.5806
   XY=             -0.0384   XZ=              0.0000   YZ=              0.0000

 1\1\GINC-NODE25\SP\RB2PLYPD3-FC\def2QZVP\H2O1\BOITTIER\26-Aug-2020\0\\
 #p B2PLYPD3/Def2QZVP\\h2o\\0,1\O,0,-5.326605,-0.765952,0.926915\H,0,-4
 .368927,-0.669962,0.877865\H,0,-5.609308,0.10923,0.697064\\Version=ES6
 4L-G09RevD.01\State=1-A'\HF=-76.334603\MP2=-76.4246207\RMSD=4.611e-09\
 PG=CS [SG(H2O1)]\\@

 The impersonal hand of government can

 Normal termination of Gaussian 09 at Wed Aug 26 09:07:34 2020.
