 Gaussian 09, Revision D.01,
 Gaussian 09:  ES64L-G09RevD.01 24-Apr-2013

 --------------------
 #p B2PLYPD3/Def2QZVP
 --------------------

 ---
 h2o
 ---
 Symbolic Z-matrix:
 Charge =  0 Multiplicity = 1

                         Standard orientation:
 ---------------------------------------------------------------------
 Center     Atomic      Atomic             Coordinates (Angstroms)
 Number     Number       Type             X           Y           Z
 ---------------------------------------------------------------------
      1          8           0        0.000000    0.113923    0.000000
      2          1           0        0.774516   -0.449400    0.000000
      3          1           0       -0.774516   -0.461987    0.000000
 ---------------------------------------------------------------------

 SCF Done:  E(RB2PLYPD3) =  -76.3349102584     A.U. after   10 cycles
 E2(B2PLYPD3) =    -0.9000894033D-01 E(B2PLYPD3) =    -0.76424919198750D+02

 The electronic state is 1-A'.
 Alpha  occ. eigenvalues --  -19.73061  -1.15361  -0.61638  -0.46919  -0.39876
 Alpha virt. eigenvalues --    0.04553   0.10136   0.27487   0.30428   0.31200
 Alpha virt. eigenvalues --    0.35332   0.43884   0.50769   0.55825   0.62969
 Alpha virt. eigenvalues --    0.65643   0.80886   0.93511   0.96064   1.04240

 Mulliken charges:
               1
     1  O   -0.451273
     2  H    0.223978
     3  H    0.227295
 Sum of Mulliken charges =   0.00000

 Dipole moment (field-independent basis, Debye):
    X=              0.0036    Y=             -1.9206    Z=              0.0000  Tot=              1.9206
 Quadrupole moment (field-independent basis, Debye-Ang):
   XX=             -4.2157   YY=             -6.4067   ZZ=             -7.6049
   XY=              0.0215   XZ=              0.0000   YZ=              0.0000

 1\1\GINC-NODE17\SP\RB2PLYPD3-FC\def2QZVP\H2O1\BOITTIER\26-Aug-2020\0\\
 #p B2PLYPD3/Def2QZVP\\h2o\\0,1\O,0,-5.326605,-0.762329,0.919594\H,0,-4
 .368927,-0.768292,0.914468\H,0,-5.609308,0.149606,0.778168\\Version=ES
 64L-G09RevD.01\State=1-A'\HF=-76.3349103\MP2=-76.4249192\RMSD=3.855e-0
 9\PG=CS [SG(H2O1)]\\@

 A SLIP OF THE FOOT YOU MAY SOON RECOVER, BUT A SLIP OF THE TONGUE

 Normal termination of Gaussian 09 at Wed Aug 26 11:57:05 2020.
