 Gaussian 09, Revision D.01,
 Gaussian 09:  ES64L-G09RevD.01 24-Apr-2013

 --------------------
 #p B2PLYPD3/Def2QZVP
 --------------------

 ---
 h2o
 ---
 Symbolic Z-matrix:
 Charge =  0 Multiplicity = 1

                         Standard orientation:
 ---------------------------------------------------------------------
 Center     Atomic      Atomic             Coordinates (Angstroms)
 Number     Number       Type             X           Y           Z
 ---------------------------------------------------------------------
      1          8           0        0.000000    0.120072    0.000000
      2          1           0        0.745797   -0.488696    0.000000
      3          1           0       -0.745797   -0.471879    0.000000
 ---------------------------------------------------------------------

 SCF Done:  E(RB2PLYPD3) =  -76.3348874406     A.U. after   10 cycles
 E2(B2PLYPD3) =    -0.9002579040D-01 E(B2PLYPD3) =    -0.76424913230972D+02

 The electronic state is 1-A'.
 Alpha  occ. eigenvalues --  -19.73204  -1.15911  -0.60898  -0.47922  -0.40034
 Alpha virt. eigenvalues --    0.04503   0.10262   0.27544   0.30401   0.30795
 Alpha virt. eigenvalues --    0.36333   0.44024   0.49871   0.56627   0.61520
 Alpha virt. eigenvalues --    0.65647   0.81296   0.94130   0.95871   1.03492

 Mulliken charges:
               1
     1  O   -0.437165
     2  H    0.220928
     3  H    0.216237
 Sum of Mulliken charges =   0.00000

 Dipole moment (field-independent basis, Debye):
    X=             -0.0056    Y=             -1.9957    Z=              0.0000  Tot=              1.9957
 Quadrupole moment (field-independent basis, Debye-Ang):
   XX=             -4.4398   YY=             -6.2568   ZZ=             -7.5863
   XY=             -0.0266   XZ=              0.0000   YZ=              0.0000

 1\1\GINC-NODE39\SP\RB2PLYPD3-FC\def2QZVP\H2O1\BOITTIER\26-Aug-2020\0\\
 #p B2PLYPD3/Def2QZVP\\h2o\\0,1\O,0,-5.326605,-0.766808,0.917649\H,0,-4
 .368927,-0.676623,0.956781\H,0,-5.609308,0.129594,0.765459\\Version=ES
 64L-G09RevD.01\State=1-A'\HF=-76.3348874\MP2=-76.4249132\RMSD=4.370e-0
 9\PG=CS [SG(H2O1)]\\@

 ALL THINGS ARE POSSIBLE EXCEPT SKIING THROUGH A REVOLVING DOOR.

 Normal termination of Gaussian 09 at Wed Aug 26 08:59:51 2020.
