 Gaussian 09, Revision D.01,
 Gaussian 09:  ES64L-G09RevD.01 24-Apr-2013

 --------------------
 #p B2PLYPD3/Def2QZVP
 --------------------

 ---
 h2o
 ---
 Symbolic Z-matrix:
 Charge =  0 Multiplicity = 1

                         Standard orientation:
 ---------------------------------------------------------------------
 Center     Atomic      Atomic             Coordinates (Angstroms)
 Number     Number       Type             X           Y           Z
 ---------------------------------------------------------------------
      1          8           0        0.000000    0.109907    0.000000
      2          1           0        0.765847   -0.468010    0.000000
      3          1           0       -0.765847   -0.411244    0.000000
 ---------------------------------------------------------------------

 SCF Done:  E(RB2PLYPD3) =  -76.3344220635     A.U. after   10 cycles
 E2(B2PLYPD3) =    -0.8937953326D-01 E(B2PLYPD3) =    -0.76423801596805D+02

 The electronic state is 1-A'.
 Alpha  occ. eigenvalues --  -19.72702  -1.16171  -0.62768  -0.46902  -0.40008
 Alpha virt. eigenvalues --    0.04771   0.10281   0.27348   0.30381   0.31615
 Alpha virt. eigenvalues --    0.35914   0.44442   0.51223   0.55836   0.63554
 Alpha virt. eigenvalues --    0.65144   0.81270   0.93869   0.95755   1.05514

 Mulliken charges:
               1
     1  O   -0.437790
     2  H    0.227167
     3  H    0.210623
 Sum of Mulliken charges =   0.00000

 Dipole moment (field-independent basis, Debye):
    X=             -0.0153    Y=             -1.8862    Z=              0.0000  Tot=              1.8863
 Quadrupole moment (field-independent basis, Debye-Ang):
   XX=             -4.2045   YY=             -6.4291   ZZ=             -7.5646
   XY=             -0.0979   XZ=              0.0000   YZ=              0.0000

 1\1\GINC-NODE40\SP\RB2PLYPD3-FC\def2QZVP\H2O1\BOITTIER\26-Aug-2020\0\\
 #p B2PLYPD3/Def2QZVP\\h2o\\0,1\O,0,-5.326605,-0.760185,0.911208\H,0,-4
 .368927,-0.773336,0.967685\H,0,-5.609308,0.120348,0.857724\\Version=ES
 64L-G09RevD.01\State=1-A'\HF=-76.3344221\MP2=-76.4238016\RMSD=4.752e-0
 9\PG=CS [SG(H2O1)]\\@

 A MAN SHOULD NEVER BE ASHAMED TO OWN HE HAS BEEN IN THE WRONG

 Normal termination of Gaussian 09 at Wed Aug 26 08:34:08 2020.
