 Gaussian 09, Revision D.01,
 Gaussian 09:  ES64L-G09RevD.01 24-Apr-2013

 --------------------
 #p B2PLYPD3/Def2QZVP
 --------------------

 ---
 h2o
 ---
 Symbolic Z-matrix:
 Charge =  0 Multiplicity = 1

                         Standard orientation:
 ---------------------------------------------------------------------
 Center     Atomic      Atomic             Coordinates (Angstroms)
 Number     Number       Type             X           Y           Z
 ---------------------------------------------------------------------
      1          8           0        0.000000    0.118994    0.000000
      2          1           0        0.761074   -0.464420    0.000000
      3          1           0       -0.761074   -0.487531    0.000000
 ---------------------------------------------------------------------

 SCF Done:  E(RB2PLYPD3) =  -76.3346654141     A.U. after   10 cycles
 E2(B2PLYPD3) =    -0.9025733943D-01 E(B2PLYPD3) =    -0.76424922753551D+02

 The electronic state is 1-A'.
 Alpha  occ. eigenvalues --  -19.73275  -1.15385  -0.60817  -0.47493  -0.39921
 Alpha virt. eigenvalues --    0.04439   0.10150   0.27573   0.30428   0.30764
 Alpha virt. eigenvalues --    0.35697   0.43777   0.50067   0.56269   0.61925
 Alpha virt. eigenvalues --    0.65829   0.81010   0.93672   0.96072   1.03162

 Mulliken charges:
               1
     1  O   -0.447171
     2  H    0.220557
     3  H    0.226613
 Sum of Mulliken charges =   0.00000

 Dipole moment (field-independent basis, Debye):
    X=              0.0074    Y=             -1.9767    Z=              0.0000  Tot=              1.9767
 Quadrupole moment (field-independent basis, Debye-Ang):
   XX=             -4.3513   YY=             -6.3096   ZZ=             -7.6089
   XY=              0.0377   XZ=              0.0000   YZ=              0.0000

 1\1\GINC-NODE13\SP\RB2PLYPD3-FC\def2QZVP\H2O1\BOITTIER\26-Aug-2020\0\\
 #p B2PLYPD3/Def2QZVP\\h2o\\0,1\O,0,-5.326605,-0.765184,0.923077\H,0,-4
 .368927,-0.719391,0.904081\H,0,-5.609308,0.146378,0.73271\\Version=ES6
 4L-G09RevD.01\State=1-A'\HF=-76.3346654\MP2=-76.4249228\RMSD=4.159e-09
 \PG=CS [SG(H2O1)]\\@

 I (ERNEST RUTHERFORD) CAME INTO THE ROOM, WHICH WAS HALF DARK, AND PRESENTLY

 Normal termination of Gaussian 09 at Wed Aug 26 09:32:07 2020.
