 Gaussian 09, Revision D.01,
 Gaussian 09:  ES64L-G09RevD.01 24-Apr-2013

 --------------------
 #p B2PLYPD3/Def2QZVP
 --------------------

 ---
 h2o
 ---
 Symbolic Z-matrix:
 Charge =  0 Multiplicity = 1

                         Standard orientation:
 ---------------------------------------------------------------------
 Center     Atomic      Atomic             Coordinates (Angstroms)
 Number     Number       Type             X           Y           Z
 ---------------------------------------------------------------------
      1          8           0        0.000000    0.117537    0.000000
      2          1           0        0.748148   -0.496242    0.000000
      3          1           0       -0.748148   -0.444052    0.000000
 ---------------------------------------------------------------------

 SCF Done:  E(RB2PLYPD3) =  -76.3346665662     A.U. after   10 cycles
 E2(B2PLYPD3) =    -0.8978878376D-01 E(B2PLYPD3) =    -0.76424455349997D+02

 The electronic state is 1-A'.
 Alpha  occ. eigenvalues --  -19.73048  -1.16110  -0.61435  -0.47729  -0.40051
 Alpha virt. eigenvalues --    0.04585   0.10294   0.27476   0.30391   0.30989
 Alpha virt. eigenvalues --    0.36390   0.44215   0.50159   0.56475   0.61980
 Alpha virt. eigenvalues --    0.65458   0.81373   0.94053   0.95791   1.04035

 Mulliken charges:
               1
     1  O   -0.434745
     2  H    0.224854
     3  H    0.209891
 Sum of Mulliken charges =   0.00000

 Dipole moment (field-independent basis, Debye):
    X=             -0.0167    Y=             -1.9703    Z=              0.0000  Tot=              1.9704
 Quadrupole moment (field-independent basis, Debye-Ang):
   XX=             -4.3932   YY=             -6.2921   ZZ=             -7.5752
   XY=             -0.0842   XZ=              0.0000   YZ=              0.0000

 1\1\GINC-NODE31\SP\RB2PLYPD3-FC\def2QZVP\H2O1\BOITTIER\26-Aug-2020\0\\
 #p B2PLYPD3/Def2QZVP\\h2o\\0,1\O,0,-5.326605,-0.760832,0.933246\H,0,-4
 .368927,-0.736406,0.796479\H,0,-5.609308,0.093761,0.678576\\Version=ES
 64L-G09RevD.01\State=1-A'\HF=-76.3346666\MP2=-76.4244553\RMSD=4.752e-0
 9\PG=CS [SG(H2O1)]\\@

 BE NOT THE FIRST BY WHOM THE NEW ARE TRIED,

 Normal termination of Gaussian 09 at Wed Aug 26 09:09:21 2020.
