 Gaussian 09, Revision D.01,
 Gaussian 09:  ES64L-G09RevD.01 24-Apr-2013

 --------------------
 #p B2PLYPD3/Def2QZVP
 --------------------

 ---
 h2o
 ---
 Symbolic Z-matrix:
 Charge =  0 Multiplicity = 1

                         Standard orientation:
 ---------------------------------------------------------------------
 Center     Atomic      Atomic             Coordinates (Angstroms)
 Number     Number       Type             X           Y           Z
 ---------------------------------------------------------------------
      1          8           0        0.000000    0.118197    0.000000
      2          1           0        0.760259   -0.467712    0.000000
      3          1           0       -0.760259   -0.477862    0.000000
 ---------------------------------------------------------------------

 SCF Done:  E(RB2PLYPD3) =  -76.3349264193     A.U. after   10 cycles
 E2(B2PLYPD3) =    -0.9014441500D-01 E(B2PLYPD3) =    -0.76425070834303D+02

 The electronic state is 1-A'.
 Alpha  occ. eigenvalues --  -19.73214  -1.15505  -0.61015  -0.47477  -0.39939
 Alpha virt. eigenvalues --    0.04482   0.10175   0.27548   0.30421   0.30868
 Alpha virt. eigenvalues --    0.35781   0.43857   0.50151   0.56263   0.62040
 Alpha virt. eigenvalues --    0.65746   0.81072   0.93748   0.96011   1.03472

 Mulliken charges:
               1
     1  O   -0.445590
     2  H    0.221443
     3  H    0.224147
 Sum of Mulliken charges =   0.00000

 Dipole moment (field-independent basis, Debye):
    X=              0.0032    Y=             -1.9697    Z=              0.0000  Tot=              1.9697
 Quadrupole moment (field-independent basis, Debye-Ang):
   XX=             -4.3442   YY=             -6.3175   ZZ=             -7.6024
   XY=              0.0166   XZ=              0.0000   YZ=              0.0000

 1\1\GINC-NODE21\SP\RB2PLYPD3-FC\def2QZVP\H2O1\BOITTIER\26-Aug-2020\0\\
 #p B2PLYPD3/Def2QZVP\\h2o\\0,1\O,0,-5.326605,-0.765614,0.916969\H,0,-4
 .368927,-0.713862,0.955146\H,0,-5.609308,0.147723,0.778498\\Version=ES
 64L-G09RevD.01\State=1-A'\HF=-76.3349264\MP2=-76.4250708\RMSD=4.075e-0
 9\PG=CS [SG(H2O1)]\\@

 ... IT CAN BE VERY DIFFICULT, IN THESE COMPLEX TIMES,

 Normal termination of Gaussian 09 at Wed Aug 26 12:35:52 2020.
