 Gaussian 09, Revision D.01,
 Gaussian 09:  ES64L-G09RevD.01 24-Apr-2013

 --------------------
 #p B2PLYPD3/Def2QZVP
 --------------------

 ---
 h2o
 ---
 Symbolic Z-matrix:
 Charge =  0 Multiplicity = 1

                         Standard orientation:
 ---------------------------------------------------------------------
 Center     Atomic      Atomic             Coordinates (Angstroms)
 Number     Number       Type             X           Y           Z
 ---------------------------------------------------------------------
      1          8           0        0.000000    0.125935    0.000000
      2          1           0        0.727264   -0.515563    0.000000
      3          1           0       -0.727264   -0.491920    0.000000
 ---------------------------------------------------------------------

 SCF Done:  E(RB2PLYPD3) =  -76.3336150331     A.U. after   10 cycles
 E2(B2PLYPD3) =    -0.9033217156D-01 E(B2PLYPD3) =    -0.76423947204659D+02

 The electronic state is 1-A'.
 Alpha  occ. eigenvalues --  -19.73438  -1.16005  -0.59892  -0.48651  -0.40095
 Alpha virt. eigenvalues --    0.04357   0.10291   0.27649   0.30339   0.30397
 Alpha virt. eigenvalues --    0.36675   0.43918   0.49274   0.57203   0.60339
 Alpha virt. eigenvalues --    0.65811   0.81287   0.94573   0.95927   1.02526

 Mulliken charges:
               1
     1  O   -0.432276
     2  H    0.219433
     3  H    0.212843
 Sum of Mulliken charges =   0.00000

 Dipole moment (field-independent basis, Debye):
    X=             -0.0090    Y=             -2.0598    Z=              0.0000  Tot=              2.0598
 Quadrupole moment (field-independent basis, Debye-Ang):
   XX=             -4.6098   YY=             -6.1362   ZZ=             -7.5899
   XY=             -0.0351   XZ=              0.0000   YZ=              0.0000

 1\1\GINC-NODE28\SP\RB2PLYPD3-FC\def2QZVP\H2O1\BOITTIER\26-Aug-2020\0\\
 #p B2PLYPD3/Def2QZVP\\h2o\\0,1\O,0,-5.326605,-0.768139,0.929768\H,0,-4
 .368927,-0.628424,0.868404\H,0,-5.609308,0.102696,0.660725\\Version=ES
 64L-G09RevD.01\State=1-A'\HF=-76.333615\MP2=-76.4239472\RMSD=4.888e-09
 \PG=CS [SG(H2O1)]\\@

 JUST WHEN YOU THINK YOU'VE GOT THE WORLD ON A STRING,

 Normal termination of Gaussian 09 at Wed Aug 26 09:08:00 2020.
