 Gaussian 09, Revision D.01,
 Gaussian 09:  ES64L-G09RevD.01 24-Apr-2013

 --------------------
 #p B2PLYPD3/Def2QZVP
 --------------------

 ---
 h2o
 ---
 Symbolic Z-matrix:
 Charge =  0 Multiplicity = 1

                         Standard orientation:
 ---------------------------------------------------------------------
 Center     Atomic      Atomic             Coordinates (Angstroms)
 Number     Number       Type             X           Y           Z
 ---------------------------------------------------------------------
      1          8           0        0.000000    0.116348    0.000000
      2          1           0        0.731059   -0.511076    0.000000
      3          1           0       -0.731059   -0.419710    0.000000
 ---------------------------------------------------------------------

 SCF Done:  E(RB2PLYPD3) =  -76.3327092378     A.U. after   10 cycles
 E2(B2PLYPD3) =    -0.8927093164D-01 E(B2PLYPD3) =    -0.76421980169471D+02

 The electronic state is 1-A'.
 Alpha  occ. eigenvalues --  -19.72786  -1.17033  -0.62087  -0.48067  -0.40216
 Alpha virt. eigenvalues --    0.04722   0.10459   0.27357   0.30345   0.31153
 Alpha virt. eigenvalues --    0.37227   0.44788   0.50203   0.56746   0.61940
 Alpha virt. eigenvalues --    0.65030   0.81753   0.94365   0.95502   1.04803

 Mulliken charges:
               1
     1  O   -0.417314
     2  H    0.223269
     3  H    0.194045
 Sum of Mulliken charges =   0.00000

 Dipole moment (field-independent basis, Debye):
    X=             -0.0300    Y=             -1.9683    Z=              0.0000  Tot=              1.9685
 Quadrupole moment (field-independent basis, Debye-Ang):
   XX=             -4.4570   YY=             -6.2573   ZZ=             -7.5352
   XY=             -0.1443   XZ=              0.0000   YZ=              0.0000

 1\1\GINC-NODE02\SP\RB2PLYPD3-FC\def2QZVP\H2O1\BOITTIER\26-Aug-2020\0\\
 #p B2PLYPD3/Def2QZVP\\h2o\\0,1\O,0,-5.326605,-0.762035,0.927797\H,0,-4
 .368927,-0.695754,0.846747\H,0,-5.609308,0.072354,0.714066\\Version=ES
 64L-G09RevD.01\State=1-A'\HF=-76.3327092\MP2=-76.4219802\RMSD=5.897e-0
 9\PG=CS [SG(H2O1)]\\@

 IBM COMPATIBILITY IS LIKE PREGNANCY. YOU ARE OR

 Normal termination of Gaussian 09 at Wed Aug 26 09:26:35 2020.
