 Gaussian 09, Revision D.01,
 Gaussian 09:  ES64L-G09RevD.01 24-Apr-2013

 --------------------
 #p B2PLYPD3/Def2QZVP
 --------------------

 ---
 h2o
 ---
 Symbolic Z-matrix:
 Charge =  0 Multiplicity = 1

                         Standard orientation:
 ---------------------------------------------------------------------
 Center     Atomic      Atomic             Coordinates (Angstroms)
 Number     Number       Type             X           Y           Z
 ---------------------------------------------------------------------
      1          8           0        0.000000    0.115905    0.000000
      2          1           0        0.738627   -0.497575    0.000000
      3          1           0       -0.738627   -0.429664    0.000000
 ---------------------------------------------------------------------

 SCF Done:  E(RB2PLYPD3) =  -76.3339464844     A.U. after   10 cycles
 E2(B2PLYPD3) =    -0.8938575403D-01 E(B2PLYPD3) =    -0.76423332238416D+02

 The electronic state is 1-A'.
 Alpha  occ. eigenvalues --  -19.72837  -1.16728  -0.62028  -0.47875  -0.40158
 Alpha virt. eigenvalues --    0.04710   0.10405   0.27385   0.30359   0.31202
 Alpha virt. eigenvalues --    0.36922   0.44604   0.50288   0.56603   0.62109
 Alpha virt. eigenvalues --    0.65140   0.81649   0.94312   0.95553   1.04837

 Mulliken charges:
               1
     1  O   -0.423772
     2  H    0.222384
     3  H    0.201388
 Sum of Mulliken charges =   0.00000

 Dipole moment (field-independent basis, Debye):
    X=             -0.0217    Y=             -1.9601    Z=              0.0000  Tot=              1.9603
 Quadrupole moment (field-independent basis, Debye-Ang):
   XX=             -4.4159   YY=             -6.2852   ZZ=             -7.5467
   XY=             -0.1088   XZ=              0.0000   YZ=              0.0000

 1\1\GINC-NODE38\SP\RB2PLYPD3-FC\def2QZVP\H2O1\BOITTIER\26-Aug-2020\0\\
 #p B2PLYPD3/Def2QZVP\\h2o\\0,1\O,0,-5.326605,-0.763242,0.922073\H,0,-4
 .368927,-0.697824,0.899702\H,0,-5.609308,0.093748,0.752184\\Version=ES
 64L-G09RevD.01\State=1-A'\HF=-76.3339465\MP2=-76.4233322\RMSD=5.297e-0
 9\PG=CS [SG(H2O1)]\\@

 WE ARE PERHAPS NOT FAR REMOVED FROM THE TIME WHEN WE SHALL BE ABLE TO SUBMIT

 Normal termination of Gaussian 09 at Wed Aug 26 12:51:58 2020.
