 Gaussian 09, Revision D.01,
 Gaussian 09:  ES64L-G09RevD.01 24-Apr-2013

 --------------------
 #p B2PLYPD3/Def2QZVP
 --------------------

 ---
 h2o
 ---
 Symbolic Z-matrix:
 Charge =  0 Multiplicity = 1

                         Standard orientation:
 ---------------------------------------------------------------------
 Center     Atomic      Atomic             Coordinates (Angstroms)
 Number     Number       Type             X           Y           Z
 ---------------------------------------------------------------------
      1          8           0        0.000000    0.116978    0.000000
      2          1           0        0.750425   -0.482840    0.000000
      3          1           0       -0.750425   -0.452984    0.000000
 ---------------------------------------------------------------------

 SCF Done:  E(RB2PLYPD3) =  -76.3350635161     A.U. after   10 cycles
 E2(B2PLYPD3) =    -0.8977392184D-01 E(B2PLYPD3) =    -0.76424837437943D+02

 The electronic state is 1-A'.
 Alpha  occ. eigenvalues --  -19.73034  -1.16067  -0.61514  -0.47655  -0.40041
 Alpha virt. eigenvalues --    0.04602   0.10286   0.27473   0.30392   0.31066
 Alpha virt. eigenvalues --    0.36315   0.44192   0.50232   0.56422   0.62095
 Alpha virt. eigenvalues --    0.65458   0.81360   0.94071   0.95779   1.04237

 Mulliken charges:
               1
     1  O   -0.436028
     2  H    0.222279
     3  H    0.213749
 Sum of Mulliken charges =   0.00000

 Dipole moment (field-independent basis, Debye):
    X=             -0.0094    Y=             -1.9639    Z=              0.0000  Tot=              1.9639
 Quadrupole moment (field-independent basis, Debye-Ang):
   XX=             -4.3748   YY=             -6.3061   ZZ=             -7.5760
   XY=             -0.0485   XZ=              0.0000   YZ=              0.0000

 1\1\GINC-NODE39\SP\RB2PLYPD3-FC\def2QZVP\H2O1\BOITTIER\26-Aug-2020\0\\
 #p B2PLYPD3/Def2QZVP\\h2o\\0,1\O,0,-5.326605,-0.762902,0.926485\H,0,-4
 .368927,-0.721404,0.862842\H,0,-5.609308,0.111875,0.71951\\Version=ES6
 4L-G09RevD.01\State=1-A'\HF=-76.3350635\MP2=-76.4248374\RMSD=4.379e-09
 \PG=CS [SG(H2O1)]\\@

 I MET A TRAVELLER FROM AN ANTIQUE LAND

 Normal termination of Gaussian 09 at Wed Aug 26 11:24:10 2020.
