 Gaussian 09, Revision D.01,
 Gaussian 09:  ES64L-G09RevD.01 24-Apr-2013

 --------------------
 #p B2PLYPD3/Def2QZVP
 --------------------

 ---
 h2o
 ---
 Symbolic Z-matrix:
 Charge =  0 Multiplicity = 1

                         Standard orientation:
 ---------------------------------------------------------------------
 Center     Atomic      Atomic             Coordinates (Angstroms)
 Number     Number       Type             X           Y           Z
 ---------------------------------------------------------------------
      1          8           0        0.000000    0.119661    0.000000
      2          1           0        0.796372   -0.412613    0.000000
      3          1           0       -0.796372   -0.544675    0.000000
 ---------------------------------------------------------------------

 SCF Done:  E(RB2PLYPD3) =  -76.3286871245     A.U. after   10 cycles
 E2(B2PLYPD3) =    -0.9123472447D-01 E(B2PLYPD3) =    -0.76419921848996D+02

 The electronic state is 1-A'.
 Alpha  occ. eigenvalues --  -19.73620  -1.13941  -0.59869  -0.46598  -0.39615
 Alpha virt. eigenvalues --    0.04019   0.09808   0.27673   0.29868   0.30506
 Alpha virt. eigenvalues --    0.34304   0.43088   0.50248   0.55447   0.62414
 Alpha virt. eigenvalues --    0.66455   0.79910   0.91875   0.96706   1.01179

 Mulliken charges:
               1
     1  O   -0.471115
     2  H    0.221270
     3  H    0.249846
 Sum of Mulliken charges =   0.00000

 Dipole moment (field-independent basis, Debye):
    X=              0.0387    Y=             -1.9597    Z=              0.0000  Tot=              1.9601
 Quadrupole moment (field-independent basis, Debye-Ang):
   XX=             -4.1844   YY=             -6.3799   ZZ=             -7.6827
   XY=              0.2267   XZ=              0.0000   YZ=              0.0000

 1\1\GINC-NODE05\SP\RB2PLYPD3-FC\def2QZVP\H2O1\BOITTIER\26-Aug-2020\0\\
 #p B2PLYPD3/Def2QZVP\\h2o\\0,1\O,0,-5.326605,-0.766267,0.919748\H,0,-4
 .368927,-0.773227,0.937839\H,0,-5.609308,0.217541,0.753164\\Version=ES
 64L-G09RevD.01\State=1-A'\HF=-76.3286871\MP2=-76.4199218\RMSD=6.046e-0
 9\PG=CS [SG(H2O1)]\\@

 A SUCCESSFUL PURSUIT OF SCIENCE MAKES A MAN THE

 Normal termination of Gaussian 09 at Wed Aug 26 09:48:22 2020.
