 Gaussian 09, Revision D.01,
 Gaussian 09:  ES64L-G09RevD.01 24-Apr-2013

 --------------------
 #p B2PLYPD3/Def2QZVP
 --------------------

 ---
 h2o
 ---
 Symbolic Z-matrix:
 Charge =  0 Multiplicity = 1

                         Standard orientation:
 ---------------------------------------------------------------------
 Center     Atomic      Atomic             Coordinates (Angstroms)
 Number     Number       Type             X           Y           Z
 ---------------------------------------------------------------------
      1          8           0        0.000000    0.119102    0.000000
      2          1           0        0.755682   -0.472444    0.000000
      3          1           0       -0.755682   -0.480373    0.000000
 ---------------------------------------------------------------------

 SCF Done:  E(RB2PLYPD3) =  -76.3349192362     A.U. after   10 cycles
 E2(B2PLYPD3) =    -0.9014146879D-01 E(B2PLYPD3) =    -0.76425060704967D+02

 The electronic state is 1-A'.
 Alpha  occ. eigenvalues --  -19.73232  -1.15598  -0.60910  -0.47633  -0.39965
 Alpha virt. eigenvalues --    0.04477   0.10196   0.27556   0.30416   0.30813
 Alpha virt. eigenvalues --    0.35939   0.43883   0.50024   0.56389   0.61824
 Alpha virt. eigenvalues --    0.65743   0.81134   0.93858   0.95982   1.03382

 Mulliken charges:
               1
     1  O   -0.443328
     2  H    0.220598
     3  H    0.222730
 Sum of Mulliken charges =   0.00000

 Dipole moment (field-independent basis, Debye):
    X=              0.0026    Y=             -1.9809    Z=              0.0000  Tot=              1.9809
 Quadrupole moment (field-independent basis, Debye-Ang):
   XX=             -4.3789   YY=             -6.2946   ZZ=             -7.5992
   XY=              0.0128   XZ=              0.0000   YZ=              0.0000

 1\1\GINC-NODE20\SP\RB2PLYPD3-FC\def2QZVP\H2O1\BOITTIER\26-Aug-2020\0\\
 #p B2PLYPD3/Def2QZVP\\h2o\\0,1\O,0,-5.326605,-0.764971,0.924321\H,0,-4
 .368927,-0.711665,0.892798\H,0,-5.609308,0.135247,0.724042\\Version=ES
 64L-G09RevD.01\State=1-A'\HF=-76.3349192\MP2=-76.4250607\RMSD=4.152e-0
 9\PG=CS [SG(H2O1)]\\@

 Normal termination of Gaussian 09 at Wed Aug 26 10:33:43 2020.
