 Gaussian 09, Revision D.01,
 Gaussian 09:  ES64L-G09RevD.01 24-Apr-2013

 --------------------
 #p B2PLYPD3/Def2QZVP
 --------------------

 ---
 h2o
 ---
 Symbolic Z-matrix:
 Charge =  0 Multiplicity = 1

                         Standard orientation:
 ---------------------------------------------------------------------
 Center     Atomic      Atomic             Coordinates (Angstroms)
 Number     Number       Type             X           Y           Z
 ---------------------------------------------------------------------
      1          8           0        0.000000    0.116369    0.000000
      2          1           0        0.766726   -0.458638    0.000000
      3          1           0       -0.766726   -0.472310    0.000000
 ---------------------------------------------------------------------

 SCF Done:  E(RB2PLYPD3) =  -76.3349533232     A.U. after   10 cycles
 E2(B2PLYPD3) =    -0.9009057712D-01 E(B2PLYPD3) =    -0.76425043900366D+02

 The electronic state is 1-A'.
 Alpha  occ. eigenvalues --  -19.73151  -1.15431  -0.61279  -0.47230  -0.39910
 Alpha virt. eigenvalues --    0.04511   0.10156   0.27522   0.30425   0.31005
 Alpha virt. eigenvalues --    0.35581   0.43863   0.50407   0.56068   0.62440
 Alpha virt. eigenvalues --    0.65706   0.80996   0.93625   0.96032   1.03776

 Mulliken charges:
               1
     1  O   -0.448190
     2  H    0.222285
     3  H    0.225905
 Sum of Mulliken charges =   0.00000

 Dipole moment (field-independent basis, Debye):
    X=              0.0041    Y=             -1.9486    Z=              0.0000  Tot=              1.9487
 Quadrupole moment (field-independent basis, Debye-Ang):
   XX=             -4.2874   YY=             -6.3566   ZZ=             -7.6040
   XY=              0.0228   XZ=              0.0000   YZ=              0.0000

 1\1\GINC-NODE01\SP\RB2PLYPD3-FC\def2QZVP\H2O1\BOITTIER\26-Aug-2020\0\\
 #p B2PLYPD3/Def2QZVP\\h2o\\0,1\O,0,-5.326605,-0.7643,0.917564\H,0,-4.3
 68927,-0.737238,0.942506\H,0,-5.609308,0.15009,0.781989\\Version=ES64L
 -G09RevD.01\State=1-A'\HF=-76.3349533\MP2=-76.4250439\RMSD=3.979e-09\P
 G=CS [SG(H2O1)]\\@

 THE PROGRESS OF RIVERS TO THE SEA IS NOT AS RAPID

 Normal termination of Gaussian 09 at Wed Aug 26 08:30:16 2020.
