 Gaussian 09, Revision D.01,
 Gaussian 09:  ES64L-G09RevD.01 24-Apr-2013

 --------------------
 #p B2PLYPD3/Def2QZVP
 --------------------

 ---
 h2o
 ---
 Symbolic Z-matrix:
 Charge =  0 Multiplicity = 1

                         Standard orientation:
 ---------------------------------------------------------------------
 Center     Atomic      Atomic             Coordinates (Angstroms)
 Number     Number       Type             X           Y           Z
 ---------------------------------------------------------------------
      1          8           0        0.000000    0.115673    0.000000
      2          1           0        0.764908   -0.461408    0.000000
      3          1           0       -0.764908   -0.463976    0.000000
 ---------------------------------------------------------------------

 SCF Done:  E(RB2PLYPD3) =  -76.3351335902     A.U. after   10 cycles
 E2(B2PLYPD3) =    -0.8996838060D-01 E(B2PLYPD3) =    -0.76425101970784D+02

 The electronic state is 1-A'.
 Alpha  occ. eigenvalues --  -19.73087  -1.15583  -0.61479  -0.47240  -0.39935
 Alpha virt. eigenvalues --    0.04556   0.10186   0.27497   0.30416   0.31099
 Alpha virt. eigenvalues --    0.35701   0.43961   0.50478   0.56083   0.62528
 Alpha virt. eigenvalues --    0.65613   0.81076   0.93719   0.95964   1.04095

 Mulliken charges:
               1
     1  O   -0.445873
     2  H    0.222590
     3  H    0.223283
 Sum of Mulliken charges =   0.00000

 Dipole moment (field-independent basis, Debye):
    X=              0.0008    Y=             -1.9431    Z=              0.0000  Tot=              1.9431
 Quadrupole moment (field-independent basis, Debye-Ang):
   XX=             -4.2868   YY=             -6.3604   ZZ=             -7.5962
   XY=              0.0043   XZ=              0.0000   YZ=              0.0000

 1\1\GINC-NODE06\SP\RB2PLYPD3-FC\def2QZVP\H2O1\BOITTIER\26-Aug-2020\0\\
 #p B2PLYPD3/Def2QZVP\\h2o\\0,1\O,0,-5.326605,-0.763036,0.922345\H,0,-4
 .368927,-0.745502,0.896794\H,0,-5.609308,0.138117,0.751816\\Version=ES
 64L-G09RevD.01\State=1-A'\HF=-76.3351336\MP2=-76.425102\RMSD=3.954e-09
 \PG=CS [SG(H2O1)]\\@

 IN NATURE THERE ARE NEITHER REWARDS OR

 Normal termination of Gaussian 09 at Wed Aug 26 09:12:09 2020.
