 Gaussian 09, Revision D.01,
 Gaussian 09:  ES64L-G09RevD.01 24-Apr-2013

 --------------------
 #p B2PLYPD3/Def2QZVP
 --------------------

 ---
 h2o
 ---
 Symbolic Z-matrix:
 Charge =  0 Multiplicity = 1

                         Standard orientation:
 ---------------------------------------------------------------------
 Center     Atomic      Atomic             Coordinates (Angstroms)
 Number     Number       Type             X           Y           Z
 ---------------------------------------------------------------------
      1          8           0        0.000000    0.120065    0.000000
      2          1           0        0.734762   -0.502551    0.000000
      3          1           0       -0.734762   -0.457967    0.000000
 ---------------------------------------------------------------------

 SCF Done:  E(RB2PLYPD3) =  -76.3344222245     A.U. after   10 cycles
 E2(B2PLYPD3) =    -0.8977546846D-01 E(B2PLYPD3) =    -0.76424197693009D+02

 The electronic state is 1-A'.
 Alpha  occ. eigenvalues --  -19.73094  -1.16398  -0.61126  -0.48189  -0.40126
 Alpha virt. eigenvalues --    0.04567   0.10358   0.27495   0.30378   0.30860
 Alpha virt. eigenvalues --    0.36838   0.44296   0.49827   0.56846   0.61364
 Alpha virt. eigenvalues --    0.65438   0.81502   0.94408   0.95697   1.03900

 Mulliken charges:
               1
     1  O   -0.428318
     2  H    0.220749
     3  H    0.207569
 Sum of Mulliken charges =   0.00000

 Dipole moment (field-independent basis, Debye):
    X=             -0.0153    Y=             -2.0018    Z=              0.0000  Tot=              2.0018
 Quadrupole moment (field-independent basis, Debye-Ang):
   XX=             -4.4917   YY=             -6.2269   ZZ=             -7.5655
   XY=             -0.0694   XZ=              0.0000   YZ=              0.0000

 1\1\GINC-NODE15\SP\RB2PLYPD3-FC\def2QZVP\H2O1\BOITTIER\26-Aug-2020\0\\
 #p B2PLYPD3/Def2QZVP\\h2o\\0,1\O,0,-5.326605,-0.765793,0.923601\H,0,-4
 .368927,-0.666,0.903117\H,0,-5.609308,0.102734,0.724263\\Version=ES64L
 -G09RevD.01\State=1-A'\HF=-76.3344222\MP2=-76.4241977\RMSD=4.898e-09\P
 G=CS [SG(H2O1)]\\@

 IT MATTERS NOT HOW DEEP YOU PLOW,

 Normal termination of Gaussian 09 at Wed Aug 26 08:30:11 2020.
