 Gaussian 09, Revision D.01,
 Gaussian 09:  ES64L-G09RevD.01 24-Apr-2013

 --------------------
 #p B2PLYPD3/Def2QZVP
 --------------------

 ---
 h2o
 ---
 Symbolic Z-matrix:
 Charge =  0 Multiplicity = 1

                         Standard orientation:
 ---------------------------------------------------------------------
 Center     Atomic      Atomic             Coordinates (Angstroms)
 Number     Number       Type             X           Y           Z
 ---------------------------------------------------------------------
      1          8           0        0.000000    0.116800    0.000000
      2          1           0        0.741061   -0.493941    0.000000
      3          1           0       -0.741061   -0.440456    0.000000
 ---------------------------------------------------------------------

 SCF Done:  E(RB2PLYPD3) =  -76.3344818640     A.U. after   10 cycles
 E2(B2PLYPD3) =    -0.8953986942D-01 E(B2PLYPD3) =    -0.76424021733410D+02

 The electronic state is 1-A'.
 Alpha  occ. eigenvalues --  -19.72926  -1.16508  -0.61763  -0.47868  -0.40124
 Alpha virt. eigenvalues --    0.04664   0.10369   0.27425   0.30370   0.31124
 Alpha virt. eigenvalues --    0.36762   0.44448   0.50200   0.56597   0.61991
 Alpha virt. eigenvalues --    0.65266   0.81560   0.94281   0.95624   1.04575

 Mulliken charges:
               1
     1  O   -0.427734
     2  H    0.221917
     3  H    0.205817
 Sum of Mulliken charges =   0.00000

 Dipole moment (field-independent basis, Debye):
    X=             -0.0173    Y=             -1.9674    Z=              0.0000  Tot=              1.9675
 Quadrupole moment (field-independent basis, Debye-Ang):
   XX=             -4.4168   YY=             -6.2822   ZZ=             -7.5569
   XY=             -0.0856   XZ=              0.0000   YZ=              0.0000

 1\1\GINC-NODE05\SP\RB2PLYPD3-FC\def2QZVP\H2O1\BOITTIER\26-Aug-2020\0\\
 #p B2PLYPD3/Def2QZVP\\h2o\\0,1\O,0,-5.326605,-0.76374,0.922674\H,0,-4.
 368927,-0.697242,0.89803\H,0,-5.609308,0.101131,0.744396\\Version=ES64
 L-G09RevD.01\State=1-A'\HF=-76.3344819\MP2=-76.4240217\RMSD=4.939e-09\
 PG=CS [SG(H2O1)]\\@

 TO ERR IS HUMAN - AND TO BLAME IT ON A COMPUTER IS EVEN MORE SO.

 Normal termination of Gaussian 09 at Wed Aug 26 12:43:56 2020.
