 Gaussian 09, Revision D.01,
 Gaussian 09:  ES64L-G09RevD.01 24-Apr-2013

 --------------------
 #p B2PLYPD3/Def2QZVP
 --------------------

 ---
 h2o
 ---
 Symbolic Z-matrix:
 Charge =  0 Multiplicity = 1

                         Standard orientation:
 ---------------------------------------------------------------------
 Center     Atomic      Atomic             Coordinates (Angstroms)
 Number     Number       Type             X           Y           Z
 ---------------------------------------------------------------------
      1          8           0        0.000000    0.119495    0.000000
      2          1           0        0.744753   -0.487953    0.000000
      3          1           0       -0.744753   -0.468006    0.000000
 ---------------------------------------------------------------------

 SCF Done:  E(RB2PLYPD3) =  -76.3349426519     A.U. after   10 cycles
 E2(B2PLYPD3) =    -0.8993341124D-01 E(B2PLYPD3) =    -0.76424876063107D+02

 The electronic state is 1-A'.
 Alpha  occ. eigenvalues --  -19.73154  -1.16023  -0.61053  -0.47920  -0.40051
 Alpha virt. eigenvalues --    0.04535   0.10284   0.27523   0.30395   0.30863
 Alpha virt. eigenvalues --    0.36421   0.44099   0.49927   0.56629   0.61597
 Alpha virt. eigenvalues --    0.65577   0.81349   0.94177   0.95819   1.03715

 Mulliken charges:
               1
     1  O   -0.435484
     2  H    0.220565
     3  H    0.214919
 Sum of Mulliken charges =   0.00000

 Dipole moment (field-independent basis, Debye):
    X=             -0.0067    Y=             -1.9909    Z=              0.0000  Tot=              1.9909
 Quadrupole moment (field-independent basis, Debye-Ang):
   XX=             -4.4367   YY=             -6.2610   ZZ=             -7.5807
   XY=             -0.0316   XZ=              0.0000   YZ=              0.0000

 1\1\GINC-NODE34\SP\RB2PLYPD3-FC\def2QZVP\H2O1\BOITTIER\26-Aug-2020\0\\
 #p B2PLYPD3/Def2QZVP\\h2o\\0,1\O,0,-5.326605,-0.765454,0.923384\H,0,-4
 .368927,-0.687446,0.902971\H,0,-5.609308,0.118756,0.72828\\Version=ES6
 4L-G09RevD.01\State=1-A'\HF=-76.3349427\MP2=-76.4248761\RMSD=4.403e-09
 \PG=CS [SG(H2O1)]\\@

 THAT'S WHAT MAKES US A GREAT COUNTRY.

 Normal termination of Gaussian 09 at Wed Aug 26 09:37:36 2020.
