 Gaussian 09, Revision D.01,
 Gaussian 09:  ES64L-G09RevD.01 24-Apr-2013

 --------------------
 #p B2PLYPD3/Def2QZVP
 --------------------

 ---
 h2o
 ---
 Symbolic Z-matrix:
 Charge =  0 Multiplicity = 1

                         Standard orientation:
 ---------------------------------------------------------------------
 Center     Atomic      Atomic             Coordinates (Angstroms)
 Number     Number       Type             X           Y           Z
 ---------------------------------------------------------------------
      1          8           0        0.000000    0.116788    0.000000
      2          1           0        0.774866   -0.446319    0.000000
      3          1           0       -0.774866   -0.487984    0.000000
 ---------------------------------------------------------------------

 SCF Done:  E(RB2PLYPD3) =  -76.3341794276     A.U. after   10 cycles
 E2(B2PLYPD3) =    -0.9033862551D-01 E(B2PLYPD3) =    -0.76424518053075D+02

 The electronic state is 1-A'.
 Alpha  occ. eigenvalues --  -19.73254  -1.15050  -0.60993  -0.47046  -0.39834
 Alpha virt. eigenvalues --    0.04421   0.10074   0.27561   0.30445   0.30847
 Alpha virt. eigenvalues --    0.35191   0.43659   0.50418   0.55903   0.62499
 Alpha virt. eigenvalues --    0.65886   0.80749   0.93299   0.96205   1.03200

 Mulliken charges:
               1
     1  O   -0.454742
     2  H    0.222114
     3  H    0.232628
 Sum of Mulliken charges =   0.00000

 Dipole moment (field-independent basis, Debye):
    X=              0.0124    Y=             -1.9476    Z=              0.0000  Tot=              1.9476
 Quadrupole moment (field-independent basis, Debye-Ang):
   XX=             -4.2530   YY=             -6.3716   ZZ=             -7.6226
   XY=              0.0703   XZ=              0.0000   YZ=              0.0000

 1\1\GINC-NODE20\SP\RB2PLYPD3-FC\def2QZVP\H2O1\BOITTIER\26-Aug-2020\0\\
 #p B2PLYPD3/Def2QZVP\\h2o\\0,1\O,0,-5.326605,-0.764406,0.918991\H,0,-4
 .368927,-0.750629,0.93199\H,0,-5.609308,0.165164,0.770181\\Version=ES6
 4L-G09RevD.01\State=1-A'\HF=-76.3341794\MP2=-76.4245181\RMSD=4.214e-09
 \PG=CS [SG(H2O1)]\\@

 KNIGHT- SIRE, I'VE JUST RETURNED FROM THE FRONT

 Normal termination of Gaussian 09 at Wed Aug 26 10:29:59 2020.
