 Gaussian 09, Revision D.01,
 Gaussian 09:  ES64L-G09RevD.01 24-Apr-2013

 --------------------
 #p B2PLYPD3/Def2QZVP
 --------------------

 ---
 h2o
 ---
 Symbolic Z-matrix:
 Charge =  0 Multiplicity = 1

                         Standard orientation:
 ---------------------------------------------------------------------
 Center     Atomic      Atomic             Coordinates (Angstroms)
 Number     Number       Type             X           Y           Z
 ---------------------------------------------------------------------
      1          8           0        0.000000    0.124684    0.000000
      2          1           0        0.753444   -0.476413    0.000000
      3          1           0       -0.753444   -0.521056    0.000000
 ---------------------------------------------------------------------

 SCF Done:  E(RB2PLYPD3) =  -76.3330786637     A.U. after   10 cycles
 E2(B2PLYPD3) =    -0.9076972820D-01 E(B2PLYPD3) =    -0.76423848391904D+02

 The electronic state is 1-A'.
 Alpha  occ. eigenvalues --  -19.73591  -1.15069  -0.59702  -0.47932  -0.39903
 Alpha virt. eigenvalues --    0.04232   0.10083   0.27709   0.30173   0.30442
 Alpha virt. eigenvalues --    0.35651   0.43487   0.49433   0.56590   0.60923
 Alpha virt. eigenvalues --    0.66178   0.80872   0.93627   0.96285   1.01747

 Mulliken charges:
               1
     1  O   -0.448456
     2  H    0.218679
     3  H    0.229777
 Sum of Mulliken charges =   0.00000

 Dipole moment (field-independent basis, Debye):
    X=              0.0157    Y=             -2.0331    Z=              0.0000  Tot=              2.0332
 Quadrupole moment (field-independent basis, Debye-Ang):
   XX=             -4.4681   YY=             -6.2180   ZZ=             -7.6300
   XY=              0.0698   XZ=              0.0000   YZ=              0.0000

 1\1\GINC-NODE40\SP\RB2PLYPD3-FC\def2QZVP\H2O1\BOITTIER\26-Aug-2020\0\\
 #p B2PLYPD3/Def2QZVP\\h2o\\0,1\O,0,-5.326605,-0.766966,0.930731\H,0,-4
 .368927,-0.689625,0.854136\H,0,-5.609308,0.145126,0.660871\\Version=ES
 64L-G09RevD.01\State=1-A'\HF=-76.3330787\MP2=-76.4238484\RMSD=4.553e-0
 9\PG=CS [SG(H2O1)]\\@

 IT IS A CAPITAL MISTAKE TO THEORIZE BEFORE ONE HAS

 Normal termination of Gaussian 09 at Wed Aug 26 09:01:13 2020.
