 Gaussian 09, Revision D.01,
 Gaussian 09:  ES64L-G09RevD.01 24-Apr-2013

 --------------------
 #p B2PLYPD3/Def2QZVP
 --------------------

 ---
 h2o
 ---
 Symbolic Z-matrix:
 Charge =  0 Multiplicity = 1

                         Standard orientation:
 ---------------------------------------------------------------------
 Center     Atomic      Atomic             Coordinates (Angstroms)
 Number     Number       Type             X           Y           Z
 ---------------------------------------------------------------------
      1          8           0        0.000000    0.118558    0.000000
      2          1           0        0.770119   -0.451633    0.000000
      3          1           0       -0.770119   -0.496830    0.000000
 ---------------------------------------------------------------------

 SCF Done:  E(RB2PLYPD3) =  -76.3340238015     A.U. after   10 cycles
 E2(B2PLYPD3) =    -0.9042649723D-01 E(B2PLYPD3) =    -0.76424450298712D+02

 The electronic state is 1-A'.
 Alpha  occ. eigenvalues --  -19.73328  -1.15060  -0.60712  -0.47245  -0.39851
 Alpha virt. eigenvalues --    0.04381   0.10078   0.27592   0.30445   0.30689
 Alpha virt. eigenvalues --    0.35316   0.43626   0.50174   0.56055   0.62138
 Alpha virt. eigenvalues --    0.65949   0.80796   0.93347   0.96211   1.02847

 Mulliken charges:
               1
     1  O   -0.453161
     2  H    0.220890
     3  H    0.232270
 Sum of Mulliken charges =   0.00000

 Dipole moment (field-independent basis, Debye):
    X=              0.0140    Y=             -1.9671    Z=              0.0000  Tot=              1.9671
 Quadrupole moment (field-independent basis, Debye-Ang):
   XX=             -4.3009   YY=             -6.3373   ZZ=             -7.6239
   XY=              0.0750   XZ=              0.0000   YZ=              0.0000

 1\1\GINC-NODE25\SP\RB2PLYPD3-FC\def2QZVP\H2O1\BOITTIER\26-Aug-2020\0\\
 #p B2PLYPD3/Def2QZVP\\h2o\\0,1\O,0,-5.326605,-0.765399,0.920413\H,0,-4
 .368927,-0.733548,0.926715\H,0,-5.609308,0.163976,0.752702\\Version=ES
 64L-G09RevD.01\State=1-A'\HF=-76.3340238\MP2=-76.4244503\RMSD=4.320e-0
 9\PG=CS [SG(H2O1)]\\@

 ACCORDING TO HEN3RY, LIFE IS MUCH LIKE A SEWER........

 Normal termination of Gaussian 09 at Wed Aug 26 09:43:17 2020.
