 Gaussian 09, Revision D.01,
 Gaussian 09:  ES64L-G09RevD.01 24-Apr-2013

 --------------------
 #p B2PLYPD3/Def2QZVP
 --------------------

 ---
 h2o
 ---
 Symbolic Z-matrix:
 Charge =  0 Multiplicity = 1

                         Standard orientation:
 ---------------------------------------------------------------------
 Center     Atomic      Atomic             Coordinates (Angstroms)
 Number     Number       Type             X           Y           Z
 ---------------------------------------------------------------------
      1          8           0        0.000000    0.115101    0.000000
      2          1           0        0.765852   -0.460200    0.000000
      3          1           0       -0.765852   -0.460607    0.000000
 ---------------------------------------------------------------------

 SCF Done:  E(RB2PLYPD3) =  -76.3351586367     A.U. after   10 cycles
 E2(B2PLYPD3) =    -0.8992740733D-01 E(B2PLYPD3) =    -0.76425086044000D+02

 The electronic state is 1-A'.
 Alpha  occ. eigenvalues --  -19.73057  -1.15605  -0.61586  -0.47188  -0.39935
 Alpha virt. eigenvalues --    0.04573   0.10189   0.27485   0.30415   0.31151
 Alpha virt. eigenvalues --    0.35685   0.43986   0.50554   0.56044   0.62638
 Alpha virt. eigenvalues --    0.65582   0.81077   0.93717   0.95954   1.04242

 Mulliken charges:
               1
     1  O   -0.445859
     2  H    0.222874
     3  H    0.222985
 Sum of Mulliken charges =   0.00000

 Dipole moment (field-independent basis, Debye):
    X=              0.0001    Y=             -1.9371    Z=              0.0000  Tot=              1.9371
 Quadrupole moment (field-independent basis, Debye-Ang):
   XX=             -4.2744   YY=             -6.3698   ZZ=             -7.5947
   XY=              0.0007   XZ=              0.0000   YZ=              0.0000

 1\1\GINC-NODE29\SP\RB2PLYPD3-FC\def2QZVP\H2O1\BOITTIER\26-Aug-2020\0\\
 #p B2PLYPD3/Def2QZVP\\h2o\\0,1\O,0,-5.326605,-0.762962,0.920682\H,0,-4
 .368927,-0.747793,0.909548\H,0,-5.609308,0.139234,0.765471\\Version=ES
 64L-G09RevD.01\State=1-A'\HF=-76.3351586\MP2=-76.425086\RMSD=3.933e-09
 \PG=CS [SG(H2O1)]\\@

 SOME PEOPLE TRY TO PULL THE WOOL OVER YOUR EYES

 Normal termination of Gaussian 09 at Wed Aug 26 10:21:24 2020.
