 Gaussian 09, Revision D.01,
 Gaussian 09:  ES64L-G09RevD.01 24-Apr-2013

 --------------------
 #p B2PLYPD3/Def2QZVP
 --------------------

 ---
 h2o
 ---
 Symbolic Z-matrix:
 Charge =  0 Multiplicity = 1

                         Standard orientation:
 ---------------------------------------------------------------------
 Center     Atomic      Atomic             Coordinates (Angstroms)
 Number     Number       Type             X           Y           Z
 ---------------------------------------------------------------------
      1          8           0        0.000000    0.121784    0.000000
      2          1           0        0.781675   -0.445974    0.000000
      3          1           0       -0.781675   -0.528297    0.000000
 ---------------------------------------------------------------------

 SCF Done:  E(RB2PLYPD3) =  -76.3311406832     A.U. after   10 cycles
 E2(B2PLYPD3) =    -0.9109675974D-01 E(B2PLYPD3) =    -0.76422237442982D+02

 The electronic state is 1-A'.
 Alpha  occ. eigenvalues --  -19.73643  -1.14270  -0.59756  -0.47093  -0.39713
 Alpha virt. eigenvalues --    0.04116   0.09893   0.27712   0.30075   0.30486
 Alpha virt. eigenvalues --    0.34664   0.43170   0.49873   0.55877   0.61809
 Alpha virt. eigenvalues --    0.66412   0.80309   0.92593   0.96542   1.01407

 Mulliken charges:
               1
     1  O   -0.463983
     2  H    0.222705
     3  H    0.241278
 Sum of Mulliken charges =   0.00000

 Dipole moment (field-independent basis, Debye):
    X=              0.0260    Y=             -1.9894    Z=              0.0000  Tot=              1.9895
 Quadrupole moment (field-independent basis, Debye-Ang):
   XX=             -4.2885   YY=             -6.3233   ZZ=             -7.6657
   XY=              0.1367   XZ=              0.0000   YZ=              0.0000

 1\1\GINC-NODE31\SP\RB2PLYPD3-FC\def2QZVP\H2O1\BOITTIER\26-Aug-2020\0\\
 #p B2PLYPD3/Def2QZVP\\h2o\\0,1\O,0,-5.326605,-0.768285,0.909613\H,0,-4
 .368927,-0.727644,1.030303\H,0,-5.609308,0.204247,0.820834\\Version=ES
 64L-G09RevD.01\State=1-A'\HF=-76.3311407\MP2=-76.4222374\RMSD=4.870e-0
 9\PG=CS [SG(H2O1)]\\@

 TOM, TOM, THE BURGLAR'S SON

 Normal termination of Gaussian 09 at Wed Aug 26 08:43:28 2020.
