 Gaussian 09, Revision D.01,
 Gaussian 09:  ES64L-G09RevD.01 24-Apr-2013

 --------------------
 #p B2PLYPD3/Def2QZVP
 --------------------

 ---
 h2o
 ---
 Symbolic Z-matrix:
 Charge =  0 Multiplicity = 1

                         Standard orientation:
 ---------------------------------------------------------------------
 Center     Atomic      Atomic             Coordinates (Angstroms)
 Number     Number       Type             X           Y           Z
 ---------------------------------------------------------------------
      1          8           0        0.000000    0.114609    0.000000
      2          1           0        0.775152   -0.447788    0.000000
      3          1           0       -0.775152   -0.469081    0.000000
 ---------------------------------------------------------------------

 SCF Done:  E(RB2PLYPD3) =  -76.3347512977     A.U. after   10 cycles
 E2(B2PLYPD3) =    -0.9010007220D-01 E(B2PLYPD3) =    -0.76424851369924D+02

 The electronic state is 1-A'.
 Alpha  occ. eigenvalues --  -19.73113  -1.15263  -0.61469  -0.46937  -0.39861
 Alpha virt. eigenvalues --    0.04518   0.10117   0.27506   0.30433   0.31114
 Alpha virt. eigenvalues --    0.35273   0.43817   0.50688   0.55833   0.62863
 Alpha virt. eigenvalues --    0.65711   0.80839   0.93447   0.96107   1.03962

 Mulliken charges:
               1
     1  O   -0.452583
     2  H    0.223522
     3  H    0.229060
 Sum of Mulliken charges =   0.00000

 Dipole moment (field-independent basis, Debye):
    X=              0.0061    Y=             -1.9268    Z=              0.0000  Tot=              1.9268
 Quadrupole moment (field-independent basis, Debye-Ang):
   XX=             -4.2218   YY=             -6.3998   ZZ=             -7.6102
   XY=              0.0363   XZ=              0.0000   YZ=              0.0000

 1\1\GINC-NODE33\SP\RB2PLYPD3-FC\def2QZVP\H2O1\BOITTIER\26-Aug-2020\0\\
 #p B2PLYPD3/Def2QZVP\\h2o\\0,1\O,0,-5.326605,-0.762847,0.919341\H,0,-4
 .368927,-0.764822,0.919661\H,0,-5.609308,0.154417,0.777002\\Version=ES
 64L-G09RevD.01\State=1-A'\HF=-76.3347513\MP2=-76.4248514\RMSD=3.926e-0
 9\PG=CS [SG(H2O1)]\\@

 I KNOW YOU BELIEVE YOU UNDERSTAND WHAT YOU THINK I SAID,

 Normal termination of Gaussian 09 at Wed Aug 26 10:12:23 2020.
