 Gaussian 09, Revision D.01,
 Gaussian 09:  ES64L-G09RevD.01 24-Apr-2013

 --------------------
 #p B2PLYPD3/Def2QZVP
 --------------------

 ---
 h2o
 ---
 Symbolic Z-matrix:
 Charge =  0 Multiplicity = 1

                         Standard orientation:
 ---------------------------------------------------------------------
 Center     Atomic      Atomic             Coordinates (Angstroms)
 Number     Number       Type             X           Y           Z
 ---------------------------------------------------------------------
      1          8           0        0.000000    0.118891    0.000000
      2          1           0        0.763173   -0.462726    0.000000
      3          1           0       -0.763173   -0.488402    0.000000
 ---------------------------------------------------------------------

 SCF Done:  E(RB2PLYPD3) =  -76.3345714040     A.U. after   10 cycles
 E2(B2PLYPD3) =    -0.9029556829D-01 E(B2PLYPD3) =    -0.76424866972292D+02

 The electronic state is 1-A'.
 Alpha  occ. eigenvalues --  -19.73288  -1.15308  -0.60794  -0.47436  -0.39905
 Alpha virt. eigenvalues --    0.04427   0.10133   0.27578   0.30431   0.30752
 Alpha virt. eigenvalues --    0.35607   0.43740   0.50091   0.56221   0.61973
 Alpha virt. eigenvalues --    0.65857   0.80964   0.93605   0.96102   1.03101

 Mulliken charges:
               1
     1  O   -0.448592
     2  H    0.220963
     3  H    0.227629
 Sum of Mulliken charges =   0.00000

 Dipole moment (field-independent basis, Debye):
    X=              0.0081    Y=             -1.9744    Z=              0.0000  Tot=              1.9745
 Quadrupole moment (field-independent basis, Debye-Ang):
   XX=             -4.3396   YY=             -6.3162   ZZ=             -7.6123
   XY=              0.0421   XZ=              0.0000   YZ=              0.0000

 1\1\GINC-NODE04\SP\RB2PLYPD3-FC\def2QZVP\H2O1\BOITTIER\26-Aug-2020\0\\
 #p B2PLYPD3/Def2QZVP\\h2o\\0,1\O,0,-5.326605,-0.765983,0.917897\H,0,-4
 .368927,-0.715719,0.950115\H,0,-5.609308,0.155496,0.768923\\Version=ES
 64L-G09RevD.01\State=1-A'\HF=-76.3345714\MP2=-76.424867\RMSD=4.153e-09
 \PG=CS [SG(H2O1)]\\@

 I LOVE MANKIND - IT'S PEOPLE I CAN'T STAND.

 Normal termination of Gaussian 09 at Wed Aug 26 11:44:52 2020.
