 Gaussian 09, Revision D.01,
 Gaussian 09:  ES64L-G09RevD.01 24-Apr-2013

 --------------------
 #p B2PLYPD3/Def2QZVP
 --------------------

 ---
 h2o
 ---
 Symbolic Z-matrix:
 Charge =  0 Multiplicity = 1

                         Standard orientation:
 ---------------------------------------------------------------------
 Center     Atomic      Atomic             Coordinates (Angstroms)
 Number     Number       Type             X           Y           Z
 ---------------------------------------------------------------------
      1          8           0        0.000000    0.113881    0.000000
      2          1           0        0.790610   -0.427646    0.000000
      3          1           0       -0.790610   -0.483402    0.000000
 ---------------------------------------------------------------------

 SCF Done:  E(RB2PLYPD3) =  -76.3333349040     A.U. after   10 cycles
 E2(B2PLYPD3) =    -0.9041030443D-01 E(B2PLYPD3) =    -0.76423745208418D+02

 The electronic state is 1-A'.
 Alpha  occ. eigenvalues --  -19.73207  -1.14700  -0.61237  -0.46521  -0.39736
 Alpha virt. eigenvalues --    0.04403   0.09993   0.27535   0.30465   0.30982
 Alpha virt. eigenvalues --    0.34619   0.43541   0.50920   0.55478   0.63226
 Alpha virt. eigenvalues --    0.65938   0.80379   0.92940   0.96376   1.03312

 Mulliken charges:
               1
     1  O   -0.463567
     2  H    0.225018
     3  H    0.238549
 Sum of Mulliken charges =   0.00000

 Dipole moment (field-independent basis, Debye):
    X=              0.0150    Y=             -1.9102    Z=              0.0000  Tot=              1.9103
 Quadrupole moment (field-independent basis, Debye-Ang):
   XX=             -4.1344   YY=             -6.4471   ZZ=             -7.6371
   XY=              0.0977   XZ=              0.0000   YZ=              0.0000

 1\1\GINC-NODE07\SP\RB2PLYPD3-FC\def2QZVP\H2O1\BOITTIER\26-Aug-2020\0\\
 #p B2PLYPD3/Def2QZVP\\h2o\\0,1\O,0,-5.326605,-0.762295,0.919657\H,0,-4
 .368927,-0.796022,0.914068\H,0,-5.609308,0.176788,0.778188\\Version=ES
 64L-G09RevD.01\State=1-A'\HF=-76.3333349\MP2=-76.4237452\RMSD=4.379e-0
 9\PG=CS [SG(H2O1)]\\@

 The earth never tires,

 Normal termination of Gaussian 09 at Wed Aug 26 09:15:21 2020.
