 Gaussian 09, Revision D.01,
 Gaussian 09:  ES64L-G09RevD.01 24-Apr-2013

 --------------------
 #p B2PLYPD3/Def2QZVP
 --------------------

 ---
 h2o
 ---
 Symbolic Z-matrix:
 Charge =  0 Multiplicity = 1

                         Standard orientation:
 ---------------------------------------------------------------------
 Center     Atomic      Atomic             Coordinates (Angstroms)
 Number     Number       Type             X           Y           Z
 ---------------------------------------------------------------------
      1          8           0        0.000000    0.115952    0.000000
      2          1           0        0.752428   -0.478882    0.000000
      3          1           0       -0.752428   -0.448737    0.000000
 ---------------------------------------------------------------------

 SCF Done:  E(RB2PLYPD3) =  -76.3351022114     A.U. after   10 cycles
 E2(B2PLYPD3) =    -0.8970465372D-01 E(B2PLYPD3) =    -0.76424806865124D+02

 The electronic state is 1-A'.
 Alpha  occ. eigenvalues --  -19.72983  -1.16096  -0.61706  -0.47555  -0.40039
 Alpha virt. eigenvalues --    0.04632   0.10289   0.27453   0.30390   0.31155
 Alpha virt. eigenvalues --    0.36279   0.44234   0.50361   0.56345   0.62296
 Alpha virt. eigenvalues --    0.65406   0.81366   0.94050   0.95759   1.04478

 Mulliken charges:
               1
     1  O   -0.436069
     2  H    0.222362
     3  H    0.213707
 Sum of Mulliken charges =   0.00000

 Dipole moment (field-independent basis, Debye):
    X=             -0.0093    Y=             -1.9530    Z=              0.0000  Tot=              1.9530
 Quadrupole moment (field-independent basis, Debye-Ang):
   XX=             -4.3511   YY=             -6.3237   ZZ=             -7.5736
   XY=             -0.0493   XZ=              0.0000   YZ=              0.0000

 1\1\GINC-NODE26\SP\RB2PLYPD3-FC\def2QZVP\H2O1\BOITTIER\26-Aug-2020\0\\
 #p B2PLYPD3/Def2QZVP\\h2o\\0,1\O,0,-5.326605,-0.762964,0.923513\H,0,-4
 .368927,-0.724438,0.886845\H,0,-5.609308,0.115912,0.742743\\Version=ES
 64L-G09RevD.01\State=1-A'\HF=-76.3351022\MP2=-76.4248069\RMSD=4.347e-0
 9\PG=CS [SG(H2O1)]\\@

 ONLY THE DAY DAWNS TO WHICH YOU ARE AWAKE.

 Normal termination of Gaussian 09 at Wed Aug 26 10:15:22 2020.
