 Gaussian 09, Revision D.01,
 Gaussian 09:  ES64L-G09RevD.01 24-Apr-2013

 --------------------
 #p B2PLYPD3/Def2QZVP
 --------------------

 ---
 h2o
 ---
 Symbolic Z-matrix:
 Charge =  0 Multiplicity = 1

                         Standard orientation:
 ---------------------------------------------------------------------
 Center     Atomic      Atomic             Coordinates (Angstroms)
 Number     Number       Type             X           Y           Z
 ---------------------------------------------------------------------
      1          8           0        0.000000    0.115831    0.000000
      2          1           0        0.742807   -0.491953    0.000000
      3          1           0       -0.742807   -0.434694    0.000000
 ---------------------------------------------------------------------

 SCF Done:  E(RB2PLYPD3) =  -76.3344103831     A.U. after   10 cycles
 E2(B2PLYPD3) =    -0.8947117829D-01 E(B2PLYPD3) =    -0.76423881561365D+02

 The electronic state is 1-A'.
 Alpha  occ. eigenvalues --  -19.72876  -1.16544  -0.61952  -0.47774  -0.40124
 Alpha virt. eigenvalues --    0.04692   0.10372   0.27404   0.30368   0.31200
 Alpha virt. eigenvalues --    0.36735   0.44496   0.50319   0.56523   0.62180
 Alpha virt. eigenvalues --    0.65213   0.81573   0.94247   0.95605   1.04766

 Mulliken charges:
               1
     1  O   -0.427450
     2  H    0.222391
     3  H    0.205060
 Sum of Mulliken charges =   0.00000

 Dipole moment (field-independent basis, Debye):
    X=             -0.0181    Y=             -1.9572    Z=              0.0000  Tot=              1.9573
 Quadrupole moment (field-independent basis, Debye-Ang):
   XX=             -4.3952   YY=             -6.2981   ZZ=             -7.5543
   XY=             -0.0924   XZ=              0.0000   YZ=              0.0000

 1\1\GINC-NODE39\SP\RB2PLYPD3-FC\def2QZVP\H2O1\BOITTIER\26-Aug-2020\0\\
 #p B2PLYPD3/Def2QZVP\\h2o\\0,1\O,0,-5.326605,-0.763051,0.922738\H,0,-4
 .368927,-0.706905,0.893337\H,0,-5.609308,0.099762,0.748173\\Version=ES
 64L-G09RevD.01\State=1-A'\HF=-76.3344104\MP2=-76.4238816\RMSD=4.993e-0
 9\PG=CS [SG(H2O1)]\\@

    THE DOUGHNUT CREED

 Normal termination of Gaussian 09 at Wed Aug 26 09:51:27 2020.
