 Gaussian 09, Revision D.01,
 Gaussian 09:  ES64L-G09RevD.01 24-Apr-2013

 --------------------
 #p B2PLYPD3/Def2QZVP
 --------------------

 ---
 h2o
 ---
 Symbolic Z-matrix:
 Charge =  0 Multiplicity = 1

                         Standard orientation:
 ---------------------------------------------------------------------
 Center     Atomic      Atomic             Coordinates (Angstroms)
 Number     Number       Type             X           Y           Z
 ---------------------------------------------------------------------
      1          8           0        0.000000    0.112729    0.000000
      2          1           0        0.809297   -0.406333    0.000000
      3          1           0       -0.809297   -0.495501    0.000000
 ---------------------------------------------------------------------

 SCF Done:  E(RB2PLYPD3) =  -76.3308282931     A.U. after   10 cycles
 E2(B2PLYPD3) =    -0.9077521315D-01 E(B2PLYPD3) =    -0.76421603506284D+02

 The electronic state is 1-A'.
 Alpha  occ. eigenvalues --  -19.73298  -1.14064  -0.60984  -0.46008  -0.39585
 Alpha virt. eigenvalues --    0.04249   0.09846   0.27544   0.30502   0.30770
 Alpha virt. eigenvalues --    0.33927   0.43235   0.51270   0.55038   0.63704
 Alpha virt. eigenvalues --    0.66209   0.79745   0.92312   0.96690   1.02524

 Mulliken charges:
               1
     1  O   -0.476387
     2  H    0.228205
     3  H    0.248182
 Sum of Mulliken charges =   0.00000

 Dipole moment (field-independent basis, Debye):
    X=              0.0223    Y=             -1.8871    Z=              0.0000  Tot=              1.8872
 Quadrupole moment (field-independent basis, Debye-Ang):
   XX=             -4.0229   YY=             -6.5059   ZZ=             -7.6688
   XY=              0.1614   XZ=              0.0000   YZ=              0.0000

 1\1\GINC-NODE06\SP\RB2PLYPD3-FC\def2QZVP\H2O1\BOITTIER\26-Aug-2020\0\\
 #p B2PLYPD3/Def2QZVP\\h2o\\0,1\O,0,-5.326605,-0.762135,0.912988\H,0,-4
 .368927,-0.828422,0.966335\H,0,-5.609308,0.206624,0.832424\\Version=ES
 64L-G09RevD.01\State=1-A'\HF=-76.3308283\MP2=-76.4216035\RMSD=5.230e-0
 9\PG=CS [SG(H2O1)]\\@

 OF ALL THE WONDERS OF THE UNIVERSE, THE GREATEST IS MAN.

 Normal termination of Gaussian 09 at Wed Aug 26 08:42:29 2020.
