 Gaussian 09, Revision D.01,
 Gaussian 09:  ES64L-G09RevD.01 24-Apr-2013

 --------------------
 #p B2PLYPD3/Def2QZVP
 --------------------

 ---
 h2o
 ---
 Symbolic Z-matrix:
 Charge =  0 Multiplicity = 1

                         Standard orientation:
 ---------------------------------------------------------------------
 Center     Atomic      Atomic             Coordinates (Angstroms)
 Number     Number       Type             X           Y           Z
 ---------------------------------------------------------------------
      1          8           0        0.000000    0.116712    0.000000
      2          1           0        0.751957   -0.479747    0.000000
      3          1           0       -0.751957   -0.453951    0.000000
 ---------------------------------------------------------------------

 SCF Done:  E(RB2PLYPD3) =  -76.3351235691     A.U. after   10 cycles
 E2(B2PLYPD3) =    -0.8977907228D-01 E(B2PLYPD3) =    -0.76424902641377D+02

 The electronic state is 1-A'.
 Alpha  occ. eigenvalues --  -19.73031  -1.16030  -0.61541  -0.47605  -0.40032
 Alpha virt. eigenvalues --    0.04604   0.10278   0.27472   0.30394   0.31085
 Alpha virt. eigenvalues --    0.36258   0.44178   0.50271   0.56383   0.62161
 Alpha virt. eigenvalues --    0.65464   0.81340   0.94043   0.95789   1.04271

 Mulliken charges:
               1
     1  O   -0.436893
     2  H    0.222116
     3  H    0.214776
 Sum of Mulliken charges =   0.00000

 Dipole moment (field-independent basis, Debye):
    X=             -0.0081    Y=             -1.9605    Z=              0.0000  Tot=              1.9605
 Quadrupole moment (field-independent basis, Debye-Ang):
   XX=             -4.3638   YY=             -6.3134   ZZ=             -7.5773
   XY=             -0.0420   XZ=              0.0000   YZ=              0.0000

 1\1\GINC-NODE26\SP\RB2PLYPD3-FC\def2QZVP\H2O1\BOITTIER\26-Aug-2020\0\\
 #p B2PLYPD3/Def2QZVP\\h2o\\0,1\O,0,-5.326605,-0.763138,0.924962\H,0,-4
 .368927,-0.721951,0.876398\H,0,-5.609308,0.116197,0.730168\\Version=ES
 64L-G09RevD.01\State=1-A'\HF=-76.3351236\MP2=-76.4249026\RMSD=4.306e-0
 9\PG=CS [SG(H2O1)]\\@

 UNDER MOST GREENE GRASSE LY MOST GREATE SNAKES.

 Normal termination of Gaussian 09 at Wed Aug 26 12:01:50 2020.
