 Gaussian 09, Revision D.01,
 Gaussian 09:  ES64L-G09RevD.01 24-Apr-2013

 --------------------
 #p B2PLYPD3/Def2QZVP
 --------------------

 ---
 h2o
 ---
 Symbolic Z-matrix:
 Charge =  0 Multiplicity = 1

                         Standard orientation:
 ---------------------------------------------------------------------
 Center     Atomic      Atomic             Coordinates (Angstroms)
 Number     Number       Type             X           Y           Z
 ---------------------------------------------------------------------
      1          8           0        0.000000    0.113938    0.000000
      2          1           0        0.716463   -0.530237    0.000000
      3          1           0       -0.716463   -0.381265    0.000000
 ---------------------------------------------------------------------

 SCF Done:  E(RB2PLYPD3) =  -76.3270475703     A.U. after   10 cycles
 E2(B2PLYPD3) =    -0.8870219189D-01 E(B2PLYPD3) =    -0.76415749762160D+02

 The electronic state is 1-A'.
 Alpha  occ. eigenvalues --  -19.72444  -1.18060  -0.62989  -0.48238  -0.40380
 Alpha virt. eigenvalues --    0.04851   0.10611   0.27188   0.30297   0.31292
 Alpha virt. eigenvalues --    0.37904   0.45508   0.50410   0.56852   0.62175
 Alpha virt. eigenvalues --    0.64551   0.82078   0.94250   0.95380   1.05308

 Mulliken charges:
               1
     1  O   -0.395468
     2  H    0.224497
     3  H    0.170971
 Sum of Mulliken charges =   0.00000

 Dipole moment (field-independent basis, Debye):
    X=             -0.0486    Y=             -1.9520    Z=              0.0000  Tot=              1.9526
 Quadrupole moment (field-independent basis, Debye-Ang):
   XX=             -4.4902   YY=             -6.2368   ZZ=             -7.4928
   XY=             -0.2329   XZ=              0.0000   YZ=              0.0000

 1\1\GINC-NODE26\SP\RB2PLYPD3-FC\def2QZVP\H2O1\BOITTIER\26-Aug-2020\0\\
 #p B2PLYPD3/Def2QZVP\\h2o\\0,1\O,0,-5.326605,-0.760915,0.925788\H,0,-4
 .368927,-0.68218,0.855545\H,0,-5.609308,0.040859,0.736625\\Version=ES6
 4L-G09RevD.01\State=1-A'\HF=-76.3270476\MP2=-76.4157498\RMSD=6.761e-09
 \PG=CS [SG(H2O1)]\\@

 ART, GLORY, FREEDOM FAIL, BUT NATURE STILL IS FAIR.

 Normal termination of Gaussian 09 at Wed Aug 26 09:22:59 2020.
