 Gaussian 09, Revision D.01,
 Gaussian 09:  ES64L-G09RevD.01 24-Apr-2013

 --------------------
 #p B2PLYPD3/Def2QZVP
 --------------------

 ---
 h2o
 ---
 Symbolic Z-matrix:
 Charge =  0 Multiplicity = 1

                         Standard orientation:
 ---------------------------------------------------------------------
 Center     Atomic      Atomic             Coordinates (Angstroms)
 Number     Number       Type             X           Y           Z
 ---------------------------------------------------------------------
      1          8           0        0.000000    0.117510    0.000000
      2          1           0        0.751291   -0.481317    0.000000
      3          1           0       -0.751291   -0.458759    0.000000
 ---------------------------------------------------------------------

 SCF Done:  E(RB2PLYPD3) =  -76.3351053856     A.U. after   10 cycles
 E2(B2PLYPD3) =    -0.8985434313D-01 E(B2PLYPD3) =    -0.76424959728776D+02

 The electronic state is 1-A'.
 Alpha  occ. eigenvalues --  -19.73080  -1.15968  -0.61372  -0.47662  -0.40026
 Alpha virt. eigenvalues --    0.04575   0.10268   0.27492   0.30397   0.31011
 Alpha virt. eigenvalues --    0.36243   0.44123   0.50177   0.56425   0.62019
 Alpha virt. eigenvalues --    0.65522   0.81315   0.94040   0.95820   1.04054

 Mulliken charges:
               1
     1  O   -0.437590
     2  H    0.221977
     3  H    0.215613
 Sum of Mulliken charges =   0.00000

 Dipole moment (field-independent basis, Debye):
    X=             -0.0072    Y=             -1.9685    Z=              0.0000  Tot=              1.9685
 Quadrupole moment (field-independent basis, Debye-Ang):
   XX=             -4.3780   YY=             -6.3022   ZZ=             -7.5809
   XY=             -0.0366   XZ=              0.0000   YZ=              0.0000

 1\1\GINC-NODE19\SP\RB2PLYPD3-FC\def2QZVP\H2O1\BOITTIER\26-Aug-2020\0\\
 #p B2PLYPD3/Def2QZVP\\h2o\\0,1\O,0,-5.326605,-0.763224,0.926673\H,0,-4
 .368927,-0.719929,0.863342\H,0,-5.609308,0.11555,0.716056\\Version=ES6
 4L-G09RevD.01\State=1-A'\HF=-76.3351054\MP2=-76.4249597\RMSD=4.291e-09
 \PG=CS [SG(H2O1)]\\@

 ... UNTIL SCIENCE IS MIXED WITH EMOTION AND APPEALS TO THE HEART AND

 Normal termination of Gaussian 09 at Wed Aug 26 11:15:44 2020.
