 Gaussian 09, Revision D.01,
 Gaussian 09:  ES64L-G09RevD.01 24-Apr-2013

 --------------------
 #p B2PLYPD3/Def2QZVP
 --------------------

 ---
 h2o
 ---
 Symbolic Z-matrix:
 Charge =  0 Multiplicity = 1

                         Standard orientation:
 ---------------------------------------------------------------------
 Center     Atomic      Atomic             Coordinates (Angstroms)
 Number     Number       Type             X           Y           Z
 ---------------------------------------------------------------------
      1          8           0        0.000000    0.115286    0.000000
      2          1           0        0.760873   -0.467980    0.000000
      3          1           0       -0.760873   -0.454309    0.000000
 ---------------------------------------------------------------------

 SCF Done:  E(RB2PLYPD3) =  -76.3352224681     A.U. after   10 cycles
 E2(B2PLYPD3) =    -0.8982887041D-01 E(B2PLYPD3) =    -0.76425051338520D+02

 The electronic state is 1-A'.
 Alpha  occ. eigenvalues --  -19.73021  -1.15800  -0.61662  -0.47318  -0.39976
 Alpha virt. eigenvalues --    0.04602   0.10229   0.27470   0.30405   0.31169
 Alpha virt. eigenvalues --    0.35913   0.44088   0.50496   0.56152   0.62533
 Alpha virt. eigenvalues --    0.65505   0.81197   0.93851   0.95872   1.04382

 Mulliken charges:
               1
     1  O   -0.442071
     2  H    0.222932
     3  H    0.219139
 Sum of Mulliken charges =   0.00000

 Dipole moment (field-independent basis, Debye):
    X=             -0.0041    Y=             -1.9418    Z=              0.0000  Tot=              1.9418
 Quadrupole moment (field-independent basis, Debye-Ang):
   XX=             -4.3012   YY=             -6.3544   ZZ=             -7.5860
   XY=             -0.0228   XZ=              0.0000   YZ=              0.0000

 1\1\GINC-NODE31\SP\RB2PLYPD3-FC\def2QZVP\H2O1\BOITTIER\26-Aug-2020\0\\
 #p B2PLYPD3/Def2QZVP\\h2o\\0,1\O,0,-5.326605,-0.763684,0.916349\H,0,-4
 .368927,-0.732665,0.948246\H,0,-5.609308,0.135646,0.795308\\Version=ES
 64L-G09RevD.01\State=1-A'\HF=-76.3352225\MP2=-76.4250513\RMSD=4.051e-0
 9\PG=CS [SG(H2O1)]\\@

 THE MOST INCOMPREHENSIBLE THING ABOUT THE WORLD

 Normal termination of Gaussian 09 at Wed Aug 26 08:30:06 2020.
