 Gaussian 09, Revision D.01,
 Gaussian 09:  ES64L-G09RevD.01 24-Apr-2013

 --------------------
 #p B2PLYPD3/Def2QZVP
 --------------------

 ---
 h2o
 ---
 Symbolic Z-matrix:
 Charge =  0 Multiplicity = 1

                         Standard orientation:
 ---------------------------------------------------------------------
 Center     Atomic      Atomic             Coordinates (Angstroms)
 Number     Number       Type             X           Y           Z
 ---------------------------------------------------------------------
      1          8           0        0.000000    0.116365    0.000000
      2          1           0        0.747524   -0.484994    0.000000
      3          1           0       -0.747524   -0.445923    0.000000
 ---------------------------------------------------------------------

 SCF Done:  E(RB2PLYPD3) =  -76.3349188270     A.U. after   10 cycles
 E2(B2PLYPD3) =    -0.8963755997D-01 E(B2PLYPD3) =    -0.76424556386923D+02

 The electronic state is 1-A'.
 Alpha  occ. eigenvalues --  -19.72962  -1.16267  -0.61721  -0.47693  -0.40075
 Alpha virt. eigenvalues --    0.04645   0.10322   0.27443   0.30382   0.31141
 Alpha virt. eigenvalues --    0.36487   0.44320   0.50284   0.56457   0.62155
 Alpha virt. eigenvalues --    0.65350   0.81453   0.94157   0.95699   1.04517

 Mulliken charges:
               1
     1  O   -0.432593
     2  H    0.222017
     3  H    0.210576
 Sum of Mulliken charges =   0.00000

 Dipole moment (field-independent basis, Debye):
    X=             -0.0123    Y=             -1.9597    Z=              0.0000  Tot=              1.9598
 Quadrupole moment (field-independent basis, Debye-Ang):
   XX=             -4.3802   YY=             -6.3054   ZZ=             -7.5666
   XY=             -0.0633   XZ=              0.0000   YZ=              0.0000

 1\1\GINC-NODE15\SP\RB2PLYPD3-FC\def2QZVP\H2O1\BOITTIER\26-Aug-2020\0\\
 #p B2PLYPD3/Def2QZVP\\h2o\\0,1\O,0,-5.326605,-0.763536,0.922224\H,0,-4
 .368927,-0.710579,0.900476\H,0,-5.609308,0.111195,0.749353\\Version=ES
 64L-G09RevD.01\State=1-A'\HF=-76.3349188\MP2=-76.4245564\RMSD=4.559e-0
 9\PG=CS [SG(H2O1)]\\@

 MATERIAL COPIED FROM ONE SCHOLARLY BOOK WITHOUT CREDIT COMPRISES PLAGIARISM.

 Normal termination of Gaussian 09 at Wed Aug 26 08:47:08 2020.
