 Gaussian 09, Revision D.01,
 Gaussian 09:  ES64L-G09RevD.01 24-Apr-2013

 --------------------
 #p B2PLYPD3/Def2QZVP
 --------------------

 ---
 h2o
 ---
 Symbolic Z-matrix:
 Charge =  0 Multiplicity = 1

                         Standard orientation:
 ---------------------------------------------------------------------
 Center     Atomic      Atomic             Coordinates (Angstroms)
 Number     Number       Type             X           Y           Z
 ---------------------------------------------------------------------
      1          8           0        0.000000    0.117870    0.000000
      2          1           0        0.770414   -0.451825    0.000000
      3          1           0       -0.770414   -0.491135    0.000000
 ---------------------------------------------------------------------

 SCF Done:  E(RB2PLYPD3) =  -76.3342546579     A.U. after   10 cycles
 E2(B2PLYPD3) =    -0.9035329608D-01 E(B2PLYPD3) =    -0.76424607954029D+02

 The electronic state is 1-A'.
 Alpha  occ. eigenvalues --  -19.73286  -1.15120  -0.60858  -0.47207  -0.39858
 Alpha virt. eigenvalues --    0.04411   0.10091   0.27574   0.30442   0.30774
 Alpha virt. eigenvalues --    0.35337   0.43670   0.50256   0.56031   0.62253
 Alpha virt. eigenvalues --    0.65897   0.80823   0.93390   0.96179   1.03067

 Mulliken charges:
               1
     1  O   -0.452655
     2  H    0.221334
     3  H    0.231321
 Sum of Mulliken charges =   0.00000

 Dipole moment (field-independent basis, Debye):
    X=              0.0120    Y=             -1.9605    Z=              0.0000  Tot=              1.9605
 Quadrupole moment (field-independent basis, Debye-Ang):
   XX=             -4.2899   YY=             -6.3469   ZZ=             -7.6203
   XY=              0.0655   XZ=              0.0000   YZ=              0.0000

 1\1\GINC-NODE23\SP\RB2PLYPD3-FC\def2QZVP\H2O1\BOITTIER\26-Aug-2020\0\\
 #p B2PLYPD3/Def2QZVP\\h2o\\0,1\O,0,-5.326605,-0.765071,0.919513\H,0,-4
 .368927,-0.73693,0.931845\H,0,-5.609308,0.162103,0.761867\\Version=ES6
 4L-G09RevD.01\State=1-A'\HF=-76.3342547\MP2=-76.424608\RMSD=4.225e-09\
 PG=CS [SG(H2O1)]\\@

 UNLESS WE CHANGE DIRECTIONS, WE WILL WIND UP WHERE WE ARE HEADED.

 Normal termination of Gaussian 09 at Wed Aug 26 11:13:39 2020.
