 Gaussian 09, Revision D.01,
 Gaussian 09:  ES64L-G09RevD.01 24-Apr-2013

 --------------------
 #p B2PLYPD3/Def2QZVP
 --------------------

 ---
 h2o
 ---
 Symbolic Z-matrix:
 Charge =  0 Multiplicity = 1

                         Standard orientation:
 ---------------------------------------------------------------------
 Center     Atomic      Atomic             Coordinates (Angstroms)
 Number     Number       Type             X           Y           Z
 ---------------------------------------------------------------------
      1          8           0        0.000000    0.115507    0.000000
      2          1           0        0.762365   -0.465068    0.000000
      3          1           0       -0.762365   -0.458984    0.000000
 ---------------------------------------------------------------------

 SCF Done:  E(RB2PLYPD3) =  -76.3352085809     A.U. after   10 cycles
 E2(B2PLYPD3) =    -0.8988880700D-01 E(B2PLYPD3) =    -0.76425097387894D+02

 The electronic state is 1-A'.
 Alpha  occ. eigenvalues --  -19.73051  -1.15711  -0.61577  -0.47293  -0.39960
 Alpha virt. eigenvalues --    0.04582   0.10212   0.27482   0.30410   0.31137
 Alpha virt. eigenvalues --    0.35830   0.44033   0.50480   0.56130   0.62517
 Alpha virt. eigenvalues --    0.65552   0.81150   0.93802   0.95909   1.04257

 Mulliken charges:
               1
     1  O   -0.443608
     2  H    0.222639
     3  H    0.220970
 Sum of Mulliken charges =   0.00000

 Dipole moment (field-independent basis, Debye):
    X=             -0.0018    Y=             -1.9430    Z=              0.0000  Tot=              1.9430
 Quadrupole moment (field-independent basis, Debye-Ang):
   XX=             -4.2970   YY=             -6.3558   ZZ=             -7.5902
   XY=             -0.0101   XZ=              0.0000   YZ=              0.0000

 1\1\GINC-NODE12\SP\RB2PLYPD3-FC\def2QZVP\H2O1\BOITTIER\26-Aug-2020\0\\
 #p B2PLYPD3/Def2QZVP\\h2o\\0,1\O,0,-5.326605,-0.763665,0.917906\H,0,-4
 .368927,-0.735401,0.935813\H,0,-5.609308,0.138082,0.783105\\Version=ES
 64L-G09RevD.01\State=1-A'\HF=-76.3352086\MP2=-76.4250974\RMSD=3.995e-0
 9\PG=CS [SG(H2O1)]\\@

 We're simply so accustomed to the marvels of everyday thought

 Normal termination of Gaussian 09 at Wed Aug 26 10:46:41 2020.
