 Gaussian 09, Revision D.01,
 Gaussian 09:  ES64L-G09RevD.01 24-Apr-2013

 --------------------
 #p B2PLYPD3/Def2QZVP
 --------------------

 ---
 h2o
 ---
 Symbolic Z-matrix:
 Charge =  0 Multiplicity = 1

                         Standard orientation:
 ---------------------------------------------------------------------
 Center     Atomic      Atomic             Coordinates (Angstroms)
 Number     Number       Type             X           Y           Z
 ---------------------------------------------------------------------
      1          8           0        0.000000    0.113799    0.000000
      2          1           0        0.707696   -0.543044    0.000000
      3          1           0       -0.707696   -0.367347    0.000000
 ---------------------------------------------------------------------

 SCF Done:  E(RB2PLYPD3) =  -76.3231622758     A.U. after   10 cycles
 E2(B2PLYPD3) =    -0.8851232311D-01 E(B2PLYPD3) =    -0.76411674598897D+02

 The electronic state is 1-A'.
 Alpha  occ. eigenvalues --  -19.72328  -1.18537  -0.63210  -0.48406  -0.40457
 Alpha virt. eigenvalues --    0.04870   0.10677   0.27118   0.30277   0.31255
 Alpha virt. eigenvalues --    0.38198   0.45829   0.50394   0.56956   0.62103
 Alpha virt. eigenvalues --    0.64385   0.82183   0.94141   0.95374   1.05306

 Mulliken charges:
               1
     1  O   -0.384150
     2  H    0.225248
     3  H    0.158903
 Sum of Mulliken charges =   0.00000

 Dipole moment (field-independent basis, Debye):
    X=             -0.0583    Y=             -1.9547    Z=              0.0000  Tot=              1.9556
 Quadrupole moment (field-independent basis, Debye-Ang):
   XX=             -4.5271   YY=             -6.2088   ZZ=             -7.4757
   XY=             -0.2710   XZ=              0.0000   YZ=              0.0000

 1\1\GINC-NODE27\SP\RB2PLYPD3-FC\def2QZVP\H2O1\BOITTIER\26-Aug-2020\0\\
 #p B2PLYPD3/Def2QZVP\\h2o\\0,1\O,0,-5.326605,-0.760385,0.927165\H,0,-4
 .368927,-0.672396,0.841217\H,0,-5.609308,0.022601,0.728804\\Version=ES
 64L-G09RevD.01\State=1-A'\HF=-76.3231623\MP2=-76.4116746\RMSD=6.649e-0
 9\PG=CS [SG(H2O1)]\\@

 AND HERE I AM, FOR ALL MY LORE,

 Normal termination of Gaussian 09 at Wed Aug 26 09:11:09 2020.
