 Gaussian 09, Revision D.01,
 Gaussian 09:  ES64L-G09RevD.01 24-Apr-2013

 --------------------
 #p B2PLYPD3/Def2QZVP
 --------------------

 ---
 h2o
 ---
 Symbolic Z-matrix:
 Charge =  0 Multiplicity = 1

                         Standard orientation:
 ---------------------------------------------------------------------
 Center     Atomic      Atomic             Coordinates (Angstroms)
 Number     Number       Type             X           Y           Z
 ---------------------------------------------------------------------
      1          8           0        0.000000    0.115490    0.000000
      2          1           0        0.743023   -0.491798    0.000000
      3          1           0       -0.743023   -0.432125    0.000000
 ---------------------------------------------------------------------

 SCF Done:  E(RB2PLYPD3) =  -76.3343355777     A.U. after   10 cycles
 E2(B2PLYPD3) =    -0.8943850147D-01 E(B2PLYPD3) =    -0.76423774079157D+02

 The electronic state is 1-A'.
 Alpha  occ. eigenvalues --  -19.72854  -1.16574  -0.62028  -0.47750  -0.40127
 Alpha virt. eigenvalues --    0.04703   0.10376   0.27395   0.30366   0.31227
 Alpha virt. eigenvalues --    0.36743   0.44524   0.50359   0.56505   0.62241
 Alpha virt. eigenvalues --    0.65187   0.81585   0.94242   0.95594   1.04840

 Mulliken charges:
               1
     1  O   -0.426989
     2  H    0.222562
     3  H    0.204428
 Sum of Mulliken charges =   0.00000

 Dipole moment (field-independent basis, Debye):
    X=             -0.0188    Y=             -1.9538    Z=              0.0000  Tot=              1.9539
 Quadrupole moment (field-independent basis, Debye-Ang):
   XX=             -4.3895   YY=             -6.3025   ZZ=             -7.5526
   XY=             -0.0965   XZ=              0.0000   YZ=              0.0000

 1\1\GINC-NODE06\SP\RB2PLYPD3-FC\def2QZVP\H2O1\BOITTIER\26-Aug-2020\0\\
 #p B2PLYPD3/Def2QZVP\\h2o\\0,1\O,0,-5.326605,-0.762843,0.922601\H,0,-4
 .368927,-0.709284,0.893151\H,0,-5.609308,0.098808,0.750546\\Version=ES
 64L-G09RevD.01\State=1-A'\HF=-76.3343356\MP2=-76.4237741\RMSD=5.045e-0
 9\PG=CS [SG(H2O1)]\\@

 A true friend is someone who is there for

 Normal termination of Gaussian 09 at Wed Aug 26 11:05:13 2020.
