 Gaussian 09, Revision D.01,
 Gaussian 09:  ES64L-G09RevD.01 24-Apr-2013

 --------------------
 #p B2PLYPD3/Def2QZVP
 --------------------

 ---
 h2o
 ---
 Symbolic Z-matrix:
 Charge =  0 Multiplicity = 1

                         Standard orientation:
 ---------------------------------------------------------------------
 Center     Atomic      Atomic             Coordinates (Angstroms)
 Number     Number       Type             X           Y           Z
 ---------------------------------------------------------------------
      1          8           0        0.000000    0.114184    0.000000
      2          1           0        0.778171   -0.444942    0.000000
      3          1           0       -0.778171   -0.468530    0.000000
 ---------------------------------------------------------------------

 SCF Done:  E(RB2PLYPD3) =  -76.3346219090     A.U. after   10 cycles
 E2(B2PLYPD3) =    -0.9012795224D-01 E(B2PLYPD3) =    -0.76424749861224D+02

 The electronic state is 1-A'.
 Alpha  occ. eigenvalues --  -19.73113  -1.15180  -0.61488  -0.46843  -0.39841
 Alpha virt. eigenvalues --    0.04510   0.10099   0.27506   0.30438   0.31131
 Alpha virt. eigenvalues --    0.35151   0.43782   0.50766   0.55757   0.62981
 Alpha virt. eigenvalues --    0.65733   0.80767   0.93376   0.96145   1.03961

 Mulliken charges:
               1
     1  O   -0.454455
     2  H    0.224189
     3  H    0.230266
 Sum of Mulliken charges =   0.00000

 Dipole moment (field-independent basis, Debye):
    X=              0.0066    Y=             -1.9209    Z=              0.0000  Tot=              1.9209
 Quadrupole moment (field-independent basis, Debye-Ang):
   XX=             -4.2010   YY=             -6.4128   ZZ=             -7.6138
   XY=              0.0405   XZ=              0.0000   YZ=              0.0000

 1\1\GINC-NODE24\SP\RB2PLYPD3-FC\def2QZVP\H2O1\BOITTIER\26-Aug-2020\0\\
 #p B2PLYPD3/Def2QZVP\\h2o\\0,1\O,0,-5.326605,-0.762964,0.915941\H,0,-4
 .368927,-0.768875,0.947404\H,0,-5.609308,0.160344,0.803305\\Version=ES
 64L-G09RevD.01\State=1-A'\HF=-76.3346219\MP2=-76.4247499\RMSD=3.917e-0
 9\PG=CS [SG(H2O1)]\\@

 THE RED LIGHT IS ALWAYS LONGER THAN THE GREEN LIGHT.

 Normal termination of Gaussian 09 at Wed Aug 26 08:32:18 2020.
