 Gaussian 09, Revision D.01,
 Gaussian 09:  ES64L-G09RevD.01 24-Apr-2013

 --------------------
 #p B2PLYPD3/Def2QZVP
 --------------------

 ---
 h2o
 ---
 Symbolic Z-matrix:
 Charge =  0 Multiplicity = 1

                         Standard orientation:
 ---------------------------------------------------------------------
 Center     Atomic      Atomic             Coordinates (Angstroms)
 Number     Number       Type             X           Y           Z
 ---------------------------------------------------------------------
      1          8           0        0.000000    0.123273    0.000000
      2          1           0        0.708855   -0.542512    0.000000
      3          1           0       -0.708855   -0.443673    0.000000
 ---------------------------------------------------------------------

 SCF Done:  E(RB2PLYPD3) =  -76.3311046458     A.U. after   10 cycles
 E2(B2PLYPD3) =    -0.8960873564D-01 E(B2PLYPD3) =    -0.76420713381405D+02

 The electronic state is 1-A'.
 Alpha  occ. eigenvalues --  -19.73055  -1.17193  -0.60849  -0.48953  -0.40288
 Alpha virt. eigenvalues --    0.04537   0.10512   0.27462   0.30344   0.30624
 Alpha virt. eigenvalues --    0.37671   0.44714   0.49478   0.57416   0.60542
 Alpha virt. eigenvalues --    0.65194   0.81677   0.94777   0.95551   1.03844

 Mulliken charges:
               1
     1  O   -0.411904
     2  H    0.221865
     3  H    0.190038
 Sum of Mulliken charges =   0.00000

 Dipole moment (field-independent basis, Debye):
    X=             -0.0374    Y=             -2.0450    Z=              0.0000  Tot=              2.0453
 Quadrupole moment (field-independent basis, Debye-Ang):
   XX=             -4.6551   YY=             -6.1153   ZZ=             -7.5390
   XY=             -0.1446   XZ=              0.0000   YZ=              0.0000

 1\1\GINC-NODE08\SP\RB2PLYPD3-FC\def2QZVP\H2O1\BOITTIER\26-Aug-2020\0\\
 #p B2PLYPD3/Def2QZVP\\h2o\\0,1\O,0,-5.326605,-0.766795,0.928133\H,0,-4
 .368927,-0.607008,0.872752\H,0,-5.609308,0.059765,0.681593\\Version=ES
 64L-G09RevD.01\State=1-A'\HF=-76.3311046\MP2=-76.4207134\RMSD=6.277e-0
 9\PG=CS [SG(H2O1)]\\@

 I do not feel obliged to believe that the same God who

 Normal termination of Gaussian 09 at Wed Aug 26 08:42:24 2020.
