 Gaussian 09, Revision D.01,
 Gaussian 09:  ES64L-G09RevD.01 24-Apr-2013

 --------------------
 #p B2PLYPD3/Def2QZVP
 --------------------

 ---
 h2o
 ---
 Symbolic Z-matrix:
 Charge =  0 Multiplicity = 1

                         Standard orientation:
 ---------------------------------------------------------------------
 Center     Atomic      Atomic             Coordinates (Angstroms)
 Number     Number       Type             X           Y           Z
 ---------------------------------------------------------------------
      1          8           0        0.000000    0.118211    0.000000
      2          1           0        0.773237   -0.447371    0.000000
      3          1           0       -0.773237   -0.498313    0.000000
 ---------------------------------------------------------------------

 SCF Done:  E(RB2PLYPD3) =  -76.3338110673     A.U. after   10 cycles
 E2(B2PLYPD3) =    -0.9046306363D-01 E(B2PLYPD3) =    -0.76424274130945D+02

 The electronic state is 1-A'.
 Alpha  occ. eigenvalues --  -19.73333  -1.14970  -0.60718  -0.47150  -0.39829
 Alpha virt. eigenvalues --    0.04368   0.10058   0.27592   0.30450   0.30683
 Alpha virt. eigenvalues --    0.35198   0.43590   0.50236   0.55976   0.62244
 Alpha virt. eigenvalues --    0.65973   0.80726   0.93245   0.96249   1.02797

 Mulliken charges:
               1
     1  O   -0.455002
     2  H    0.221156
     3  H    0.233846
 Sum of Mulliken charges =   0.00000

 Dipole moment (field-independent basis, Debye):
    X=              0.0155    Y=             -1.9619    Z=              0.0000  Tot=              1.9619
 Quadrupole moment (field-independent basis, Debye-Ang):
   XX=             -4.2807   YY=             -6.3493   ZZ=             -7.6279
   XY=              0.0851   XZ=              0.0000   YZ=              0.0000

 1\1\GINC-NODE40\SP\RB2PLYPD3-FC\def2QZVP\H2O1\BOITTIER\26-Aug-2020\0\\
 #p B2PLYPD3/Def2QZVP\\h2o\\0,1\O,0,-5.326605,-0.765189,0.920247\H,0,-4
 .368927,-0.740951,0.926805\H,0,-5.609308,0.168026,0.755368\\Version=ES
 64L-G09RevD.01\State=1-A'\HF=-76.3338111\MP2=-76.4242741\RMSD=4.385e-0
 9\PG=CS [SG(H2O1)]\\@

 THE MOST BEAUTIFUL EXPERIENCE WE CAN HAVE IS THE MYSTERIOUS.

 Normal termination of Gaussian 09 at Wed Aug 26 10:22:44 2020.
