 Gaussian 09, Revision D.01,
 Gaussian 09:  ES64L-G09RevD.01 24-Apr-2013

 --------------------
 #p B2PLYPD3/Def2QZVP
 --------------------

 ---
 h2o
 ---
 Symbolic Z-matrix:
 Charge =  0 Multiplicity = 1

                         Standard orientation:
 ---------------------------------------------------------------------
 Center     Atomic      Atomic             Coordinates (Angstroms)
 Number     Number       Type             X           Y           Z
 ---------------------------------------------------------------------
      1          8           0        0.000000    0.118321    0.000000
      2          1           0        0.710941   -0.538406    0.000000
      3          1           0       -0.710941   -0.408161    0.000000
 ---------------------------------------------------------------------

 SCF Done:  E(RB2PLYPD3) =  -76.3289639008     A.U. after   10 cycles
 E2(B2PLYPD3) =    -0.8906780210D-01 E(B2PLYPD3) =    -0.76418031702948D+02

 The electronic state is 1-A'.
 Alpha  occ. eigenvalues --  -19.72708  -1.17759  -0.62022  -0.48627  -0.40354
 Alpha virt. eigenvalues --    0.04714   0.10587   0.27300   0.30316   0.30987
 Alpha virt. eigenvalues --    0.37924   0.45215   0.49921   0.57155   0.61366
 Alpha virt. eigenvalues --    0.64808   0.81924   0.94486   0.95432   1.04734

 Mulliken charges:
               1
     1  O   -0.401628
     2  H    0.223335
     3  H    0.178293
 Sum of Mulliken charges =   0.00000

 Dipole moment (field-independent basis, Debye):
    X=             -0.0459    Y=             -1.9972    Z=              0.0000  Tot=              1.9978
 Quadrupole moment (field-independent basis, Debye-Ang):
   XX=             -4.5755   YY=             -6.1749   ZZ=             -7.5102
   XY=             -0.1968   XZ=              0.0000   YZ=              0.0000

 1\1\GINC-NODE40\SP\RB2PLYPD3-FC\def2QZVP\H2O1\BOITTIER\26-Aug-2020\0\\
 #p B2PLYPD3/Def2QZVP\\h2o\\0,1\O,0,-5.326605,-0.763242,0.928372\H,0,-4
 .368927,-0.647881,0.849169\H,0,-5.609308,0.043791,0.701661\\Version=ES
 64L-G09RevD.01\State=1-A'\HF=-76.3289639\MP2=-76.4180317\RMSD=6.658e-0
 9\PG=CS [SG(H2O1)]\\@

 HE THAT WALD REACHE THE SWEITE ROSE

 Normal termination of Gaussian 09 at Wed Aug 26 08:50:16 2020.
