 Gaussian 09, Revision D.01,
 Gaussian 09:  ES64L-G09RevD.01 24-Apr-2013

 --------------------
 #p B2PLYPD3/Def2QZVP
 --------------------

 ---
 h2o
 ---
 Symbolic Z-matrix:
 Charge =  0 Multiplicity = 1

                         Standard orientation:
 ---------------------------------------------------------------------
 Center     Atomic      Atomic             Coordinates (Angstroms)
 Number     Number       Type             X           Y           Z
 ---------------------------------------------------------------------
      1          8           0        0.000000    0.117846    0.000000
      2          1           0        0.730084   -0.511806    0.000000
      3          1           0       -0.730084   -0.430965    0.000000
 ---------------------------------------------------------------------

 SCF Done:  E(RB2PLYPD3) =  -76.3332113264     A.U. after   10 cycles
 E2(B2PLYPD3) =    -0.8941728077D-01 E(B2PLYPD3) =    -0.76422628607179D+02

 The electronic state is 1-A'.
 Alpha  occ. eigenvalues --  -19.72885  -1.16891  -0.61749  -0.48175  -0.40200
 Alpha virt. eigenvalues --    0.04672   0.10441   0.27399   0.30353   0.31043
 Alpha virt. eigenvalues --    0.37188   0.44658   0.50037   0.56832   0.61673
 Alpha virt. eigenvalues --    0.65145   0.81694   0.94421   0.95544   1.04525

 Mulliken charges:
               1
     1  O   -0.419697
     2  H    0.222544
     3  H    0.197153
 Sum of Mulliken charges =   0.00000

 Dipole moment (field-independent basis, Debye):
    X=             -0.0272    Y=             -1.9832    Z=              0.0000  Tot=              1.9834
 Quadrupole moment (field-independent basis, Debye-Ang):
   XX=             -4.4823   YY=             -6.2382   ZZ=             -7.5427
   XY=             -0.1264   XZ=              0.0000   YZ=              0.0000

 1\1\GINC-NODE32\SP\RB2PLYPD3-FC\def2QZVP\H2O1\BOITTIER\26-Aug-2020\0\\
 #p B2PLYPD3/Def2QZVP\\h2o\\0,1\O,0,-5.326605,-0.762977,0.92819\H,0,-4.
 368927,-0.684709,0.849377\H,0,-5.609308,0.076388,0.705118\\Version=ES6
 4L-G09RevD.01\State=1-A'\HF=-76.3332113\MP2=-76.4226286\RMSD=5.673e-09
 \PG=CS [SG(H2O1)]\\@

 BULLDOZER: SOMEONE WHO SLEEPS THROUGH SPEECHES.

 Normal termination of Gaussian 09 at Wed Aug 26 08:42:33 2020.
