 Gaussian 09, Revision D.01,
 Gaussian 09:  ES64L-G09RevD.01 24-Apr-2013

 --------------------
 #p B2PLYPD3/Def2QZVP
 --------------------

 ---
 h2o
 ---
 Symbolic Z-matrix:
 Charge =  0 Multiplicity = 1

                         Standard orientation:
 ---------------------------------------------------------------------
 Center     Atomic      Atomic             Coordinates (Angstroms)
 Number     Number       Type             X           Y           Z
 ---------------------------------------------------------------------
      1          8           0        0.000000    0.116224    0.000000
      2          1           0        0.743415   -0.491072    0.000000
      3          1           0       -0.743415   -0.438720    0.000000
 ---------------------------------------------------------------------

 SCF Done:  E(RB2PLYPD3) =  -76.3345647380     A.U. after   10 cycles
 E2(B2PLYPD3) =    -0.8952856616D-01 E(B2PLYPD3) =    -0.76424093304122D+02

 The electronic state is 1-A'.
 Alpha  occ. eigenvalues --  -19.72910  -1.16469  -0.61846  -0.47782  -0.40112
 Alpha virt. eigenvalues --    0.04673   0.10360   0.27419   0.30372   0.31165
 Alpha virt. eigenvalues --    0.36686   0.44442   0.50277   0.56528   0.62121
 Alpha virt. eigenvalues --    0.65260   0.81542   0.94237   0.95631   1.04656

 Mulliken charges:
               1
     1  O   -0.428735
     2  H    0.222218
     3  H    0.206517
 Sum of Mulliken charges =   0.00000

 Dipole moment (field-independent basis, Debye):
    X=             -0.0167    Y=             -1.9606    Z=              0.0000  Tot=              1.9607
 Quadrupole moment (field-independent basis, Debye-Ang):
   XX=             -4.3977   YY=             -6.2954   ZZ=             -7.5578
   XY=             -0.0844   XZ=              0.0000   YZ=              0.0000

 1\1\GINC-NODE16\SP\RB2PLYPD3-FC\def2QZVP\H2O1\BOITTIER\26-Aug-2020\0\\
 #p B2PLYPD3/Def2QZVP\\h2o\\0,1\O,0,-5.326605,-0.763205,0.923275\H,0,-4
 .368927,-0.706448,0.890032\H,0,-5.609308,0.101779,0.742968\\Version=ES
 64L-G09RevD.01\State=1-A'\HF=-76.3345647\MP2=-76.4240933\RMSD=4.877e-0
 9\PG=CS [SG(H2O1)]\\@

 The chemist is a guest at the physicist's table and

 Normal termination of Gaussian 09 at Wed Aug 26 10:39:01 2020.
