 Gaussian 09, Revision D.01,
 Gaussian 09:  ES64L-G09RevD.01 24-Apr-2013

 --------------------
 #p B2PLYPD3/Def2QZVP
 --------------------

 ---
 h2o
 ---
 Symbolic Z-matrix:
 Charge =  0 Multiplicity = 1

                         Standard orientation:
 ---------------------------------------------------------------------
 Center     Atomic      Atomic             Coordinates (Angstroms)
 Number     Number       Type             X           Y           Z
 ---------------------------------------------------------------------
      1          8           0        0.000000    0.121138    0.000000
      2          1           0        0.811090   -0.395557    0.000000
      3          1           0       -0.811090   -0.573546    0.000000
 ---------------------------------------------------------------------

 SCF Done:  E(RB2PLYPD3) =  -76.3238625076     A.U. after   10 cycles
 E2(B2PLYPD3) =    -0.9181215665D-01 E(B2PLYPD3) =    -0.76415674664267D+02

 The electronic state is 1-A'.
 Alpha  occ. eigenvalues --  -19.73825  -1.13278  -0.59225  -0.46259  -0.39478
 Alpha virt. eigenvalues --    0.03722   0.09629   0.27692   0.29152   0.30542
 Alpha virt. eigenvalues --    0.33875   0.42764   0.50196   0.55105   0.62444
 Alpha virt. eigenvalues --    0.66783   0.79305   0.90774   0.96892   1.00436

 Mulliken charges:
               1
     1  O   -0.480504
     2  H    0.222813
     3  H    0.257691
 Sum of Mulliken charges =   0.00000

 Dipole moment (field-independent basis, Debye):
    X=              0.0514    Y=             -1.9625    Z=              0.0000  Tot=              1.9631
 Quadrupole moment (field-independent basis, Debye-Ang):
   XX=             -4.1295   YY=             -6.3881   ZZ=             -7.7207
   XY=              0.3098   XZ=              0.0000   YZ=              0.0000

 1\1\GINC-NODE06\SP\RB2PLYPD3-FC\def2QZVP\H2O1\BOITTIER\26-Aug-2020\0\\
 #p B2PLYPD3/Def2QZVP\\h2o\\0,1\O,0,-5.326605,-0.767852,0.913277\H,0,-4
 .368927,-0.785476,0.999195\H,0,-5.609308,0.255159,0.795039\\Version=ES
 64L-G09RevD.01\State=1-A'\HF=-76.3238625\MP2=-76.4156747\RMSD=7.187e-0
 9\PG=CS [SG(H2O1)]\\@

 A SCIENTIST IS SOMEONE WHOSE CURIOSITY SURVIVES

 Normal termination of Gaussian 09 at Wed Aug 26 09:27:13 2020.
