 Gaussian 09, Revision D.01,
 Gaussian 09:  ES64L-G09RevD.01 24-Apr-2013

 --------------------
 #p B2PLYPD3/Def2QZVP
 --------------------

 ---
 h2o
 ---
 Symbolic Z-matrix:
 Charge =  0 Multiplicity = 1

                         Standard orientation:
 ---------------------------------------------------------------------
 Center     Atomic      Atomic             Coordinates (Angstroms)
 Number     Number       Type             X           Y           Z
 ---------------------------------------------------------------------
      1          8           0        0.000000    0.113502    0.000000
      2          1           0        0.787627   -0.432208    0.000000
      3          1           0       -0.787627   -0.475807    0.000000
 ---------------------------------------------------------------------

 SCF Done:  E(RB2PLYPD3) =  -76.3338499114     A.U. after   10 cycles
 E2(B2PLYPD3) =    -0.9029181345D-01 E(B2PLYPD3) =    -0.76424141724870D+02

 The electronic state is 1-A'.
 Alpha  occ. eigenvalues --  -19.73155  -1.14858  -0.61397  -0.46578  -0.39767
 Alpha virt. eigenvalues --    0.04451   0.10028   0.27518   0.30456   0.31085
 Alpha virt. eigenvalues --    0.34755   0.43630   0.50940   0.55533   0.63242
 Alpha virt. eigenvalues --    0.65853   0.80494   0.93090   0.96303   1.03647

 Mulliken charges:
               1
     1  O   -0.460996
     2  H    0.225097
     3  H    0.235899
 Sum of Mulliken charges =   0.00000

 Dipole moment (field-independent basis, Debye):
    X=              0.0118    Y=             -1.9085    Z=              0.0000  Tot=              1.9085
 Quadrupole moment (field-independent basis, Debye-Ang):
   XX=             -4.1443   YY=             -6.4448   ZZ=             -7.6289
   XY=              0.0762   XZ=              0.0000   YZ=              0.0000

 1\1\GINC-NODE34\SP\RB2PLYPD3-FC\def2QZVP\H2O1\BOITTIER\26-Aug-2020\0\\
 #p B2PLYPD3/Def2QZVP\\h2o\\0,1\O,0,-5.326605,-0.762344,0.917397\H,0,-4
 .368927,-0.790409,0.932233\H,0,-5.609308,0.171959,0.795751\\Version=ES
 64L-G09RevD.01\State=1-A'\HF=-76.3338499\MP2=-76.4241417\RMSD=4.147e-0
 9\PG=CS [SG(H2O1)]\\@

 ... A MOLECULAR SYSTEM ... (PASSES) ... FROM ONE STATE OF EQUILIBRIUM

 Normal termination of Gaussian 09 at Wed Aug 26 12:40:15 2020.
