 Gaussian 09, Revision D.01,
 Gaussian 09:  ES64L-G09RevD.01 24-Apr-2013

 --------------------
 #p B2PLYPD3/Def2QZVP
 --------------------

 ---
 h2o
 ---
 Symbolic Z-matrix:
 Charge =  0 Multiplicity = 1

                         Standard orientation:
 ---------------------------------------------------------------------
 Center     Atomic      Atomic             Coordinates (Angstroms)
 Number     Number       Type             X           Y           Z
 ---------------------------------------------------------------------
      1          8           0        0.000000    0.114919    0.000000
      2          1           0        0.728232   -0.513608    0.000000
      3          1           0       -0.728232   -0.405748    0.000000
 ---------------------------------------------------------------------

 SCF Done:  E(RB2PLYPD3) =  -76.3314353650     A.U. after   10 cycles
 E2(B2PLYPD3) =    -0.8905260244D-01 E(B2PLYPD3) =    -0.76420487967486D+02

 The electronic state is 1-A'.
 Alpha  occ. eigenvalues --  -19.72652  -1.17346  -0.62493  -0.48048  -0.40263
 Alpha virt. eigenvalues --    0.04785   0.10506   0.27296   0.30330   0.31263
 Alpha virt. eigenvalues --    0.37416   0.45019   0.50349   0.56728   0.62146
 Alpha virt. eigenvalues --    0.64853   0.81869   0.94348   0.95432   1.05126

 Mulliken charges:
               1
     1  O   -0.411232
     2  H    0.223520
     3  H    0.187712
 Sum of Mulliken charges =   0.00000

 Dipole moment (field-independent basis, Debye):
    X=             -0.0348    Y=             -1.9559    Z=              0.0000  Tot=              1.9562
 Quadrupole moment (field-independent basis, Debye-Ang):
   XX=             -4.4504   YY=             -6.2643   ZZ=             -7.5210
   XY=             -0.1709   XZ=              0.0000   YZ=              0.0000

 1\1\GINC-NODE31\SP\RB2PLYPD3-FC\def2QZVP\H2O1\BOITTIER\26-Aug-2020\0\\
 #p B2PLYPD3/Def2QZVP\\h2o\\0,1\O,0,-5.326605,-0.761776,0.925254\H,0,-4
 .368927,-0.693773,0.865282\H,0,-5.609308,0.066231,0.735781\\Version=ES
 64L-G09RevD.01\State=1-A'\HF=-76.3314354\MP2=-76.420488\RMSD=6.284e-09
 \PG=CS [SG(H2O1)]\\@

 GOD DOES NOT PLAY WITH DICE.

 Normal termination of Gaussian 09 at Wed Aug 26 12:46:48 2020.
