 Gaussian 09, Revision D.01,
 Gaussian 09:  ES64L-G09RevD.01 24-Apr-2013

 --------------------
 #p B2PLYPD3/Def2QZVP
 --------------------

 ---
 h2o
 ---
 Symbolic Z-matrix:
 Charge =  0 Multiplicity = 1

                         Standard orientation:
 ---------------------------------------------------------------------
 Center     Atomic      Atomic             Coordinates (Angstroms)
 Number     Number       Type             X           Y           Z
 ---------------------------------------------------------------------
      1          8           0        0.000000    0.115685    0.000000
      2          1           0        0.748248   -0.484698    0.000000
      3          1           0       -0.748248   -0.440784    0.000000
 ---------------------------------------------------------------------

 SCF Done:  E(RB2PLYPD3) =  -76.3348423602     A.U. after   10 cycles
 E2(B2PLYPD3) =    -0.8957866366D-01 E(B2PLYPD3) =    -0.76424421023820D+02

 The electronic state is 1-A'.
 Alpha  occ. eigenvalues --  -19.72922  -1.16313  -0.61863  -0.47639  -0.40079
 Alpha virt. eigenvalues --    0.04667   0.10329   0.27426   0.30379   0.31196
 Alpha virt. eigenvalues --    0.36490   0.44366   0.50367   0.56415   0.62281
 Alpha virt. eigenvalues --    0.65304   0.81470   0.94146   0.95679   1.04670

 Mulliken charges:
               1
     1  O   -0.432017
     2  H    0.222479
     3  H    0.209538
 Sum of Mulliken charges =   0.00000

 Dipole moment (field-independent basis, Debye):
    X=             -0.0137    Y=             -1.9528    Z=              0.0000  Tot=              1.9528
 Quadrupole moment (field-independent basis, Debye-Ang):
   XX=             -4.3674   YY=             -6.3151   ZZ=             -7.5638
   XY=             -0.0715   XZ=              0.0000   YZ=              0.0000

 1\1\GINC-NODE06\SP\RB2PLYPD3-FC\def2QZVP\H2O1\BOITTIER\26-Aug-2020\0\\
 #p B2PLYPD3/Def2QZVP\\h2o\\0,1\O,0,-5.326605,-0.762848,0.923199\H,0,-4
 .368927,-0.718275,0.888536\H,0,-5.609308,0.10788,0.74587\\Version=ES64
 L-G09RevD.01\State=1-A'\HF=-76.3348424\MP2=-76.424421\RMSD=4.631e-09\P
 G=CS [SG(H2O1)]\\@

 HAPPINESS IS NOT HAVING WHAT YOU WANT --

 Normal termination of Gaussian 09 at Wed Aug 26 10:43:00 2020.
