 Gaussian 09, Revision D.01,
 Gaussian 09:  ES64L-G09RevD.01 24-Apr-2013

 --------------------
 #p B2PLYPD3/Def2QZVP
 --------------------

 ---
 h2o
 ---
 Symbolic Z-matrix:
 Charge =  0 Multiplicity = 1

                         Standard orientation:
 ---------------------------------------------------------------------
 Center     Atomic      Atomic             Coordinates (Angstroms)
 Number     Number       Type             X           Y           Z
 ---------------------------------------------------------------------
      1          8           0        0.000000    0.123914    0.000000
      2          1           0        0.732006   -0.507330    0.000000
      3          1           0       -0.732006   -0.483984    0.000000
 ---------------------------------------------------------------------

 SCF Done:  E(RB2PLYPD3) =  -76.3341372581     A.U. after   10 cycles
 E2(B2PLYPD3) =    -0.9018152299D-01 E(B2PLYPD3) =    -0.76424318781060D+02

 The electronic state is 1-A'.
 Alpha  occ. eigenvalues --  -19.73340  -1.16049  -0.60277  -0.48443  -0.40088
 Alpha virt. eigenvalues --    0.04420   0.10297   0.27604   0.30395   0.30510
 Alpha virt. eigenvalues --    0.36655   0.43995   0.49454   0.57040   0.60715
 Alpha virt. eigenvalues --    0.65727   0.81331   0.94460   0.95877   1.02911

 Mulliken charges:
               1
     1  O   -0.432622
     2  H    0.219597
     3  H    0.213025
 Sum of Mulliken charges =   0.00000

 Dipole moment (field-independent basis, Debye):
    X=             -0.0085    Y=             -2.0388    Z=              0.0000  Tot=              2.0389
 Quadrupole moment (field-independent basis, Debye-Ang):
   XX=             -4.5589   YY=             -6.1735   ZZ=             -7.5852
   XY=             -0.0354   XZ=              0.0000   YZ=              0.0000

 1\1\GINC-NODE30\SP\RB2PLYPD3-FC\def2QZVP\H2O1\BOITTIER\26-Aug-2020\0\\
 #p B2PLYPD3/Def2QZVP\\h2o\\0,1\O,0,-5.326605,-0.768004,0.925399\H,0,-4
 .368927,-0.639072,0.902339\H,0,-5.609308,0.111185,0.696318\\Version=ES
 64L-G09RevD.01\State=1-A'\HF=-76.3341373\MP2=-76.4243188\RMSD=4.756e-0
 9\PG=CS [SG(H2O1)]\\@

 A leading authority is anyone who has guessed right more than once.

 Normal termination of Gaussian 09 at Wed Aug 26 08:54:09 2020.
