 Gaussian 09, Revision D.01,
 Gaussian 09:  ES64L-G09RevD.01 24-Apr-2013

 --------------------
 #p B2PLYPD3/Def2QZVP
 --------------------

 ---
 h2o
 ---
 Symbolic Z-matrix:
 Charge =  0 Multiplicity = 1

                         Standard orientation:
 ---------------------------------------------------------------------
 Center     Atomic      Atomic             Coordinates (Angstroms)
 Number     Number       Type             X           Y           Z
 ---------------------------------------------------------------------
      1          8           0        0.000000    0.118671    0.000000
      2          1           0        0.812623   -0.393768    0.000000
      3          1           0       -0.812623   -0.555603    0.000000
 ---------------------------------------------------------------------

 SCF Done:  E(RB2PLYPD3) =  -76.3255935628     A.U. after   10 cycles
 E2(B2PLYPD3) =    -0.9155547083D-01 E(B2PLYPD3) =    -0.76417149033666D+02

 The electronic state is 1-A'.
 Alpha  occ. eigenvalues --  -19.73687  -1.13431  -0.59679  -0.46138  -0.39490
 Alpha virt. eigenvalues --    0.03854   0.09677   0.27649   0.29545   0.30536
 Alpha virt. eigenvalues --    0.33855   0.42860   0.50525   0.55043   0.62834
 Alpha virt. eigenvalues --    0.66651   0.79362   0.91140   0.96868   1.00788

 Mulliken charges:
               1
     1  O   -0.480781
     2  H    0.224039
     3  H    0.256743
 Sum of Mulliken charges =   0.00000

 Dipole moment (field-independent basis, Debye):
    X=              0.0446    Y=             -1.9395    Z=              0.0000  Tot=              1.9400
 Quadrupole moment (field-independent basis, Debye-Ang):
   XX=             -4.0873   YY=             -6.4271   ZZ=             -7.7096
   XY=              0.2858   XZ=              0.0000   YZ=              0.0000

 1\1\GINC-NODE27\SP\RB2PLYPD3-FC\def2QZVP\H2O1\BOITTIER\26-Aug-2020\0\\
 #p B2PLYPD3/Def2QZVP\\h2o\\0,1\O,0,-5.326605,-0.766155,0.91421\H,0,-4.
 368927,-0.802061,0.981399\H,0,-5.609308,0.244587,0.798096\\Version=ES6
 4L-G09RevD.01\State=1-A'\HF=-76.3255936\MP2=-76.417149\RMSD=6.947e-09\
 PG=CS [SG(H2O1)]\\@

 We find comfort among those who agree with us -- growth among those who don't.

 Normal termination of Gaussian 09 at Wed Aug 26 09:17:22 2020.
