 Gaussian 09, Revision D.01,
 Gaussian 09:  ES64L-G09RevD.01 24-Apr-2013

 --------------------
 #p B2PLYPD3/Def2QZVP
 --------------------

 ---
 h2o
 ---
 Symbolic Z-matrix:
 Charge =  0 Multiplicity = 1

                         Standard orientation:
 ---------------------------------------------------------------------
 Center     Atomic      Atomic             Coordinates (Angstroms)
 Number     Number       Type             X           Y           Z
 ---------------------------------------------------------------------
      1          8           0        0.000000    0.127709    0.000000
      2          1           0        0.747521   -0.486464    0.000000
      3          1           0       -0.747521   -0.535205    0.000000
 ---------------------------------------------------------------------

 SCF Done:  E(RB2PLYPD3) =  -76.3320469264     A.U. after   10 cycles
 E2(B2PLYPD3) =    -0.9101988592D-01 E(B2PLYPD3) =    -0.76423066812360D+02

 The electronic state is 1-A'.
 Alpha  occ. eigenvalues --  -19.73744  -1.14964  -0.59142  -0.48205  -0.39907
 Alpha virt. eigenvalues --    0.04131   0.10058   0.27779   0.29884   0.30446
 Alpha virt. eigenvalues --    0.35652   0.43366   0.49136   0.56796   0.60384
 Alpha virt. eigenvalues --    0.66326   0.80816   0.93698   0.96385   1.01153

 Mulliken charges:
               1
     1  O   -0.447981
     2  H    0.218062
     3  H    0.229919
 Sum of Mulliken charges =   0.00000

 Dipole moment (field-independent basis, Debye):
    X=              0.0181    Y=             -2.0636    Z=              0.0000  Tot=              2.0636
 Quadrupole moment (field-independent basis, Debye-Ang):
   XX=             -4.5397   YY=             -6.1642   ZZ=             -7.6385
   XY=              0.0742   XZ=              0.0000   YZ=              0.0000

 1\1\GINC-NODE13\SP\RB2PLYPD3-FC\def2QZVP\H2O1\BOITTIER\26-Aug-2020\0\\
 #p B2PLYPD3/Def2QZVP\\h2o\\0,1\O,0,-5.326605,-0.768071,0.933475\H,0,-4
 .368927,-0.668438,0.839022\H,0,-5.609308,0.141622,0.632178\\Version=ES
 64L-G09RevD.01\State=1-A'\HF=-76.3320469\MP2=-76.4230668\RMSD=4.712e-0
 9\PG=CS [SG(H2O1)]\\@

 A BIRD IN THE HAND IS SAFER THAN ONE OVERHEAD.

 Normal termination of Gaussian 09 at Wed Aug 26 08:41:12 2020.
