 Gaussian 09, Revision D.01,
 Gaussian 09:  ES64L-G09RevD.01 24-Apr-2013

 --------------------
 #p B2PLYPD3/Def2QZVP
 --------------------

 ---
 h2o
 ---
 Symbolic Z-matrix:
 Charge =  0 Multiplicity = 1

                         Standard orientation:
 ---------------------------------------------------------------------
 Center     Atomic      Atomic             Coordinates (Angstroms)
 Number     Number       Type             X           Y           Z
 ---------------------------------------------------------------------
      1          8           0        0.000000    0.117891    0.000000
      2          1           0        0.776112   -0.443872    0.000000
      3          1           0       -0.776112   -0.499260    0.000000
 ---------------------------------------------------------------------

 SCF Done:  E(RB2PLYPD3) =  -76.3336073879     A.U. after   10 cycles
 E2(B2PLYPD3) =    -0.9049744343D-01 E(B2PLYPD3) =    -0.76424104831284D+02

 The electronic state is 1-A'.
 Alpha  occ. eigenvalues --  -19.73338  -1.14887  -0.60721  -0.47063  -0.39809
 Alpha virt. eigenvalues --    0.04356   0.10038   0.27593   0.30454   0.30678
 Alpha virt. eigenvalues --    0.35089   0.43555   0.50295   0.55903   0.62341
 Alpha virt. eigenvalues --    0.65997   0.80659   0.93153   0.96284   1.02752

 Mulliken charges:
               1
     1  O   -0.456721
     2  H    0.221530
     3  H    0.235191
 Sum of Mulliken charges =   0.00000

 Dipole moment (field-independent basis, Debye):
    X=              0.0167    Y=             -1.9571    Z=              0.0000  Tot=              1.9572
 Quadrupole moment (field-independent basis, Debye-Ang):
   XX=             -4.2620   YY=             -6.3603   ZZ=             -7.6317
   XY=              0.0931   XZ=              0.0000   YZ=              0.0000

 1\1\GINC-NODE27\SP\RB2PLYPD3-FC\def2QZVP\H2O1\BOITTIER\26-Aug-2020\0\\
 #p B2PLYPD3/Def2QZVP\\h2o\\0,1\O,0,-5.326605,-0.765199,0.918734\H,0,-4
 .368927,-0.74587,0.938917\H,0,-5.609308,0.173093,0.767365\\Version=ES6
 4L-G09RevD.01\State=1-A'\HF=-76.3336074\MP2=-76.4241048\RMSD=4.440e-09
 \PG=CS [SG(H2O1)]\\@

 WE LEARN WISDOM FROM FAILURE MUCH MORE THAN FROM SUCCESS.

 Normal termination of Gaussian 09 at Wed Aug 26 10:17:51 2020.
