 Gaussian 09, Revision D.01,
 Gaussian 09:  ES64L-G09RevD.01 24-Apr-2013

 --------------------
 #p B2PLYPD3/Def2QZVP
 --------------------

 ---
 h2o
 ---
 Symbolic Z-matrix:
 Charge =  0 Multiplicity = 1

                         Standard orientation:
 ---------------------------------------------------------------------
 Center     Atomic      Atomic             Coordinates (Angstroms)
 Number     Number       Type             X           Y           Z
 ---------------------------------------------------------------------
      1          8           0        0.000000    0.118477    0.000000
      2          1           0        0.751730   -0.478177    0.000000
      3          1           0       -0.751730   -0.469639    0.000000
 ---------------------------------------------------------------------

 SCF Done:  E(RB2PLYPD3) =  -76.3350895618     A.U. after   10 cycles
 E2(B2PLYPD3) =    -0.8997565255D-01 E(B2PLYPD3) =    -0.76425065214388D+02

 The electronic state is 1-A'.
 Alpha  occ. eigenvalues --  -19.73151  -1.15838  -0.61139  -0.47700  -0.40008
 Alpha virt. eigenvalues --    0.04532   0.10244   0.27522   0.30404   0.30915
 Alpha virt. eigenvalues --    0.36162   0.44025   0.50071   0.56452   0.61865
 Alpha virt. eigenvalues --    0.65616   0.81256   0.94006   0.95878   1.03752

 Mulliken charges:
               1
     1  O   -0.439428
     2  H    0.220897
     3  H    0.218530
 Sum of Mulliken charges =   0.00000

 Dipole moment (field-independent basis, Debye):
    X=             -0.0028    Y=             -1.9774    Z=              0.0000  Tot=              1.9774
 Quadrupole moment (field-independent basis, Debye-Ang):
   XX=             -4.3893   YY=             -6.2919   ZZ=             -7.5877
   XY=             -0.0138   XZ=              0.0000   YZ=              0.0000

 1\1\GINC-NODE03\SP\RB2PLYPD3-FC\def2QZVP\H2O1\BOITTIER\26-Aug-2020\0\\
 #p B2PLYPD3/Def2QZVP\\h2o\\0,1\O,0,-5.326605,-0.765205,0.921168\H,0,-4
 .368927,-0.702414,0.919158\H,0,-5.609308,0.12973,0.747534\\Version=ES6
 4L-G09RevD.01\State=1-A'\HF=-76.3350896\MP2=-76.4250652\RMSD=4.210e-09
 \PG=CS [SG(H2O1)]\\@

 MEMORIES ARE LIKE AN ENGLISH GRAMMER LESSON -

 Normal termination of Gaussian 09 at Wed Aug 26 08:54:25 2020.
