 Gaussian 09, Revision D.01,
 Gaussian 09:  ES64L-G09RevD.01 24-Apr-2013

 --------------------
 #p B2PLYPD3/Def2QZVP
 --------------------

 ---
 h2o
 ---
 Symbolic Z-matrix:
 Charge =  0 Multiplicity = 1

                         Standard orientation:
 ---------------------------------------------------------------------
 Center     Atomic      Atomic             Coordinates (Angstroms)
 Number     Number       Type             X           Y           Z
 ---------------------------------------------------------------------
      1          8           0        0.000000    0.119242    0.000000
      2          1           0        0.779078   -0.438205    0.000000
      3          1           0       -0.779078   -0.515733    0.000000
 ---------------------------------------------------------------------

 SCF Done:  E(RB2PLYPD3) =  -76.3324821787     A.U. after   10 cycles
 E2(B2PLYPD3) =    -0.9073209774D-01 E(B2PLYPD3) =    -0.76423214276393D+02

 The electronic state is 1-A'.
 Alpha  occ. eigenvalues --  -19.73452  -1.14635  -0.60359  -0.47042  -0.39766
 Alpha virt. eigenvalues --    0.04256   0.09980   0.27634   0.30419   0.30468
 Alpha virt. eigenvalues --    0.34913   0.43409   0.50157   0.55863   0.62179
 Alpha virt. eigenvalues --    0.66153   0.80501   0.92874   0.96407   1.02145

 Mulliken charges:
               1
     1  O   -0.459898
     2  H    0.220724
     3  H    0.239174
 Sum of Mulliken charges =   0.00000

 Dipole moment (field-independent basis, Debye):
    X=              0.0237    Y=             -1.9676    Z=              0.0000  Tot=              1.9678
 Quadrupole moment (field-independent basis, Debye-Ang):
   XX=             -4.2659   YY=             -6.3491   ZZ=             -7.6457
   XY=              0.1300   XZ=              0.0000   YZ=              0.0000

 1\1\GINC-NODE27\SP\RB2PLYPD3-FC\def2QZVP\H2O1\BOITTIER\26-Aug-2020\0\\
 #p B2PLYPD3/Def2QZVP\\h2o\\0,1\O,0,-5.326605,-0.765906,0.920195\H,0,-4
 .368927,-0.745174,0.931733\H,0,-5.609308,0.183712,0.751492\\Version=ES
 64L-G09RevD.01\State=1-A'\HF=-76.3324822\MP2=-76.4232143\RMSD=4.839e-0
 9\PG=CS [SG(H2O1)]\\@

 IF YOU WISH TO UNDERSTAND THE FRAGRANCE OF THE ROSE,

 Normal termination of Gaussian 09 at Wed Aug 26 08:32:34 2020.
