 Gaussian 09, Revision D.01,
 Gaussian 09:  ES64L-G09RevD.01 24-Apr-2013

 --------------------
 #p B2PLYPD3/Def2QZVP
 --------------------

 ---
 h2o
 ---
 Symbolic Z-matrix:
 Charge =  0 Multiplicity = 1

                         Standard orientation:
 ---------------------------------------------------------------------
 Center     Atomic      Atomic             Coordinates (Angstroms)
 Number     Number       Type             X           Y           Z
 ---------------------------------------------------------------------
      1          8           0        0.000000    0.115151    0.000000
      2          1           0        0.760671   -0.467460    0.000000
      3          1           0       -0.760671   -0.453746    0.000000
 ---------------------------------------------------------------------

 SCF Done:  E(RB2PLYPD3) =  -76.3352319000     A.U. after   10 cycles
 E2(B2PLYPD3) =    -0.8980897794D-01 E(B2PLYPD3) =    -0.76425040877980D+02

 The electronic state is 1-A'.
 Alpha  occ. eigenvalues --  -19.73010  -1.15823  -0.61698  -0.47316  -0.39980
 Alpha virt. eigenvalues --    0.04609   0.10233   0.27466   0.30403   0.31185
 Alpha virt. eigenvalues --    0.35929   0.44104   0.50511   0.56152   0.62552
 Alpha virt. eigenvalues --    0.65490   0.81208   0.93863   0.95862   1.04436

 Mulliken charges:
               1
     1  O   -0.441713
     2  H    0.222764
     3  H    0.218948
 Sum of Mulliken charges =   0.00000

 Dipole moment (field-independent basis, Debye):
    X=             -0.0041    Y=             -1.9406    Z=              0.0000  Tot=              1.9406
 Quadrupole moment (field-independent basis, Debye-Ang):
   XX=             -4.3003   YY=             -6.3555   ZZ=             -7.5848
   XY=             -0.0228   XZ=              0.0000   YZ=              0.0000

 1\1\GINC-NODE05\SP\RB2PLYPD3-FC\def2QZVP\H2O1\BOITTIER\26-Aug-2020\0\\
 #p B2PLYPD3/Def2QZVP\\h2o\\0,1\O,0,-5.326605,-0.763349,0.918442\H,0,-4
 .368927,-0.735347,0.92959\H,0,-5.609308,0.13297,0.780767\\Version=ES64
 L-G09RevD.01\State=1-A'\HF=-76.3352319\MP2=-76.4250409\RMSD=4.053e-09\
 PG=CS [SG(H2O1)]\\@

 NATURE GIVES TO EVERY TIME AND SEASON SOME BEAUTY OF ITS OWN.

 Normal termination of Gaussian 09 at Wed Aug 26 09:57:11 2020.
