 Gaussian 09, Revision D.01,
 Gaussian 09:  ES64L-G09RevD.01 24-Apr-2013

 --------------------
 #p B2PLYPD3/Def2QZVP
 --------------------

 ---
 h2o
 ---
 Symbolic Z-matrix:
 Charge =  0 Multiplicity = 1

                         Standard orientation:
 ---------------------------------------------------------------------
 Center     Atomic      Atomic             Coordinates (Angstroms)
 Number     Number       Type             X           Y           Z
 ---------------------------------------------------------------------
      1          8           0        0.000000    0.113317    0.000000
      2          1           0        0.777451   -0.446141    0.000000
      3          1           0       -0.777451   -0.460397    0.000000
 ---------------------------------------------------------------------

 SCF Done:  E(RB2PLYPD3) =  -76.3348180992     A.U. after   10 cycles
 E2(B2PLYPD3) =    -0.9001545157D-01 E(B2PLYPD3) =    -0.76424833550794D+02

 The electronic state is 1-A'.
 Alpha  occ. eigenvalues --  -19.73049  -1.15300  -0.61699  -0.46818  -0.39859
 Alpha virt. eigenvalues --    0.04554   0.10122   0.27482   0.30431   0.31239
 Alpha virt. eigenvalues --    0.35220   0.43866   0.50871   0.55744   0.63117
 Alpha virt. eigenvalues --    0.65648   0.80823   0.93455   0.96095   1.04308

 Mulliken charges:
               1
     1  O   -0.452887
     2  H    0.224577
     3  H    0.228309
 Sum of Mulliken charges =   0.00000

 Dipole moment (field-independent basis, Debye):
    X=              0.0040    Y=             -1.9130    Z=              0.0000  Tot=              1.9130
 Quadrupole moment (field-independent basis, Debye-Ang):
   XX=             -4.1929   YY=             -6.4216   ZZ=             -7.6073
   XY=              0.0246   XZ=              0.0000   YZ=              0.0000

 1\1\GINC-NODE03\SP\RB2PLYPD3-FC\def2QZVP\H2O1\BOITTIER\26-Aug-2020\0\\
 #p B2PLYPD3/Def2QZVP\\h2o\\0,1\O,0,-5.326605,-0.761915,0.919538\H,0,-4
 .368927,-0.776918,0.912427\H,0,-5.609308,0.151607,0.781214\\Version=ES
 64L-G09RevD.01\State=1-A'\HF=-76.3348181\MP2=-76.4248336\RMSD=3.832e-0
 9\PG=CS [SG(H2O1)]\\@

 FROM WHENCE IT HAPPENS, THAT THEY WHICH TRUST TO BOOKS, DO AS THEY THAT CAST UP MANY LITTLE SUMMS INTO GREATER,

 Normal termination of Gaussian 09 at Wed Aug 26 11:20:48 2020.
