 Gaussian 09, Revision D.01,
 Gaussian 09:  ES64L-G09RevD.01 24-Apr-2013

 --------------------
 #p B2PLYPD3/Def2QZVP
 --------------------

 ---
 h2o
 ---
 Symbolic Z-matrix:
 Charge =  0 Multiplicity = 1

                         Standard orientation:
 ---------------------------------------------------------------------
 Center     Atomic      Atomic             Coordinates (Angstroms)
 Number     Number       Type             X           Y           Z
 ---------------------------------------------------------------------
      1          8           0        0.000000    0.116617    0.000000
      2          1           0        0.763279   -0.467362    0.000000
      3          1           0       -0.763279   -0.465572    0.000000
 ---------------------------------------------------------------------

 SCF Done:  E(RB2PLYPD3) =  -76.3350786894     A.U. after   10 cycles
 E2(B2PLYPD3) =    -0.9003542148D-01 E(B2PLYPD3) =    -0.76425114110860D+02

 The electronic state is 1-A'.
 Alpha  occ. eigenvalues --  -19.73135  -1.15550  -0.61304  -0.47327  -0.39936
 Alpha virt. eigenvalues --    0.04528   0.10181   0.27516   0.30418   0.31012
 Alpha virt. eigenvalues --    0.35729   0.43919   0.50354   0.56149   0.62346
 Alpha virt. eigenvalues --    0.65665   0.81075   0.93726   0.95981   1.03857

 Mulliken charges:
               1
     1  O   -0.445848
     2  H    0.223165
     3  H    0.222684
 Sum of Mulliken charges =   0.00000

 Dipole moment (field-independent basis, Debye):
    X=             -0.0005    Y=             -1.9531    Z=              0.0000  Tot=              1.9531
 Quadrupole moment (field-independent basis, Debye-Ang):
   XX=             -4.3077   YY=             -6.3447   ZZ=             -7.5987
   XY=             -0.0030   XZ=              0.0000   YZ=              0.0000

 1\1\GINC-NODE33\SP\RB2PLYPD3-FC\def2QZVP\H2O1\BOITTIER\26-Aug-2020\0\\
 #p B2PLYPD3/Def2QZVP\\h2o\\0,1\O,0,-5.326605,-0.764811,0.912772\H,0,-4
 .368927,-0.726531,0.983578\H,0,-5.609308,0.147551,0.816789\\Version=ES
 64L-G09RevD.01\State=1-A'\HF=-76.3350787\MP2=-76.4251141\RMSD=3.987e-0
 9\PG=CS [SG(H2O1)]\\@

 DEMOCRATS BUY MOST OF THE BOOKS THAT HAVE BEEN

 Normal termination of Gaussian 09 at Wed Aug 26 09:03:59 2020.
