 Gaussian 09, Revision D.01,
 Gaussian 09:  ES64L-G09RevD.01 24-Apr-2013

 --------------------
 #p B2PLYPD3/Def2QZVP
 --------------------

 ---
 h2o
 ---
 Symbolic Z-matrix:
 Charge =  0 Multiplicity = 1

                         Standard orientation:
 ---------------------------------------------------------------------
 Center     Atomic      Atomic             Coordinates (Angstroms)
 Number     Number       Type             X           Y           Z
 ---------------------------------------------------------------------
      1          8           0        0.000000    0.118879    0.000000
      2          1           0        0.740480   -0.503192    0.000000
      3          1           0       -0.740480   -0.447842    0.000000
 ---------------------------------------------------------------------

 SCF Done:  E(RB2PLYPD3) =  -76.3344150573     A.U. after   10 cycles
 E2(B2PLYPD3) =    -0.8976796333D-01 E(B2PLYPD3) =    -0.76424183020612D+02

 The electronic state is 1-A'.
 Alpha  occ. eigenvalues --  -19.73065  -1.16291  -0.61287  -0.47983  -0.40096
 Alpha virt. eigenvalues --    0.04577   0.10333   0.27482   0.30382   0.30911
 Alpha virt. eigenvalues --    0.36658   0.44280   0.49975   0.56678   0.61647
 Alpha virt. eigenvalues --    0.65434   0.81458   0.94225   0.95738   1.03945

 Mulliken charges:
               1
     1  O   -0.430687
     2  H    0.223434
     3  H    0.207253
 Sum of Mulliken charges =   0.00000

 Dipole moment (field-independent basis, Debye):
    X=             -0.0184    Y=             -1.9873    Z=              0.0000  Tot=              1.9874
 Quadrupole moment (field-independent basis, Debye-Ang):
   XX=             -4.4482   YY=             -6.2555   ZZ=             -7.5689
   XY=             -0.0875   XZ=              0.0000   YZ=              0.0000

 1\1\GINC-NODE01\SP\RB2PLYPD3-FC\def2QZVP\H2O1\BOITTIER\26-Aug-2020\0\\
 #p B2PLYPD3/Def2QZVP\\h2o\\0,1\O,0,-5.326605,-0.762037,0.93273\H,0,-4.
 368927,-0.711726,0.807811\H,0,-5.609308,0.088368,0.675099\\Version=ES6
 4L-G09RevD.01\State=1-A'\HF=-76.3344151\MP2=-76.424183\RMSD=4.946e-09\
 PG=CS [SG(H2O1)]\\@

 THE MOST INCOMPREHENSIBLE THING ABOUT THE WORLD

 Normal termination of Gaussian 09 at Wed Aug 26 08:42:59 2020.
