 Gaussian 09, Revision D.01,
 Gaussian 09:  ES64L-G09RevD.01 24-Apr-2013

 --------------------
 #p B2PLYPD3/Def2QZVP
 --------------------

 ---
 h2o
 ---
 Symbolic Z-matrix:
 Charge =  0 Multiplicity = 1

                         Standard orientation:
 ---------------------------------------------------------------------
 Center     Atomic      Atomic             Coordinates (Angstroms)
 Number     Number       Type             X           Y           Z
 ---------------------------------------------------------------------
      1          8           0        0.000000    0.116734    0.000000
      2          1           0        0.757128   -0.472351    0.000000
      3          1           0       -0.757128   -0.461518    0.000000
 ---------------------------------------------------------------------

 SCF Done:  E(RB2PLYPD3) =  -76.3351907952     A.U. after   10 cycles
 E2(B2PLYPD3) =    -0.8990240704D-01 E(B2PLYPD3) =    -0.76425093202194D+02

 The electronic state is 1-A'.
 Alpha  occ. eigenvalues --  -19.73084  -1.15801  -0.61419  -0.47482  -0.39987
 Alpha virt. eigenvalues --    0.04568   0.10233   0.27495   0.30405   0.31051
 Alpha virt. eigenvalues --    0.36012   0.44051   0.50300   0.56280   0.62234
 Alpha virt. eigenvalues --    0.65562   0.81220   0.93906   0.95878   1.04077

 Mulliken charges:
               1
     1  O   -0.441147
     2  H    0.222073
     3  H    0.219074
 Sum of Mulliken charges =   0.00000

 Dipole moment (field-independent basis, Debye):
    X=             -0.0034    Y=             -1.9578    Z=              0.0000  Tot=              1.9578
 Quadrupole moment (field-independent basis, Debye-Ang):
   XX=             -4.3392   YY=             -6.3271   ZZ=             -7.5874
   XY=             -0.0178   XZ=              0.0000   YZ=              0.0000

 1\1\GINC-NODE08\SP\RB2PLYPD3-FC\def2QZVP\H2O1\BOITTIER\26-Aug-2020\0\\
 #p B2PLYPD3/Def2QZVP\\h2o\\0,1\O,0,-5.326605,-0.76324,0.924636\H,0,-4.
 368927,-0.730073,0.879719\H,0,-5.609308,0.12596,0.732228\\Version=ES64
 L-G09RevD.01\State=1-A'\HF=-76.3351908\MP2=-76.4250932\RMSD=4.107e-09\
 PG=CS [SG(H2O1)]\\@

 SLITHERY-DITHERY

 Normal termination of Gaussian 09 at Wed Aug 26 10:42:40 2020.
