 Gaussian 09, Revision D.01,
 Gaussian 09:  ES64L-G09RevD.01 24-Apr-2013

 --------------------
 #p B2PLYPD3/Def2QZVP
 --------------------

 ---
 h2o
 ---
 Symbolic Z-matrix:
 Charge =  0 Multiplicity = 1

                         Standard orientation:
 ---------------------------------------------------------------------
 Center     Atomic      Atomic             Coordinates (Angstroms)
 Number     Number       Type             X           Y           Z
 ---------------------------------------------------------------------
      1          8           0        0.000000    0.114949    0.000000
      2          1           0        0.763271   -0.463929    0.000000
      3          1           0       -0.763271   -0.455660    0.000000
 ---------------------------------------------------------------------

 SCF Done:  E(RB2PLYPD3) =  -76.3352203524     A.U. after   10 cycles
 E2(B2PLYPD3) =    -0.8984859031D-01 E(B2PLYPD3) =    -0.76425068942755D+02

 The electronic state is 1-A'.
 Alpha  occ. eigenvalues --  -19.73022  -1.15733  -0.61682  -0.47243  -0.39960
 Alpha virt. eigenvalues --    0.04599   0.10215   0.27471   0.30408   0.31187
 Alpha virt. eigenvalues --    0.35816   0.44059   0.50553   0.56092   0.62625
 Alpha virt. eigenvalues --    0.65521   0.81152   0.93799   0.95899   1.04399

 Mulliken charges:
               1
     1  O   -0.443556
     2  H    0.222916
     3  H    0.220640
 Sum of Mulliken charges =   0.00000

 Dipole moment (field-independent basis, Debye):
    X=             -0.0025    Y=             -1.9372    Z=              0.0000  Tot=              1.9372
 Quadrupole moment (field-independent basis, Debye-Ang):
   XX=             -4.2849   YY=             -6.3648   ZZ=             -7.5887
   XY=             -0.0138   XZ=              0.0000   YZ=              0.0000

 1\1\GINC-NODE15\SP\RB2PLYPD3-FC\def2QZVP\H2O1\BOITTIER\26-Aug-2020\0\\
 #p B2PLYPD3/Def2QZVP\\h2o\\0,1\O,0,-5.326605,-0.763175,0.918694\H,0,-4
 .368927,-0.741425,0.926573\H,0,-5.609308,0.136263,0.779888\\Version=ES
 64L-G09RevD.01\State=1-A'\HF=-76.3352204\MP2=-76.4250689\RMSD=3.984e-0
 9\PG=CS [SG(H2O1)]\\@

 Experience is what you get when you don't get what you want.

 Normal termination of Gaussian 09 at Wed Aug 26 11:11:48 2020.
