 Gaussian 09, Revision D.01,
 Gaussian 09:  ES64L-G09RevD.01 24-Apr-2013

 --------------------
 #p B2PLYPD3/Def2QZVP
 --------------------

 ---
 h2o
 ---
 Symbolic Z-matrix:
 Charge =  0 Multiplicity = 1

                         Standard orientation:
 ---------------------------------------------------------------------
 Center     Atomic      Atomic             Coordinates (Angstroms)
 Number     Number       Type             X           Y           Z
 ---------------------------------------------------------------------
      1          8           0        0.000000    0.115518    0.000000
      2          1           0        0.772786   -0.450197    0.000000
      3          1           0       -0.772786   -0.473947    0.000000
 ---------------------------------------------------------------------

 SCF Done:  E(RB2PLYPD3) =  -76.3347302188     A.U. after   10 cycles
 E2(B2PLYPD3) =    -0.9014299811D-01 E(B2PLYPD3) =    -0.76424873216951D+02

 The electronic state is 1-A'.
 Alpha  occ. eigenvalues --  -19.73151  -1.15268  -0.61325  -0.47039  -0.39869
 Alpha virt. eigenvalues --    0.04498   0.10120   0.27521   0.30433   0.31034
 Alpha virt. eigenvalues --    0.35342   0.43798   0.50556   0.55912   0.62675
 Alpha virt. eigenvalues --    0.65744   0.80868   0.93469   0.96104   1.03762

 Mulliken charges:
               1
     1  O   -0.451807
     2  H    0.222818
     3  H    0.228990
 Sum of Mulliken charges =   0.00000

 Dipole moment (field-independent basis, Debye):
    X=              0.0069    Y=             -1.9369    Z=              0.0000  Tot=              1.9369
 Quadrupole moment (field-independent basis, Debye-Ang):
   XX=             -4.2459   YY=             -6.3825   ZZ=             -7.6109
   XY=              0.0402   XZ=              0.0000   YZ=              0.0000

 1\1\GINC-NODE12\SP\RB2PLYPD3-FC\def2QZVP\H2O1\BOITTIER\26-Aug-2020\0\\
 #p B2PLYPD3/Def2QZVP\\h2o\\0,1\O,0,-5.326605,-0.763475,0.919356\H,0,-4
 .368927,-0.755206,0.923351\H,0,-5.609308,0.154849,0.772977\\Version=ES
 64L-G09RevD.01\State=1-A'\HF=-76.3347302\MP2=-76.4248732\RMSD=3.983e-0
 9\PG=CS [SG(H2O1)]\\@

 PENOTUS DIED A HUNDRED YEARS OLD WANTING BUT TWO...

 Normal termination of Gaussian 09 at Wed Aug 26 10:33:07 2020.
