 Gaussian 09, Revision D.01,
 Gaussian 09:  ES64L-G09RevD.01 24-Apr-2013

 --------------------
 #p B2PLYPD3/Def2QZVP
 --------------------

 ---
 h2o
 ---
 Symbolic Z-matrix:
 Charge =  0 Multiplicity = 1

                         Standard orientation:
 ---------------------------------------------------------------------
 Center     Atomic      Atomic             Coordinates (Angstroms)
 Number     Number       Type             X           Y           Z
 ---------------------------------------------------------------------
      1          8           0        0.000000    0.118468    0.000000
      2          1           0        0.784775   -0.431624    0.000000
      3          1           0       -0.784775   -0.516121    0.000000
 ---------------------------------------------------------------------

 SCF Done:  E(RB2PLYPD3) =  -76.3320245390     A.U. after   10 cycles
 E2(B2PLYPD3) =    -0.9078523730D-01 E(B2PLYPD3) =    -0.76422809776332D+02

 The electronic state is 1-A'.
 Alpha  occ. eigenvalues --  -19.73451  -1.14488  -0.60393  -0.46864  -0.39728
 Alpha virt. eigenvalues --    0.04235   0.09945   0.27629   0.30416   0.30476
 Alpha virt. eigenvalues --    0.34717   0.43353   0.50293   0.55715   0.62393
 Alpha virt. eigenvalues --    0.66188   0.80365   0.92697   0.96465   1.02098

 Mulliken charges:
               1
     1  O   -0.463114
     2  H    0.221676
     3  H    0.241438
 Sum of Mulliken charges =   0.00000

 Dipole moment (field-independent basis, Debye):
    X=              0.0251    Y=             -1.9568    Z=              0.0000  Tot=              1.9570
 Quadrupole moment (field-independent basis, Debye-Ang):
   XX=             -4.2266   YY=             -6.3726   ZZ=             -7.6523
   XY=              0.1435   XZ=              0.0000   YZ=              0.0000

 1\1\GINC-NODE28\SP\RB2PLYPD3-FC\def2QZVP\H2O1\BOITTIER\26-Aug-2020\0\\
 #p B2PLYPD3/Def2QZVP\\h2o\\0,1\O,0,-5.326605,-0.765752,0.917455\H,0,-4
 .368927,-0.756373,0.952638\H,0,-5.609308,0.192453,0.774285\\Version=ES
 64L-G09RevD.01\State=1-A'\HF=-76.3320245\MP2=-76.4228098\RMSD=4.984e-0
 9\PG=CS [SG(H2O1)]\\@

 YOU WILL NEVER "FIND" TIME FOR ANYTHING.

 Normal termination of Gaussian 09 at Wed Aug 26 08:31:08 2020.
