 Gaussian 09, Revision D.01,
 Gaussian 09:  ES64L-G09RevD.01 24-Apr-2013

 --------------------
 #p B2PLYPD3/Def2QZVP
 --------------------

 ---
 h2o
 ---
 Symbolic Z-matrix:
 Charge =  0 Multiplicity = 1

                         Standard orientation:
 ---------------------------------------------------------------------
 Center     Atomic      Atomic             Coordinates (Angstroms)
 Number     Number       Type             X           Y           Z
 ---------------------------------------------------------------------
      1          8           0        0.000000    0.121156    0.000000
      2          1           0        0.755751   -0.472016    0.000000
      3          1           0       -0.755751   -0.497229    0.000000
 ---------------------------------------------------------------------

 SCF Done:  E(RB2PLYPD3) =  -76.3343601076     A.U. after   10 cycles
 E2(B2PLYPD3) =    -0.9038795211D-01 E(B2PLYPD3) =    -0.76424748059746D+02

 The electronic state is 1-A'.
 Alpha  occ. eigenvalues --  -19.73373  -1.15367  -0.60445  -0.47724  -0.39935
 Alpha virt. eigenvalues --    0.04383   0.10149   0.27615   0.30428   0.30576
 Alpha virt. eigenvalues --    0.35802   0.43715   0.49802   0.56448   0.61499
 Alpha virt. eigenvalues --    0.65921   0.81021   0.93751   0.96104   1.02717

 Mulliken charges:
               1
     1  O   -0.445979
     2  H    0.219708
     3  H    0.226271
 Sum of Mulliken charges =   0.00000

 Dipole moment (field-independent basis, Debye):
    X=              0.0084    Y=             -1.9998    Z=              0.0000  Tot=              1.9998
 Quadrupole moment (field-independent basis, Debye-Ang):
   XX=             -4.4072   YY=             -6.2690   ZZ=             -7.6121
   XY=              0.0403   XZ=              0.0000   YZ=              0.0000

 1\1\GINC-NODE08\SP\RB2PLYPD3-FC\def2QZVP\H2O1\BOITTIER\26-Aug-2020\0\\
 #p B2PLYPD3/Def2QZVP\\h2o\\0,1\O,0,-5.326605,-0.765854,0.926418\H,0,-4
 .368927,-0.703778,0.881579\H,0,-5.609308,0.141485,0.701977\\Version=ES
 64L-G09RevD.01\State=1-A'\HF=-76.3343601\MP2=-76.4247481\RMSD=4.284e-0
 9\PG=CS [SG(H2O1)]\\@

 THE MOST BEAUTIFUL EXPERIENCE WE CAN HAVE IS THE MYSTERIOUS.

 Normal termination of Gaussian 09 at Wed Aug 26 11:27:45 2020.
