 Gaussian 09, Revision D.01,
 Gaussian 09:  ES64L-G09RevD.01 24-Apr-2013

 --------------------
 #p B2PLYPD3/Def2QZVP
 --------------------

 ---
 h2o
 ---
 Symbolic Z-matrix:
 Charge =  0 Multiplicity = 1

                         Standard orientation:
 ---------------------------------------------------------------------
 Center     Atomic      Atomic             Coordinates (Angstroms)
 Number     Number       Type             X           Y           Z
 ---------------------------------------------------------------------
      1          8           0        0.000000    0.116354    0.000000
      2          1           0        0.752216   -0.479645    0.000000
      3          1           0       -0.752216   -0.451191    0.000000
 ---------------------------------------------------------------------

 SCF Done:  E(RB2PLYPD3) =  -76.3351105049     A.U. after   10 cycles
 E2(B2PLYPD3) =    -0.8974486472D-01 E(B2PLYPD3) =    -0.76424855369580D+02

 The electronic state is 1-A'.
 Alpha  occ. eigenvalues --  -19.73009  -1.16059  -0.61618  -0.47580  -0.40035
 Alpha virt. eigenvalues --    0.04616   0.10283   0.27463   0.30392   0.31117
 Alpha virt. eigenvalues --    0.36266   0.44204   0.50314   0.56364   0.62225
 Alpha virt. eigenvalues --    0.65437   0.81351   0.94044   0.95776   1.04364

 Mulliken charges:
               1
     1  O   -0.436532
     2  H    0.222331
     3  H    0.214201
 Sum of Mulliken charges =   0.00000

 Dipole moment (field-independent basis, Debye):
    X=             -0.0089    Y=             -1.9570    Z=              0.0000  Tot=              1.9570
 Quadrupole moment (field-independent basis, Debye-Ang):
   XX=             -4.3576   YY=             -6.3183   ZZ=             -7.5756
   XY=             -0.0465   XZ=              0.0000   YZ=              0.0000

 1\1\GINC-NODE29\SP\RB2PLYPD3-FC\def2QZVP\H2O1\BOITTIER\26-Aug-2020\0\\
 #p B2PLYPD3/Def2QZVP\\h2o\\0,1\O,0,-5.326605,-0.762907,0.924881\H,0,-4
 .368927,-0.724549,0.875632\H,0,-5.609308,0.115104,0.732236\\Version=ES
 64L-G09RevD.01\State=1-A'\HF=-76.3351105\MP2=-76.4248554\RMSD=4.331e-0
 9\PG=CS [SG(H2O1)]\\@

            THE IRISH PIG

 Normal termination of Gaussian 09 at Wed Aug 26 09:46:17 2020.
