 Gaussian 09, Revision D.01,
 Gaussian 09:  ES64L-G09RevD.01 24-Apr-2013

 --------------------
 #p B2PLYPD3/Def2QZVP
 --------------------

 ---
 h2o
 ---
 Symbolic Z-matrix:
 Charge =  0 Multiplicity = 1

                         Standard orientation:
 ---------------------------------------------------------------------
 Center     Atomic      Atomic             Coordinates (Angstroms)
 Number     Number       Type             X           Y           Z
 ---------------------------------------------------------------------
      1          8           0        0.000000    0.111972    0.000000
      2          1           0        0.802381   -0.414891    0.000000
      3          1           0       -0.802381   -0.480884    0.000000
 ---------------------------------------------------------------------

 SCF Done:  E(RB2PLYPD3) =  -76.3323590042     A.U. after   10 cycles
 E2(B2PLYPD3) =    -0.9050874037D-01 E(B2PLYPD3) =    -0.76422867744530D+02

 The electronic state is 1-A'.
 Alpha  occ. eigenvalues --  -19.73190  -1.14407  -0.61333  -0.46145  -0.39655
 Alpha virt. eigenvalues --    0.04367   0.09926   0.27518   0.30482   0.31042
 Alpha virt. eigenvalues --    0.34185   0.43425   0.51296   0.55171   0.63727
 Alpha virt. eigenvalues --    0.66021   0.80030   0.92680   0.96543   1.03232

 Mulliken charges:
               1
     1  O   -0.470828
     2  H    0.227676
     3  H    0.243152
 Sum of Mulliken charges =   0.00000

 Dipole moment (field-independent basis, Debye):
    X=              0.0166    Y=             -1.8844    Z=              0.0000  Tot=              1.8844
 Quadrupole moment (field-independent basis, Debye-Ang):
   XX=             -4.0484   YY=             -6.4999   ZZ=             -7.6503
   XY=              0.1188   XZ=              0.0000   YZ=              0.0000

 1\1\GINC-NODE26\SP\RB2PLYPD3-FC\def2QZVP\H2O1\BOITTIER\26-Aug-2020\0\\
 #p B2PLYPD3/Def2QZVP\\h2o\\0,1\O,0,-5.326605,-0.761424,0.91602\H,0,-4.
 368927,-0.8229,0.937783\H,0,-5.609308,0.189722,0.81261\\Version=ES64L-
 G09RevD.01\State=1-A'\HF=-76.332359\MP2=-76.4228677\RMSD=4.621e-09\PG=
 CS [SG(H2O1)]\\@

 I MET A TRAVELLER FROM AN ANTIQUE LAND

 Normal termination of Gaussian 09 at Wed Aug 26 08:57:45 2020.
