 Gaussian 09, Revision D.01,
 Gaussian 09:  ES64L-G09RevD.01 24-Apr-2013

 --------------------
 #p B2PLYPD3/Def2QZVP
 --------------------

 ---
 h2o
 ---
 Symbolic Z-matrix:
 Charge =  0 Multiplicity = 1

                         Standard orientation:
 ---------------------------------------------------------------------
 Center     Atomic      Atomic             Coordinates (Angstroms)
 Number     Number       Type             X           Y           Z
 ---------------------------------------------------------------------
      1          8           0        0.000000    0.127087    0.000000
      2          1           0        0.738271   -0.500078    0.000000
      3          1           0       -0.738271   -0.516616    0.000000
 ---------------------------------------------------------------------

 SCF Done:  E(RB2PLYPD3) =  -76.3331287520     A.U. after   10 cycles
 E2(B2PLYPD3) =    -0.9072582794D-01 E(B2PLYPD3) =    -0.76423854579980D+02

 The electronic state is 1-A'.
 Alpha  occ. eigenvalues --  -19.73621  -1.15404  -0.59439  -0.48423  -0.39989
 Alpha virt. eigenvalues --    0.04235   0.10161   0.27729   0.30105   0.30425
 Alpha virt. eigenvalues --    0.36092   0.43582   0.49182   0.57001   0.60326
 Alpha virt. eigenvalues --    0.66116   0.81034   0.94166   0.96188   1.01716

 Mulliken charges:
               1
     1  O   -0.441484
     2  H    0.218609
     3  H    0.222875
 Sum of Mulliken charges =   0.00000

 Dipole moment (field-independent basis, Debye):
    X=              0.0062    Y=             -2.0637    Z=              0.0000  Tot=              2.0638
 Quadrupole moment (field-independent basis, Debye-Ang):
   XX=             -4.5749   YY=             -6.1500   ZZ=             -7.6175
   XY=              0.0249   XZ=              0.0000   YZ=              0.0000

 1\1\GINC-NODE23\SP\RB2PLYPD3-FC\def2QZVP\H2O1\BOITTIER\26-Aug-2020\0\\
 #p B2PLYPD3/Def2QZVP\\h2o\\0,1\O,0,-5.326605,-0.767958,0.932606\H,0,-4
 .368927,-0.651513,0.845015\H,0,-5.609308,0.122885,0.639563\\Version=ES
 64L-G09RevD.01\State=1-A'\HF=-76.3331288\MP2=-76.4238546\RMSD=4.625e-0
 9\PG=CS [SG(H2O1)]\\@

 FROM THE ASHES OF OUR DESPAIR GROW THE FLOWERS OF TOMORROW.

 Normal termination of Gaussian 09 at Wed Aug 26 09:10:52 2020.
