 Gaussian 09, Revision D.01,
 Gaussian 09:  ES64L-G09RevD.01 24-Apr-2013

 --------------------
 #p B2PLYPD3/Def2QZVP
 --------------------

 ---
 h2o
 ---
 Symbolic Z-matrix:
 Charge =  0 Multiplicity = 1

                         Standard orientation:
 ---------------------------------------------------------------------
 Center     Atomic      Atomic             Coordinates (Angstroms)
 Number     Number       Type             X           Y           Z
 ---------------------------------------------------------------------
      1          8           0        0.000000    0.118596    0.000000
      2          1           0        0.773729   -0.447063    0.000000
      3          1           0       -0.773729   -0.501702    0.000000
 ---------------------------------------------------------------------

 SCF Done:  E(RB2PLYPD3) =  -76.3336086155     A.U. after   10 cycles
 E2(B2PLYPD3) =    -0.9052025169D-01 E(B2PLYPD3) =    -0.76424128867201D+02

 The electronic state is 1-A'.
 Alpha  occ. eigenvalues --  -19.73363  -1.14910  -0.60622  -0.47155  -0.39820
 Alpha virt. eigenvalues --    0.04345   0.10044   0.27604   0.30453   0.30625
 Alpha virt. eigenvalues --    0.35158   0.43552   0.50194   0.55975   0.62190
 Alpha virt. eigenvalues --    0.66014   0.80693   0.93194   0.96277   1.02648

 Mulliken charges:
               1
     1  O   -0.455736
     2  H    0.221120
     3  H    0.234617
 Sum of Mulliken charges =   0.00000

 Dipole moment (field-independent basis, Debye):
    X=              0.0167    Y=             -1.9652    Z=              0.0000  Tot=              1.9652
 Quadrupole moment (field-independent basis, Debye-Ang):
   XX=             -4.2836   YY=             -6.3455   ZZ=             -7.6312
   XY=              0.0912   XZ=              0.0000   YZ=              0.0000

 1\1\GINC-NODE29\SP\RB2PLYPD3-FC\def2QZVP\H2O1\BOITTIER\26-Aug-2020\0\\
 #p B2PLYPD3/Def2QZVP\\h2o\\0,1\O,0,-5.326605,-0.765714,0.918469\H,0,-4
 .368927,-0.737081,0.944137\H,0,-5.609308,0.172548,0.766255\\Version=ES
 64L-G09RevD.01\State=1-A'\HF=-76.3336086\MP2=-76.4241289\RMSD=4.444e-0
 9\PG=CS [SG(H2O1)]\\@

 ON A TOMBSTONE, "HERE LIES LESTER MOORE,

 Normal termination of Gaussian 09 at Wed Aug 26 08:30:41 2020.
