 Gaussian 09, Revision D.01,
 Gaussian 09:  ES64L-G09RevD.01 24-Apr-2013

 --------------------
 #p B2PLYPD3/Def2QZVP
 --------------------

 ---
 h2o
 ---
 Symbolic Z-matrix:
 Charge =  0 Multiplicity = 1

                         Standard orientation:
 ---------------------------------------------------------------------
 Center     Atomic      Atomic             Coordinates (Angstroms)
 Number     Number       Type             X           Y           Z
 ---------------------------------------------------------------------
      1          8           0        0.000000    0.118907    0.000000
      2          1           0        0.761002   -0.464575    0.000000
      3          1           0       -0.761002   -0.486682    0.000000
 ---------------------------------------------------------------------

 SCF Done:  E(RB2PLYPD3) =  -76.3346945821     A.U. after   10 cycles
 E2(B2PLYPD3) =    -0.9024540388D-01 E(B2PLYPD3) =    -0.76424939986001D+02

 The electronic state is 1-A'.
 Alpha  occ. eigenvalues --  -19.73269  -1.15397  -0.60838  -0.47491  -0.39923
 Alpha virt. eigenvalues --    0.04444   0.10153   0.27570   0.30427   0.30775
 Alpha virt. eigenvalues --    0.35706   0.43785   0.50076   0.56268   0.61937
 Alpha virt. eigenvalues --    0.65820   0.81017   0.93680   0.96065   1.03195

 Mulliken charges:
               1
     1  O   -0.447013
     2  H    0.220605
     3  H    0.226408
 Sum of Mulliken charges =   0.00000

 Dipole moment (field-independent basis, Debye):
    X=              0.0070    Y=             -1.9759    Z=              0.0000  Tot=              1.9759
 Quadrupole moment (field-independent basis, Debye-Ang):
   XX=             -4.3504   YY=             -6.3105   ZZ=             -7.6082
   XY=              0.0361   XZ=              0.0000   YZ=              0.0000

 1\1\GINC-NODE03\SP\RB2PLYPD3-FC\def2QZVP\H2O1\BOITTIER\26-Aug-2020\0\\
 #p B2PLYPD3/Def2QZVP\\h2o\\0,1\O,0,-5.326605,-0.765125,0.923071\H,0,-4
 .368927,-0.719791,0.903765\H,0,-5.609308,0.14584,0.733115\\Version=ES6
 4L-G09RevD.01\State=1-A'\HF=-76.3346946\MP2=-76.42494\RMSD=4.151e-09\P
 G=CS [SG(H2O1)]\\@

 I WOULD TAKE COUNSEL OF MYSELF.

 Normal termination of Gaussian 09 at Wed Aug 26 11:07:00 2020.
