 Gaussian 09, Revision D.01,
 Gaussian 09:  ES64L-G09RevD.01 24-Apr-2013

 --------------------
 #p B2PLYPD3/Def2QZVP
 --------------------

 ---
 h2o
 ---
 Symbolic Z-matrix:
 Charge =  0 Multiplicity = 1

                         Standard orientation:
 ---------------------------------------------------------------------
 Center     Atomic      Atomic             Coordinates (Angstroms)
 Number     Number       Type             X           Y           Z
 ---------------------------------------------------------------------
      1          8           0        0.000000    0.125012    0.000000
      2          1           0        0.717715   -0.529832    0.000000
      3          1           0       -0.717715   -0.470261    0.000000
 ---------------------------------------------------------------------

 SCF Done:  E(RB2PLYPD3) =  -76.3329618985     A.U. after   10 cycles
 E2(B2PLYPD3) =    -0.9000936550D-01 E(B2PLYPD3) =    -0.76422971263958D+02

 The electronic state is 1-A'.
 Alpha  occ. eigenvalues --  -19.73277  -1.16547  -0.60275  -0.48838  -0.40187
 Alpha virt. eigenvalues --    0.04440   0.10398   0.27573   0.30373   0.30472
 Alpha virt. eigenvalues --    0.37167   0.44255   0.49345   0.57348   0.60363
 Alpha virt. eigenvalues --    0.65536   0.81474   0.94769   0.95728   1.03155

 Mulliken charges:
               1
     1  O   -0.423295
     2  H    0.220522
     3  H    0.202773
 Sum of Mulliken charges =   0.00000

 Dipole moment (field-independent basis, Debye):
    X=             -0.0227    Y=             -2.0565    Z=              0.0000  Tot=              2.0567
 Quadrupole moment (field-independent basis, Debye-Ang):
   XX=             -4.6403   YY=             -6.1211   ZZ=             -7.5665
   XY=             -0.0876   XZ=              0.0000   YZ=              0.0000

 1\1\GINC-NODE05\SP\RB2PLYPD3-FC\def2QZVP\H2O1\BOITTIER\26-Aug-2020\0\\
 #p B2PLYPD3/Def2QZVP\\h2o\\0,1\O,0,-5.326605,-0.768041,0.928001\H,0,-4
 .368927,-0.611078,0.881616\H,0,-5.609308,0.083784,0.67514\\Version=ES6
 4L-G09RevD.01\State=1-A'\HF=-76.3329619\MP2=-76.4229713\RMSD=5.477e-09
 \PG=CS [SG(H2O1)]\\@

 LIFE CAN ONLY BE UNDERSTOOD BACKWARD, BUT MUST

 Normal termination of Gaussian 09 at Wed Aug 26 10:18:49 2020.
