 Gaussian 09, Revision D.01,
 Gaussian 09:  ES64L-G09RevD.01 24-Apr-2013

 --------------------
 #p B2PLYPD3/Def2QZVP
 --------------------

 ---
 h2o
 ---
 Symbolic Z-matrix:
 Charge =  0 Multiplicity = 1

                         Standard orientation:
 ---------------------------------------------------------------------
 Center     Atomic      Atomic             Coordinates (Angstroms)
 Number     Number       Type             X           Y           Z
 ---------------------------------------------------------------------
      1          8           0        0.000000    0.120074    0.000000
      2          1           0        0.815043   -0.388989    0.000000
      3          1           0       -0.815043   -0.571600    0.000000
 ---------------------------------------------------------------------

 SCF Done:  E(RB2PLYPD3) =  -76.3235529764     A.U. after   10 cycles
 E2(B2PLYPD3) =    -0.9179468846D-01 E(B2PLYPD3) =    -0.76415347664860D+02

 The electronic state is 1-A'.
 Alpha  occ. eigenvalues --  -19.73789  -1.13231  -0.59341  -0.46114  -0.39455
 Alpha virt. eigenvalues --    0.03721   0.09619   0.27660   0.29184   0.30546
 Alpha virt. eigenvalues --    0.33808   0.42757   0.50372   0.54990   0.62673
 Alpha virt. eigenvalues --    0.66772   0.79196   0.90701   0.96910   1.00478

 Mulliken charges:
               1
     1  O   -0.482452
     2  H    0.223399
     3  H    0.259053
 Sum of Mulliken charges =   0.00000

 Dipole moment (field-independent basis, Debye):
    X=              0.0512    Y=             -1.9501    Z=              0.0000  Tot=              1.9507
 Quadrupole moment (field-independent basis, Debye-Ang):
   XX=             -4.0942   YY=             -6.4103   ZZ=             -7.7227
   XY=              0.3214   XZ=              0.0000   YZ=              0.0000

 1\1\GINC-NODE13\SP\RB2PLYPD3-FC\def2QZVP\H2O1\BOITTIER\26-Aug-2020\0\\
 #p B2PLYPD3/Def2QZVP\\h2o\\0,1\O,0,-5.326605,-0.767099,0.914252\H,0,-4
 .368927,-0.798916,0.986915\H,0,-5.609308,0.256544,0.792016\\Version=ES
 64L-G09RevD.01\State=1-A'\HF=-76.323553\MP2=-76.4153477\RMSD=7.423e-09
 \PG=CS [SG(H2O1)]\\@

 THERE'S NOTHING SO GREAT AS THE GREAT OUTDOORS.

 Normal termination of Gaussian 09 at Wed Aug 26 08:43:46 2020.
