 Gaussian 09, Revision D.01,
 Gaussian 09:  ES64L-G09RevD.01 24-Apr-2013

 --------------------
 #p B2PLYPD3/Def2QZVP
 --------------------

 ---
 h2o
 ---
 Symbolic Z-matrix:
 Charge =  0 Multiplicity = 1

                         Standard orientation:
 ---------------------------------------------------------------------
 Center     Atomic      Atomic             Coordinates (Angstroms)
 Number     Number       Type             X           Y           Z
 ---------------------------------------------------------------------
      1          8           0        0.000000    0.119358    0.000000
      2          1           0        0.801329   -0.409551    0.000000
      3          1           0       -0.801329   -0.545316    0.000000
 ---------------------------------------------------------------------

 SCF Done:  E(RB2PLYPD3) =  -76.3280249119     A.U. after   10 cycles
 E2(B2PLYPD3) =    -0.9132708353D-01 E(B2PLYPD3) =    -0.76419351995400D+02

 The electronic state is 1-A'.
 Alpha  occ. eigenvalues --  -19.73643  -1.13780  -0.59814  -0.46465  -0.39578
 Alpha virt. eigenvalues --    0.03980   0.09768   0.27673   0.29813   0.30515
 Alpha virt. eigenvalues --    0.34138   0.43010   0.50325   0.55333   0.62535
 Alpha virt. eigenvalues --    0.66519   0.79759   0.91699   0.96751   1.01085

 Mulliken charges:
               1
     1  O   -0.474217
     2  H    0.222721
     3  H    0.251496
 Sum of Mulliken charges =   0.00000

 Dipole moment (field-independent basis, Debye):
    X=              0.0391    Y=             -1.9537    Z=              0.0000  Tot=              1.9541
 Quadrupole moment (field-independent basis, Debye-Ang):
   XX=             -4.1550   YY=             -6.3956   ZZ=             -7.6906
   XY=              0.2351   XZ=              0.0000   YZ=              0.0000

 1\1\GINC-NODE05\SP\RB2PLYPD3-FC\def2QZVP\H2O1\BOITTIER\26-Aug-2020\0\\
 #p B2PLYPD3/Def2QZVP\\h2o\\0,1\O,0,-5.326605,-0.766606,0.914433\H,0,-4
 .368927,-0.778301,0.982176\H,0,-5.609308,0.228046,0.79333\\Version=ES6
 4L-G09RevD.01\State=1-A'\HF=-76.3280249\MP2=-76.419352\RMSD=6.162e-09\
 PG=CS [SG(H2O1)]\\@

 WE ARE PERHAPS NOT FAR REMOVED FROM THE TIME WHEN WE SHALL BE ABLE TO SUBMIT

 Normal termination of Gaussian 09 at Wed Aug 26 10:01:11 2020.
