 Gaussian 09, Revision D.01,
 Gaussian 09:  ES64L-G09RevD.01 24-Apr-2013

 --------------------
 #p B2PLYPD3/Def2QZVP
 --------------------

 ---
 h2o
 ---
 Symbolic Z-matrix:
 Charge =  0 Multiplicity = 1

                         Standard orientation:
 ---------------------------------------------------------------------
 Center     Atomic      Atomic             Coordinates (Angstroms)
 Number     Number       Type             X           Y           Z
 ---------------------------------------------------------------------
      1          8           0        0.000000    0.115717    0.000000
      2          1           0        0.741977   -0.493385    0.000000
      3          1           0       -0.741977   -0.432349    0.000000
 ---------------------------------------------------------------------

 SCF Done:  E(RB2PLYPD3) =  -76.3342759153     A.U. after   10 cycles
 E2(B2PLYPD3) =    -0.8944004782D-01 E(B2PLYPD3) =    -0.76423715963151D+02

 The electronic state is 1-A'.
 Alpha  occ. eigenvalues --  -19.72859  -1.16596  -0.61998  -0.47787  -0.40132
 Alpha virt. eigenvalues --    0.04700   0.10381   0.27397   0.30365   0.31210
 Alpha virt. eigenvalues --    0.36779   0.44531   0.50327   0.56533   0.62188
 Alpha virt. eigenvalues --    0.65187   0.81595   0.94258   0.95590   1.04806

 Mulliken charges:
               1
     1  O   -0.426465
     2  H    0.222527
     3  H    0.203938
 Sum of Mulliken charges =   0.00000

 Dipole moment (field-independent basis, Debye):
    X=             -0.0193    Y=             -1.9565    Z=              0.0000  Tot=              1.9566
 Quadrupole moment (field-independent basis, Debye-Ang):
   XX=             -4.3975   YY=             -6.2969   ZZ=             -7.5520
   XY=             -0.0984   XZ=              0.0000   YZ=              0.0000

 1\1\GINC-NODE03\SP\RB2PLYPD3-FC\def2QZVP\H2O1\BOITTIER\26-Aug-2020\0\\
 #p B2PLYPD3/Def2QZVP\\h2o\\0,1\O,0,-5.326605,-0.762825,0.92338\H,0,-4.
 368927,-0.707572,0.886837\H,0,-5.609308,0.096809,0.744453\\Version=ES6
 4L-G09RevD.01\State=1-A'\HF=-76.3342759\MP2=-76.423716\RMSD=5.089e-09\
 PG=CS [SG(H2O1)]\\@

 ABALONE: AN EXPRESSION OF DISBELIEF.

 Normal termination of Gaussian 09 at Wed Aug 26 12:17:28 2020.
