 Gaussian 09, Revision D.01,
 Gaussian 09:  ES64L-G09RevD.01 24-Apr-2013

 --------------------
 #p B2PLYPD3/Def2QZVP
 --------------------

 ---
 h2o
 ---
 Symbolic Z-matrix:
 Charge =  0 Multiplicity = 1

                         Standard orientation:
 ---------------------------------------------------------------------
 Center     Atomic      Atomic             Coordinates (Angstroms)
 Number     Number       Type             X           Y           Z
 ---------------------------------------------------------------------
      1          8           0        0.000000    0.112257    0.000000
      2          1           0        0.769768   -0.462562    0.000000
      3          1           0       -0.769768   -0.435491    0.000000
 ---------------------------------------------------------------------

 SCF Done:  E(RB2PLYPD3) =  -76.3350378672     A.U. after   10 cycles
 E2(B2PLYPD3) =    -0.8971499763D-01 E(B2PLYPD3) =    -0.76424752864826D+02

 The electronic state is 1-A'.
 Alpha  occ. eigenvalues --  -19.72902  -1.15742  -0.62132  -0.46944  -0.39940
 Alpha virt. eigenvalues --    0.04657   0.10209   0.27425   0.30406   0.31400
 Alpha virt. eigenvalues --    0.35631   0.44135   0.50944   0.55860   0.63189
 Alpha virt. eigenvalues --    0.65414   0.81084   0.93717   0.95907   1.04926

 Mulliken charges:
               1
     1  O   -0.445074
     2  H    0.226280
     3  H    0.218795
 Sum of Mulliken charges =   0.00000

 Dipole moment (field-independent basis, Debye):
    X=             -0.0075    Y=             -1.9072    Z=              0.0000  Tot=              1.9072
 Quadrupole moment (field-independent basis, Debye-Ang):
   XX=             -4.2166   YY=             -6.4137   ZZ=             -7.5858
   XY=             -0.0464   XZ=              0.0000   YZ=              0.0000

 1\1\GINC-NODE26\SP\RB2PLYPD3-FC\def2QZVP\H2O1\BOITTIER\26-Aug-2020\0\\
 #p B2PLYPD3/Def2QZVP\\h2o\\0,1\O,0,-5.326605,-0.761814,0.910129\H,0,-4
 .368927,-0.764983,0.986302\H,0,-5.609308,0.13805,0.856334\\Version=ES6
 4L-G09RevD.01\State=1-A'\HF=-76.3350379\MP2=-76.4247529\RMSD=4.058e-09
 \PG=CS [SG(H2O1)]\\@

                                                                                    A

 Normal termination of Gaussian 09 at Wed Aug 26 08:36:27 2020.
