 Gaussian 09, Revision D.01,
 Gaussian 09:  ES64L-G09RevD.01 24-Apr-2013

 --------------------
 #p B2PLYPD3/Def2QZVP
 --------------------

 ---
 h2o
 ---
 Symbolic Z-matrix:
 Charge =  0 Multiplicity = 1

                         Standard orientation:
 ---------------------------------------------------------------------
 Center     Atomic      Atomic             Coordinates (Angstroms)
 Number     Number       Type             X           Y           Z
 ---------------------------------------------------------------------
      1          8           0        0.000000    0.121218    0.000000
      2          1           0        0.759366   -0.469670    0.000000
      3          1           0       -0.759366   -0.500075    0.000000
 ---------------------------------------------------------------------

 SCF Done:  E(RB2PLYPD3) =  -76.3341223338     A.U. after   10 cycles
 E2(B2PLYPD3) =    -0.9048109488D-01 E(B2PLYPD3) =    -0.76424603428678D+02

 The electronic state is 1-A'.
 Alpha  occ. eigenvalues --  -19.73410  -1.15211  -0.60355  -0.47637  -0.39904
 Alpha virt. eigenvalues --    0.04352   0.10115   0.27630   0.30436   0.30526
 Alpha virt. eigenvalues --    0.35634   0.43635   0.49813   0.56371   0.61544
 Alpha virt. eigenvalues --    0.65990   0.80934   0.93617   0.96167   1.02540

 Mulliken charges:
               1
     1  O   -0.448621
     2  H    0.220430
     3  H    0.228191
 Sum of Mulliken charges =   0.00000

 Dipole moment (field-independent basis, Debye):
    X=              0.0101    Y=             -1.9982    Z=              0.0000  Tot=              1.9983
 Quadrupole moment (field-independent basis, Debye-Ang):
   XX=             -4.3906   YY=             -6.2774   ZZ=             -7.6194
   XY=              0.0489   XZ=              0.0000   YZ=              0.0000

 1\1\GINC-NODE38\SP\RB2PLYPD3-FC\def2QZVP\H2O1\BOITTIER\26-Aug-2020\0\\
 #p B2PLYPD3/Def2QZVP\\h2o\\0,1\O,0,-5.326605,-0.764853,0.929805\H,0,-4
 .368927,-0.719545,0.84865\H,0,-5.609308,0.141232,0.681349\\Version=ES6
 4L-G09RevD.01\State=1-A'\HF=-76.3341223\MP2=-76.4246034\RMSD=4.279e-09
 \PG=CS [SG(H2O1)]\\@

 WHEN A MATHEMATICIAN ENGAGED IN INVESTIGATING

 Normal termination of Gaussian 09 at Wed Aug 26 09:26:11 2020.
