 Gaussian 09, Revision D.01,
 Gaussian 09:  ES64L-G09RevD.01 24-Apr-2013

 --------------------
 #p B2PLYPD3/Def2QZVP
 --------------------

 ---
 h2o
 ---
 Symbolic Z-matrix:
 Charge =  0 Multiplicity = 1

                         Standard orientation:
 ---------------------------------------------------------------------
 Center     Atomic      Atomic             Coordinates (Angstroms)
 Number     Number       Type             X           Y           Z
 ---------------------------------------------------------------------
      1          8           0        0.000000    0.123788    0.000000
      2          1           0        0.718891   -0.527680    0.000000
      3          1           0       -0.718891   -0.462620    0.000000
 ---------------------------------------------------------------------

 SCF Done:  E(RB2PLYPD3) =  -76.3330240111     A.U. after   10 cycles
 E2(B2PLYPD3) =    -0.8988152711D-01 E(B2PLYPD3) =    -0.76422905538202D+02

 The electronic state is 1-A'.
 Alpha  occ. eigenvalues --  -19.73200  -1.16652  -0.60546  -0.48750  -0.40197
 Alpha virt. eigenvalues --    0.04485   0.10415   0.27537   0.30368   0.30576
 Alpha virt. eigenvalues --    0.37230   0.44351   0.49446   0.57279   0.60568
 Alpha virt. eigenvalues --    0.65452   0.81530   0.94721   0.95680   1.03427

 Mulliken charges:
               1
     1  O   -0.421931
     2  H    0.220802
     3  H    0.201129
 Sum of Mulliken charges =   0.00000

 Dipole moment (field-independent basis, Debye):
    X=             -0.0243    Y=             -2.0447    Z=              0.0000  Tot=              2.0448
 Quadrupole moment (field-independent basis, Debye-Ang):
   XX=             -4.6174   YY=             -6.1387   ZZ=             -7.5605
   XY=             -0.0965   XZ=              0.0000   YZ=              0.0000

 1\1\GINC-NODE20\SP\RB2PLYPD3-FC\def2QZVP\H2O1\BOITTIER\26-Aug-2020\0\\
 #p B2PLYPD3/Def2QZVP\\h2o\\0,1\O,0,-5.326605,-0.767996,0.925047\H,0,-4
 .368927,-0.614185,0.904798\H,0,-5.609308,0.086172,0.698873\\Version=ES
 64L-G09RevD.01\State=1-A'\HF=-76.333024\MP2=-76.4229055\RMSD=5.539e-09
 \PG=CS [SG(H2O1)]\\@

 BE LIKE A POSTAGE STAMP.  STICK TO ONE THING UNTIL

 Normal termination of Gaussian 09 at Wed Aug 26 09:08:29 2020.
