 Gaussian 09, Revision D.01,
 Gaussian 09:  ES64L-G09RevD.01 24-Apr-2013

 --------------------
 #p B2PLYPD3/Def2QZVP
 --------------------

 ---
 h2o
 ---
 Symbolic Z-matrix:
 Charge =  0 Multiplicity = 1

                         Standard orientation:
 ---------------------------------------------------------------------
 Center     Atomic      Atomic             Coordinates (Angstroms)
 Number     Number       Type             X           Y           Z
 ---------------------------------------------------------------------
      1          8           0        0.000000    0.119670    0.000000
      2          1           0        0.783031   -0.433225    0.000000
      3          1           0       -0.783031   -0.524137    0.000000
 ---------------------------------------------------------------------

 SCF Done:  E(RB2PLYPD3) =  -76.3316007812     A.U. after   10 cycles
 E2(B2PLYPD3) =    -0.9088373476D-01 E(B2PLYPD3) =    -0.76422484515925D+02

 The electronic state is 1-A'.
 Alpha  occ. eigenvalues --  -19.73513  -1.14439  -0.60176  -0.46957  -0.39727
 Alpha virt. eigenvalues --    0.04191   0.09933   0.27655   0.30267   0.30478
 Alpha virt. eigenvalues --    0.34742   0.43309   0.50136   0.55779   0.62178
 Alpha virt. eigenvalues --    0.66251   0.80358   0.92635   0.96493   1.01824

 Mulliken charges:
               1
     1  O   -0.462842
     2  H    0.220890
     3  H    0.241952
 Sum of Mulliken charges =   0.00000

 Dipole moment (field-independent basis, Debye):
    X=              0.0276    Y=             -1.9690    Z=              0.0000  Tot=              1.9692
 Quadrupole moment (field-independent basis, Debye-Ang):
   XX=             -4.2520   YY=             -6.3523   ZZ=             -7.6560
   XY=              0.1530   XZ=              0.0000   YZ=              0.0000

 1\1\GINC-NODE39\SP\RB2PLYPD3-FC\def2QZVP\H2O1\BOITTIER\26-Aug-2020\0\\
 #p B2PLYPD3/Def2QZVP\\h2o\\0,1\O,0,-5.326605,-0.766518,0.917892\H,0,-4
 .368927,-0.746742,0.953835\H,0,-5.609308,0.195072,0.766076\\Version=ES
 64L-G09RevD.01\State=1-A'\HF=-76.3316008\MP2=-76.4224845\RMSD=5.105e-0
 9\PG=CS [SG(H2O1)]\\@

 READER, WHETHER YOU BE DILETTANTE OR PROFESSOR ... SHOW YOURSELF TO BE

 Normal termination of Gaussian 09 at Wed Aug 26 11:59:43 2020.
