 Gaussian 09, Revision D.01,
 Gaussian 09:  ES64L-G09RevD.01 24-Apr-2013

 --------------------
 #p B2PLYPD3/Def2QZVP
 --------------------

 ---
 h2o
 ---
 Symbolic Z-matrix:
 Charge =  0 Multiplicity = 1

                         Standard orientation:
 ---------------------------------------------------------------------
 Center     Atomic      Atomic             Coordinates (Angstroms)
 Number     Number       Type             X           Y           Z
 ---------------------------------------------------------------------
      1          8           0        0.000000    0.126971    0.000000
      2          1           0        0.744171   -0.490810    0.000000
      3          1           0       -0.744171   -0.524962    0.000000
 ---------------------------------------------------------------------

 SCF Done:  E(RB2PLYPD3) =  -76.3327746698     A.U. after   10 cycles
 E2(B2PLYPD3) =    -0.9084598643D-01 E(B2PLYPD3) =    -0.76423620656254D+02

 The electronic state is 1-A'.
 Alpha  occ. eigenvalues --  -19.73665  -1.15180  -0.59363  -0.48265  -0.39944
 Alpha virt. eigenvalues --    0.04196   0.10109   0.27746   0.30034   0.30436
 Alpha virt. eigenvalues --    0.35854   0.43481   0.49198   0.56861   0.60436
 Alpha virt. eigenvalues --    0.66210   0.80929   0.93910   0.96280   1.01494

 Mulliken charges:
               1
     1  O   -0.445111
     2  H    0.218274
     3  H    0.226837
 Sum of Mulliken charges =   0.00000

 Dipole moment (field-independent basis, Debye):
    X=              0.0127    Y=             -2.0592    Z=              0.0000  Tot=              2.0592
 Quadrupole moment (field-independent basis, Debye-Ang):
   XX=             -4.5452   YY=             -6.1659   ZZ=             -7.6276
   XY=              0.0519   XZ=              0.0000   YZ=              0.0000

 1\1\GINC-NODE26\SP\RB2PLYPD3-FC\def2QZVP\H2O1\BOITTIER\26-Aug-2020\0\\
 #p B2PLYPD3/Def2QZVP\\h2o\\0,1\O,0,-5.326605,-0.767983,0.932337\H,0,-4
 .368927,-0.66269,0.847429\H,0,-5.609308,0.134458,0.641673\\Version=ES6
 4L-G09RevD.01\State=1-A'\HF=-76.3327747\MP2=-76.4236207\RMSD=4.623e-09
 \PG=CS [SG(H2O1)]\\@

 HIGGLEDY-PIGGLEDY

 Normal termination of Gaussian 09 at Wed Aug 26 09:18:18 2020.
