 Gaussian 09, Revision D.01,
 Gaussian 09:  ES64L-G09RevD.01 24-Apr-2013

 --------------------
 #p B2PLYPD3/Def2QZVP
 --------------------

 ---
 h2o
 ---
 Symbolic Z-matrix:
 Charge =  0 Multiplicity = 1

                         Standard orientation:
 ---------------------------------------------------------------------
 Center     Atomic      Atomic             Coordinates (Angstroms)
 Number     Number       Type             X           Y           Z
 ---------------------------------------------------------------------
      1          8           0        0.000000    0.111034    0.000000
      2          1           0        0.801995   -0.417513    0.000000
      3          1           0       -0.801995   -0.470760    0.000000
 ---------------------------------------------------------------------

 SCF Done:  E(RB2PLYPD3) =  -76.3328027956     A.U. after   10 cycles
 E2(B2PLYPD3) =    -0.9039743571D-01 E(B2PLYPD3) =    -0.76423200231282D+02

 The electronic state is 1-A'.
 Alpha  occ. eigenvalues --  -19.73127  -1.14508  -0.61543  -0.46112  -0.39670
 Alpha virt. eigenvalues --    0.04417   0.09948   0.27498   0.30476   0.31196
 Alpha virt. eigenvalues --    0.34208   0.43494   0.51420   0.55156   0.63879
 Alpha virt. eigenvalues --    0.65948   0.80075   0.92800   0.96509   1.03637

 Mulliken charges:
               1
     1  O   -0.469860
     2  H    0.228596
     3  H    0.241264
 Sum of Mulliken charges =   0.00000

 Dipole moment (field-independent basis, Debye):
    X=              0.0132    Y=             -1.8756    Z=              0.0000  Tot=              1.8756
 Quadrupole moment (field-independent basis, Debye-Ang):
   XX=             -4.0378   YY=             -6.5114   ZZ=             -7.6443
   XY=              0.0962   XZ=              0.0000   YZ=              0.0000

 1\1\GINC-NODE03\SP\RB2PLYPD3-FC\def2QZVP\H2O1\BOITTIER\26-Aug-2020\0\\
 #p B2PLYPD3/Def2QZVP\\h2o\\0,1\O,0,-5.326605,-0.76089,0.914381\H,0,-4.
 368927,-0.826573,0.94751\H,0,-5.609308,0.184864,0.828888\\Version=ES64
 L-G09RevD.01\State=1-A'\HF=-76.3328028\MP2=-76.4232002\RMSD=4.317e-09\
 PG=CS [SG(H2O1)]\\@

 ALL MY ATTEMPTS TO ADAPT THE THEORETICAL FOUNDATIONS OF PHYSICS

 Normal termination of Gaussian 09 at Wed Aug 26 09:05:48 2020.
