 Gaussian 09, Revision D.01,
 Gaussian 09:  ES64L-G09RevD.01 24-Apr-2013

 --------------------
 #p B2PLYPD3/Def2QZVP
 --------------------

 ---
 h2o
 ---
 Symbolic Z-matrix:
 Charge =  0 Multiplicity = 1

                         Standard orientation:
 ---------------------------------------------------------------------
 Center     Atomic      Atomic             Coordinates (Angstroms)
 Number     Number       Type             X           Y           Z
 ---------------------------------------------------------------------
      1          8           0        0.000000    0.117473    0.000000
      2          1           0        0.770256   -0.455404    0.000000
      3          1           0       -0.770256   -0.484380    0.000000
 ---------------------------------------------------------------------

 SCF Done:  E(RB2PLYPD3) =  -76.3344725953     A.U. after   10 cycles
 E2(B2PLYPD3) =    -0.9030245294D-01 E(B2PLYPD3) =    -0.76424775048203D+02

 The electronic state is 1-A'.
 Alpha  occ. eigenvalues --  -19.73258  -1.15167  -0.60950  -0.47195  -0.39865
 Alpha virt. eigenvalues --    0.04433   0.10101   0.27564   0.30439   0.30837
 Alpha virt. eigenvalues --    0.35361   0.43700   0.50301   0.56026   0.62312
 Alpha virt. eigenvalues --    0.65863   0.80849   0.93439   0.96151   1.03237

 Mulliken charges:
               1
     1  O   -0.452167
     2  H    0.222378
     3  H    0.229789
 Sum of Mulliken charges =   0.00000

 Dipole moment (field-independent basis, Debye):
    X=              0.0088    Y=             -1.9569    Z=              0.0000  Tot=              1.9569
 Quadrupole moment (field-independent basis, Debye-Ang):
   XX=             -4.2853   YY=             -6.3519   ZZ=             -7.6175
   XY=              0.0484   XZ=              0.0000   YZ=              0.0000

 1\1\GINC-NODE37\SP\RB2PLYPD3-FC\def2QZVP\H2O1\BOITTIER\26-Aug-2020\0\\
 #p B2PLYPD3/Def2QZVP\\h2o\\0,1\O,0,-5.326605,-0.765318,0.914568\H,0,-4
 .368927,-0.734193,0.972583\H,0,-5.609308,0.163323,0.799566\\Version=ES
 64L-G09RevD.01\State=1-A'\HF=-76.3344726\MP2=-76.424775\RMSD=4.086e-09
 \PG=CS [SG(H2O1)]\\@

 The earth never tires,

 Normal termination of Gaussian 09 at Wed Aug 26 12:23:57 2020.
