 Gaussian 09, Revision D.01,
 Gaussian 09:  ES64L-G09RevD.01 24-Apr-2013

 --------------------
 #p B2PLYPD3/Def2QZVP
 --------------------

 ---
 h2o
 ---
 Symbolic Z-matrix:
 Charge =  0 Multiplicity = 1

                         Standard orientation:
 ---------------------------------------------------------------------
 Center     Atomic      Atomic             Coordinates (Angstroms)
 Number     Number       Type             X           Y           Z
 ---------------------------------------------------------------------
      1          8           0        0.000000    0.117504    0.000000
      2          1           0        0.760193   -0.467226    0.000000
      3          1           0       -0.760193   -0.472809    0.000000
 ---------------------------------------------------------------------

 SCF Done:  E(RB2PLYPD3) =  -76.3350500459     A.U. after   10 cycles
 E2(B2PLYPD3) =    -0.9006294670D-01 E(B2PLYPD3) =    -0.76425112992634D+02

 The electronic state is 1-A'.
 Alpha  occ. eigenvalues --  -19.73166  -1.15584  -0.61173  -0.47445  -0.39950
 Alpha virt. eigenvalues --    0.04513   0.10190   0.27529   0.30417   0.30944
 Alpha virt. eigenvalues --    0.35824   0.43916   0.50230   0.56243   0.62152
 Alpha virt. eigenvalues --    0.65685   0.81108   0.93782   0.95973   1.03701

 Mulliken charges:
               1
     1  O   -0.444629
     2  H    0.221563
     3  H    0.223066
 Sum of Mulliken charges =   0.00000

 Dipole moment (field-independent basis, Debye):
    X=              0.0017    Y=             -1.9633    Z=              0.0000  Tot=              1.9633
 Quadrupole moment (field-independent basis, Debye-Ang):
   XX=             -4.3350   YY=             -6.3259   ZZ=             -7.5981
   XY=              0.0092   XZ=              0.0000   YZ=              0.0000

 1\1\GINC-NODE20\SP\RB2PLYPD3-FC\def2QZVP\H2O1\BOITTIER\26-Aug-2020\0\\
 #p B2PLYPD3/Def2QZVP\\h2o\\0,1\O,0,-5.326605,-0.765005,0.918154\H,0,-4
 .368927,-0.719338,0.942017\H,0,-5.609308,0.143469,0.77284\\Version=ES6
 4L-G09RevD.01\State=1-A'\HF=-76.33505\MP2=-76.425113\RMSD=4.051e-09\PG
 =CS [SG(H2O1)]\\@

      HUMANKIND PERIODICALLY GOES THROUGH A SPEEDUP OF ITS AFFAIRS,

 Normal termination of Gaussian 09 at Wed Aug 26 11:31:30 2020.
