 Gaussian 09, Revision D.01,
 Gaussian 09:  ES64L-G09RevD.01 24-Apr-2013

 --------------------
 #p B2PLYPD3/Def2QZVP
 --------------------

 ---
 h2o
 ---
 Symbolic Z-matrix:
 Charge =  0 Multiplicity = 1

                         Standard orientation:
 ---------------------------------------------------------------------
 Center     Atomic      Atomic             Coordinates (Angstroms)
 Number     Number       Type             X           Y           Z
 ---------------------------------------------------------------------
      1          8           0        0.000000    0.115095    0.000000
      2          1           0        0.772272   -0.451284    0.000000
      3          1           0       -0.772272   -0.469474    0.000000
 ---------------------------------------------------------------------

 SCF Done:  E(RB2PLYPD3) =  -76.3348545257     A.U. after   10 cycles
 E2(B2PLYPD3) =    -0.9008301384D-01 E(B2PLYPD3) =    -0.76424937539489D+02

 The electronic state is 1-A'.
 Alpha  occ. eigenvalues --  -19.73118  -1.15333  -0.61432  -0.47032  -0.39880
 Alpha virt. eigenvalues --    0.04521   0.10133   0.27509   0.30430   0.31089
 Alpha virt. eigenvalues --    0.35385   0.43842   0.50604   0.55910   0.62737
 Alpha virt. eigenvalues --    0.65699   0.80901   0.93513   0.96074   1.03939

 Mulliken charges:
               1
     1  O   -0.450916
     2  H    0.223073
     3  H    0.227842
 Sum of Mulliken charges =   0.00000

 Dipole moment (field-independent basis, Debye):
    X=              0.0053    Y=             -1.9332    Z=              0.0000  Tot=              1.9332
 Quadrupole moment (field-independent basis, Debye-Ang):
   XX=             -4.2427   YY=             -6.3865   ZZ=             -7.6074
   XY=              0.0308   XZ=              0.0000   YZ=              0.0000

 1\1\GINC-NODE31\SP\RB2PLYPD3-FC\def2QZVP\H2O1\BOITTIER\26-Aug-2020\0\\
 #p B2PLYPD3/Def2QZVP\\h2o\\0,1\O,0,-5.326605,-0.763172,0.919415\H,0,-4
 .368927,-0.756992,0.921017\H,0,-5.609308,0.151794,0.77436\\Version=ES6
 4L-G09RevD.01\State=1-A'\HF=-76.3348545\MP2=-76.4249375\RMSD=3.932e-09
 \PG=CS [SG(H2O1)]\\@

 PICNIC:  A SNACK IN THE GRASS.

 Normal termination of Gaussian 09 at Wed Aug 26 09:49:47 2020.
