 Gaussian 09, Revision D.01,
 Gaussian 09:  ES64L-G09RevD.01 24-Apr-2013

 --------------------
 #p B2PLYPD3/Def2QZVP
 --------------------

 ---
 h2o
 ---
 Symbolic Z-matrix:
 Charge =  0 Multiplicity = 1

                         Standard orientation:
 ---------------------------------------------------------------------
 Center     Atomic      Atomic             Coordinates (Angstroms)
 Number     Number       Type             X           Y           Z
 ---------------------------------------------------------------------
      1          8           0        0.000000    0.124712    0.000000
      2          1           0        0.747504   -0.486752    0.000000
      3          1           0       -0.747504   -0.510941    0.000000
 ---------------------------------------------------------------------

 SCF Done:  E(RB2PLYPD3) =  -76.3336165656     A.U. after   10 cycles
 E2(B2PLYPD3) =    -0.9063341295D-01 E(B2PLYPD3) =    -0.76424249978596D+02

 The electronic state is 1-A'.
 Alpha  occ. eigenvalues --  -19.73540  -1.15303  -0.59808  -0.48088  -0.39951
 Alpha virt. eigenvalues --    0.04281   0.10137   0.27690   0.30266   0.30431
 Alpha virt. eigenvalues --    0.35902   0.43594   0.49413   0.56731   0.60822
 Alpha virt. eigenvalues --    0.66080   0.80998   0.93900   0.96185   1.02006

 Mulliken charges:
               1
     1  O   -0.444659
     2  H    0.219231
     3  H    0.225428
 Sum of Mulliken charges =   0.00000

 Dipole moment (field-independent basis, Debye):
    X=              0.0086    Y=             -2.0371    Z=              0.0000  Tot=              2.0371
 Quadrupole moment (field-independent basis, Debye-Ang):
   XX=             -4.4970   YY=             -6.2034   ZZ=             -7.6191
   XY=              0.0375   XZ=              0.0000   YZ=              0.0000

 1\1\GINC-NODE36\SP\RB2PLYPD3-FC\def2QZVP\H2O1\BOITTIER\26-Aug-2020\0\\
 #p B2PLYPD3/Def2QZVP\\h2o\\0,1\O,0,-5.326605,-0.766467,0.932151\H,0,-4
 .368927,-0.68308,0.83969\H,0,-5.609308,0.130596,0.652555\\Version=ES64
 L-G09RevD.01\State=1-A'\HF=-76.3336166\MP2=-76.42425\RMSD=4.461e-09\PG
 =CS [SG(H2O1)]\\@

 THE HURRIEDER I GO, THE BEHINDER I GET.

 Normal termination of Gaussian 09 at Wed Aug 26 09:07:53 2020.
