 Gaussian 09, Revision D.01,
 Gaussian 09:  ES64L-G09RevD.01 24-Apr-2013

 --------------------
 #p B2PLYPD3/Def2QZVP
 --------------------

 ---
 h2o
 ---
 Symbolic Z-matrix:
 Charge =  0 Multiplicity = 1

                         Standard orientation:
 ---------------------------------------------------------------------
 Center     Atomic      Atomic             Coordinates (Angstroms)
 Number     Number       Type             X           Y           Z
 ---------------------------------------------------------------------
      1          8           0        0.000000    0.113266    0.000000
      2          1           0        0.717944   -0.527125    0.000000
      3          1           0       -0.717944   -0.379003    0.000000
 ---------------------------------------------------------------------

 SCF Done:  E(RB2PLYPD3) =  -76.3270618356     A.U. after   10 cycles
 E2(B2PLYPD3) =    -0.8866094812D-01 E(B2PLYPD3) =    -0.76415722783669D+02

 The electronic state is 1-A'.
 Alpha  occ. eigenvalues --  -19.72413  -1.18070  -0.63122  -0.48167  -0.40378
 Alpha virt. eigenvalues --    0.04872   0.10609   0.27177   0.30295   0.31348
 Alpha virt. eigenvalues --    0.37875   0.45523   0.50494   0.56800   0.62307
 Alpha virt. eigenvalues --    0.64525   0.82093   0.94238   0.95371   1.05419

 Mulliken charges:
               1
     1  O   -0.395384
     2  H    0.224353
     3  H    0.171030
 Sum of Mulliken charges =   0.00000

 Dipole moment (field-independent basis, Debye):
    X=             -0.0477    Y=             -1.9447    Z=              0.0000  Tot=              1.9453
 Quadrupole moment (field-independent basis, Debye-Ang):
   XX=             -4.4745   YY=             -6.2486   ZZ=             -7.4914
   XY=             -0.2330   XZ=              0.0000   YZ=              0.0000

 1\1\GINC-NODE20\SP\RB2PLYPD3-FC\def2QZVP\H2O1\BOITTIER\26-Aug-2020\0\\
 #p B2PLYPD3/Def2QZVP\\h2o\\0,1\O,0,-5.326605,-0.761037,0.923553\H,0,-4
 .368927,-0.683913,0.874064\H,0,-5.609308,0.044556,0.753637\\Version=ES
 64L-G09RevD.01\State=1-A'\HF=-76.3270618\MP2=-76.4157228\RMSD=6.767e-0
 9\PG=CS [SG(H2O1)]\\@

 MANHOOD BEGINS BY TRYING TO SHAVE FACE,

 Normal termination of Gaussian 09 at Wed Aug 26 09:11:30 2020.
