 Gaussian 09, Revision D.01,
 Gaussian 09:  ES64L-G09RevD.01 24-Apr-2013

 --------------------
 #p B2PLYPD3/Def2QZVP
 --------------------

 ---
 h2o
 ---
 Symbolic Z-matrix:
 Charge =  0 Multiplicity = 1

                         Standard orientation:
 ---------------------------------------------------------------------
 Center     Atomic      Atomic             Coordinates (Angstroms)
 Number     Number       Type             X           Y           Z
 ---------------------------------------------------------------------
      1          8           0        0.000000    0.115509    0.000000
      2          1           0        0.771134   -0.452537    0.000000
      3          1           0       -0.771134   -0.471533    0.000000
 ---------------------------------------------------------------------

 SCF Done:  E(RB2PLYPD3) =  -76.3348485632     A.U. after   10 cycles
 E2(B2PLYPD3) =    -0.9010134054D-01 E(B2PLYPD3) =    -0.76424949903757D+02

 The electronic state is 1-A'.
 Alpha  occ. eigenvalues --  -19.73135  -1.15338  -0.61367  -0.47080  -0.39884
 Alpha virt. eigenvalues --    0.04512   0.10134   0.27515   0.30429   0.31054
 Alpha virt. eigenvalues --    0.35418   0.43835   0.50544   0.55947   0.62651
 Alpha virt. eigenvalues --    0.65713   0.80915   0.93526   0.96072   1.03852

 Mulliken charges:
               1
     1  O   -0.450530
     2  H    0.222775
     3  H    0.227755
 Sum of Mulliken charges =   0.00000

 Dipole moment (field-independent basis, Debye):
    X=              0.0056    Y=             -1.9378    Z=              0.0000  Tot=              1.9378
 Quadrupole moment (field-independent basis, Debye-Ang):
   XX=             -4.2540   YY=             -6.3785   ZZ=             -7.6076
   XY=              0.0321   XZ=              0.0000   YZ=              0.0000

 1\1\GINC-NODE32\SP\RB2PLYPD3-FC\def2QZVP\H2O1\BOITTIER\26-Aug-2020\0\\
 #p B2PLYPD3/Def2QZVP\\h2o\\0,1\O,0,-5.326605,-0.76351,0.919074\H,0,-4.
 368927,-0.752021,0.925765\H,0,-5.609308,0.152228,0.774958\\Version=ES6
 4L-G09RevD.01\State=1-A'\HF=-76.3348486\MP2=-76.4249499\RMSD=3.956e-09
 \PG=CS [SG(H2O1)]\\@

 MY DESCRIPTION OF EXPERIENCE IS NOT WHAT HAPPENS

 Normal termination of Gaussian 09 at Wed Aug 26 10:12:53 2020.
