 Gaussian 09, Revision D.01,
 Gaussian 09:  ES64L-G09RevD.01 24-Apr-2013

 --------------------
 #p B2PLYPD3/Def2QZVP
 --------------------

 ---
 h2o
 ---
 Symbolic Z-matrix:
 Charge =  0 Multiplicity = 1

                         Standard orientation:
 ---------------------------------------------------------------------
 Center     Atomic      Atomic             Coordinates (Angstroms)
 Number     Number       Type             X           Y           Z
 ---------------------------------------------------------------------
      1          8           0        0.000000    0.114800    0.000000
      2          1           0        0.751648   -0.479944    0.000000
      3          1           0       -0.751648   -0.438459    0.000000
 ---------------------------------------------------------------------

 SCF Done:  E(RB2PLYPD3) =  -76.3349206249     A.U. after   10 cycles
 E2(B2PLYPD3) =    -0.8955926890D-01 E(B2PLYPD3) =    -0.76424479893776D+02

 The electronic state is 1-A'.
 Alpha  occ. eigenvalues --  -19.72895  -1.16262  -0.61991  -0.47511  -0.40063
 Alpha virt. eigenvalues --    0.04682   0.10317   0.27417   0.30381   0.31263
 Alpha virt. eigenvalues --    0.36377   0.44360   0.50492   0.56315   0.62481
 Alpha virt. eigenvalues --    0.65290   0.81437   0.94088   0.95691   1.04816

 Mulliken charges:
               1
     1  O   -0.433462
     2  H    0.222814
     3  H    0.210647
 Sum of Mulliken charges =   0.00000

 Dipole moment (field-independent basis, Debye):
    X=             -0.0126    Y=             -1.9424    Z=              0.0000  Tot=              1.9424
 Quadrupole moment (field-independent basis, Debye-Ang):
   XX=             -4.3391   YY=             -6.3348   ZZ=             -7.5651
   XY=             -0.0682   XZ=              0.0000   YZ=              0.0000

 1\1\GINC-NODE07\SP\RB2PLYPD3-FC\def2QZVP\H2O1\BOITTIER\26-Aug-2020\0\\
 #p B2PLYPD3/Def2QZVP\\h2o\\0,1\O,0,-5.326605,-0.762783,0.920484\H,0,-4
 .368927,-0.724926,0.909745\H,0,-5.609308,0.113493,0.767875\\Version=ES
 64L-G09RevD.01\State=1-A'\HF=-76.3349206\MP2=-76.4244799\RMSD=4.538e-0
 9\PG=CS [SG(H2O1)]\\@

 TELEVISION IS CALLED A MEDIUM BECAUSE IT ISN'T

 Normal termination of Gaussian 09 at Wed Aug 26 09:44:36 2020.
