 Gaussian 09, Revision D.01,
 Gaussian 09:  ES64L-G09RevD.01 24-Apr-2013

 --------------------
 #p B2PLYPD3/Def2QZVP
 --------------------

 ---
 h2o
 ---
 Symbolic Z-matrix:
 Charge =  0 Multiplicity = 1

                         Standard orientation:
 ---------------------------------------------------------------------
 Center     Atomic      Atomic             Coordinates (Angstroms)
 Number     Number       Type             X           Y           Z
 ---------------------------------------------------------------------
      1          8           0        0.000000    0.118750    0.000000
      2          1           0        0.744978   -0.487769    0.000000
      3          1           0       -0.744978   -0.462235    0.000000
 ---------------------------------------------------------------------

 SCF Done:  E(RB2PLYPD3) =  -76.3349667998     A.U. after   10 cycles
 E2(B2PLYPD3) =    -0.8985155928D-01 E(B2PLYPD3) =    -0.76424818359081D+02

 The electronic state is 1-A'.
 Alpha  occ. eigenvalues --  -19.73104  -1.16100  -0.61221  -0.47878  -0.40061
 Alpha virt. eigenvalues --    0.04564   0.10297   0.27502   0.30391   0.30933
 Alpha virt. eigenvalues --    0.36460   0.44162   0.50007   0.56598   0.61721
 Alpha virt. eigenvalues --    0.65515   0.81384   0.94185   0.95781   1.03928

 Mulliken charges:
               1
     1  O   -0.434475
     2  H    0.220890
     3  H    0.213586
 Sum of Mulliken charges =   0.00000

 Dipole moment (field-independent basis, Debye):
    X=             -0.0084    Y=             -1.9838    Z=              0.0000  Tot=              1.9838
 Quadrupole moment (field-independent basis, Debye-Ang):
   XX=             -4.4253   YY=             -6.2705   ZZ=             -7.5765
   XY=             -0.0407   XZ=              0.0000   YZ=              0.0000

 1\1\GINC-NODE39\SP\RB2PLYPD3-FC\def2QZVP\H2O1\BOITTIER\26-Aug-2020\0\\
 #p B2PLYPD3/Def2QZVP\\h2o\\0,1\O,0,-5.326605,-0.765127,0.922519\H,0,-4
 .368927,-0.690992,0.907826\H,0,-5.609308,0.117062,0.73716\\Version=ES6
 4L-G09RevD.01\State=1-A'\HF=-76.3349668\MP2=-76.4248184\RMSD=4.440e-09
 \PG=CS [SG(H2O1)]\\@

 Human beings, who are almost unique in having the

 Normal termination of Gaussian 09 at Wed Aug 26 10:41:36 2020.
