 Gaussian 09, Revision D.01,
 Gaussian 09:  ES64L-G09RevD.01 24-Apr-2013

 --------------------
 #p B2PLYPD3/Def2QZVP
 --------------------

 ---
 h2o
 ---
 Symbolic Z-matrix:
 Charge =  0 Multiplicity = 1

                         Standard orientation:
 ---------------------------------------------------------------------
 Center     Atomic      Atomic             Coordinates (Angstroms)
 Number     Number       Type             X           Y           Z
 ---------------------------------------------------------------------
      1          8           0        0.000000    0.116757    0.000000
      2          1           0        0.765482   -0.466028    0.000000
      3          1           0       -0.765482   -0.468026    0.000000
 ---------------------------------------------------------------------

 SCF Done:  E(RB2PLYPD3) =  -76.3349799391     A.U. after   10 cycles
 E2(B2PLYPD3) =    -0.9010410905D-01 E(B2PLYPD3) =    -0.76425084048116D+02

 The electronic state is 1-A'.
 Alpha  occ. eigenvalues --  -19.73166  -1.15442  -0.61221  -0.47280  -0.39915
 Alpha virt. eigenvalues --    0.04505   0.10159   0.27528   0.30424   0.30978
 Alpha virt. eigenvalues --    0.35617   0.43858   0.50352   0.56108   0.62355
 Alpha virt. eigenvalues --    0.65717   0.81011   0.93652   0.96027   1.03718

 Mulliken charges:
               1
     1  O   -0.447748
     2  H    0.223609
     3  H    0.224139
 Sum of Mulliken charges =   0.00000

 Dipole moment (field-independent basis, Debye):
    X=              0.0006    Y=             -1.9531    Z=              0.0000  Tot=              1.9531
 Quadrupole moment (field-independent basis, Debye-Ang):
   XX=             -4.2989   YY=             -6.3488   ZZ=             -7.6039
   XY=              0.0033   XZ=              0.0000   YZ=              0.0000

 1\1\GINC-NODE28\SP\RB2PLYPD3-FC\def2QZVP\H2O1\BOITTIER\26-Aug-2020\0\\
 #p B2PLYPD3/Def2QZVP\\h2o\\0,1\O,0,-5.326605,-0.764925,0.911292\H,0,-4
 .368927,-0.729324,0.996061\H,0,-5.609308,0.152165,0.827873\\Version=ES
 64L-G09RevD.01\State=1-A'\HF=-76.3349799\MP2=-76.425084\RMSD=3.959e-09
 \PG=CS [SG(H2O1)]\\@

 If your ship doesn't come in, swim out to it!

 Normal termination of Gaussian 09 at Wed Aug 26 08:43:11 2020.
