 Gaussian 09, Revision D.01,
 Gaussian 09:  ES64L-G09RevD.01 24-Apr-2013

 --------------------
 #p B2PLYPD3/Def2QZVP
 --------------------

 ---
 h2o
 ---
 Symbolic Z-matrix:
 Charge =  0 Multiplicity = 1

                         Standard orientation:
 ---------------------------------------------------------------------
 Center     Atomic      Atomic             Coordinates (Angstroms)
 Number     Number       Type             X           Y           Z
 ---------------------------------------------------------------------
      1          8           0        0.000000    0.115548    0.000000
      2          1           0        0.742255   -0.493630    0.000000
      3          1           0       -0.742255   -0.430757    0.000000
 ---------------------------------------------------------------------

 SCF Done:  E(RB2PLYPD3) =  -76.3342274222     A.U. after   10 cycles
 E2(B2PLYPD3) =    -0.8942805915D-01 E(B2PLYPD3) =    -0.76423655481322D+02

 The electronic state is 1-A'.
 Alpha  occ. eigenvalues --  -19.72850  -1.16603  -0.62031  -0.47770  -0.40133
 Alpha virt. eigenvalues --    0.04704   0.10382   0.27393   0.30365   0.31220
 Alpha virt. eigenvalues --    0.36775   0.44541   0.50349   0.56520   0.62222
 Alpha virt. eigenvalues --    0.65177   0.81597   0.94248   0.95589   1.04827

 Mulliken charges:
               1
     1  O   -0.426363
     2  H    0.222766
     3  H    0.203597
 Sum of Mulliken charges =   0.00000

 Dipole moment (field-independent basis, Debye):
    X=             -0.0198    Y=             -1.9547    Z=              0.0000  Tot=              1.9548
 Quadrupole moment (field-independent basis, Debye-Ang):
   XX=             -4.3939   YY=             -6.2995   ZZ=             -7.5515
   XY=             -0.1015   XZ=              0.0000   YZ=              0.0000

 1\1\GINC-NODE14\SP\RB2PLYPD3-FC\def2QZVP\H2O1\BOITTIER\26-Aug-2020\0\\
 #p B2PLYPD3/Def2QZVP\\h2o\\0,1\O,0,-5.326605,-0.762456,0.924402\H,0,-4
 .368927,-0.711493,0.87648\H,0,-5.609308,0.09484,0.738619\\Version=ES64
 L-G09RevD.01\State=1-A'\HF=-76.3342274\MP2=-76.4236555\RMSD=5.125e-09\
 PG=CS [SG(H2O1)]\\@

 EVERYTHING'S GOT A MORAL, IF ONLY YOU CAN FIND IT.

 Normal termination of Gaussian 09 at Wed Aug 26 08:32:02 2020.
