 Gaussian 09, Revision D.01,
 Gaussian 09:  ES64L-G09RevD.01 24-Apr-2013

 --------------------
 #p B2PLYPD3/Def2QZVP
 --------------------

 ---
 h2o
 ---
 Symbolic Z-matrix:
 Charge =  0 Multiplicity = 1

                         Standard orientation:
 ---------------------------------------------------------------------
 Center     Atomic      Atomic             Coordinates (Angstroms)
 Number     Number       Type             X           Y           Z
 ---------------------------------------------------------------------
      1          8           0        0.000000    0.118611    0.000000
      2          1           0        0.772029   -0.448844    0.000000
      3          1           0       -0.772029   -0.500043    0.000000
 ---------------------------------------------------------------------

 SCF Done:  E(RB2PLYPD3) =  -76.3337856812     A.U. after   10 cycles
 E2(B2PLYPD3) =    -0.9048004090D-01 E(B2PLYPD3) =    -0.76424265722106D+02

 The electronic state is 1-A'.
 Alpha  occ. eigenvalues --  -19.73349  -1.14978  -0.60657  -0.47198  -0.39834
 Alpha virt. eigenvalues --    0.04360   0.10059   0.27599   0.30449   0.30650
 Alpha virt. eigenvalues --    0.35231   0.43585   0.50181   0.56013   0.62161
 Alpha virt. eigenvalues --    0.65986   0.80740   0.93261   0.96248   1.02727

 Mulliken charges:
               1
     1  O   -0.454552
     2  H    0.220898
     3  H    0.233654
 Sum of Mulliken charges =   0.00000

 Dipole moment (field-independent basis, Debye):
    X=              0.0158    Y=             -1.9664    Z=              0.0000  Tot=              1.9664
 Quadrupole moment (field-independent basis, Debye-Ang):
   XX=             -4.2922   YY=             -6.3412   ZZ=             -7.6280
   XY=              0.0852   XZ=              0.0000   YZ=              0.0000

 1\1\GINC-NODE06\SP\RB2PLYPD3-FC\def2QZVP\H2O1\BOITTIER\26-Aug-2020\0\\
 #p B2PLYPD3/Def2QZVP\\h2o\\0,1\O,0,-5.326605,-0.765446,0.92035\H,0,-4.
 368927,-0.736543,0.927544\H,0,-5.609308,0.16773,0.752948\\Version=ES64
 L-G09RevD.01\State=1-A'\HF=-76.3337857\MP2=-76.4242657\RMSD=4.400e-09\
 PG=CS [SG(H2O1)]\\@

 KEEP CLOSE TO NATURES HEART, YOURSELF;

 Normal termination of Gaussian 09 at Wed Aug 26 10:03:08 2020.
