 Gaussian 09, Revision D.01,
 Gaussian 09:  ES64L-G09RevD.01 24-Apr-2013

 --------------------
 #p B2PLYPD3/Def2QZVP
 --------------------

 ---
 h2o
 ---
 Symbolic Z-matrix:
 Charge =  0 Multiplicity = 1

                         Standard orientation:
 ---------------------------------------------------------------------
 Center     Atomic      Atomic             Coordinates (Angstroms)
 Number     Number       Type             X           Y           Z
 ---------------------------------------------------------------------
      1          8           0        0.000000    0.118334    0.000000
      2          1           0        0.743356   -0.490394    0.000000
      3          1           0       -0.743356   -0.456277    0.000000
 ---------------------------------------------------------------------

 SCF Done:  E(RB2PLYPD3) =  -76.3348751158     A.U. after   10 cycles
 E2(B2PLYPD3) =    -0.8976642420D-01 E(B2PLYPD3) =    -0.76424641540020D+02

 The electronic state is 1-A'.
 Alpha  occ. eigenvalues --  -19.73058  -1.16222  -0.61353  -0.47895  -0.40081
 Alpha virt. eigenvalues --    0.04591   0.10320   0.27482   0.30385   0.30981
 Alpha virt. eigenvalues --    0.36562   0.44241   0.50044   0.56614   0.61767
 Alpha virt. eigenvalues --    0.65447   0.81438   0.94228   0.95733   1.04101

 Mulliken charges:
               1
     1  O   -0.432448
     2  H    0.221178
     3  H    0.211271
 Sum of Mulliken charges =   0.00000

 Dipole moment (field-independent basis, Debye):
    X=             -0.0112    Y=             -1.9808    Z=              0.0000  Tot=              1.9808
 Quadrupole moment (field-independent basis, Debye-Ang):
   XX=             -4.4272   YY=             -6.2710   ZZ=             -7.5708
   XY=             -0.0543   XZ=              0.0000   YZ=              0.0000

 1\1\GINC-NODE40\SP\RB2PLYPD3-FC\def2QZVP\H2O1\BOITTIER\26-Aug-2020\0\\
 #p B2PLYPD3/Def2QZVP\\h2o\\0,1\O,0,-5.326605,-0.765162,0.92084\H,0,-4.
 368927,-0.687826,0.921329\H,0,-5.609308,0.114456,0.750232\\Version=ES6
 4L-G09RevD.01\State=1-A'\HF=-76.3348751\MP2=-76.4246415\RMSD=4.570e-09
 \PG=CS [SG(H2O1)]\\@

 GOOD SENSE ABOUT TRIVIALITIES IS BETTER THAN NONSENSE

 Normal termination of Gaussian 09 at Wed Aug 26 08:29:52 2020.
