 Gaussian 09, Revision D.01,
 Gaussian 09:  ES64L-G09RevD.01 24-Apr-2013

 --------------------
 #p B2PLYPD3/Def2QZVP
 --------------------

 ---
 h2o
 ---
 Symbolic Z-matrix:
 Charge =  0 Multiplicity = 1

                         Standard orientation:
 ---------------------------------------------------------------------
 Center     Atomic      Atomic             Coordinates (Angstroms)
 Number     Number       Type             X           Y           Z
 ---------------------------------------------------------------------
      1          8           0        0.000000    0.119179    0.000000
      2          1           0        0.748154   -0.483098    0.000000
      3          1           0       -0.748154   -0.470332    0.000000
 ---------------------------------------------------------------------

 SCF Done:  E(RB2PLYPD3) =  -76.3350179786     A.U. after   10 cycles
 E2(B2PLYPD3) =    -0.8997451367D-01 E(B2PLYPD3) =    -0.76424992492291D+02

 The electronic state is 1-A'.
 Alpha  occ. eigenvalues --  -19.73165  -1.15912  -0.61055  -0.47822  -0.40027
 Alpha virt. eigenvalues --    0.04526   0.10261   0.27528   0.30401   0.30871
 Alpha virt. eigenvalues --    0.36284   0.44047   0.49976   0.56549   0.61698
 Alpha virt. eigenvalues --    0.65612   0.81296   0.94090   0.95857   1.03679

 Mulliken charges:
               1
     1  O   -0.437675
     2  H    0.220621
     3  H    0.217054
 Sum of Mulliken charges =   0.00000

 Dipole moment (field-independent basis, Debye):
    X=             -0.0042    Y=             -1.9860    Z=              0.0000  Tot=              1.9860
 Quadrupole moment (field-independent basis, Debye-Ang):
   XX=             -4.4161   YY=             -6.2739   ZZ=             -7.5852
   XY=             -0.0204   XZ=              0.0000   YZ=              0.0000

 1\1\GINC-NODE03\SP\RB2PLYPD3-FC\def2QZVP\H2O1\BOITTIER\26-Aug-2020\0\\
 #p B2PLYPD3/Def2QZVP\\h2o\\0,1\O,0,-5.326605,-0.765219,0.923467\H,0,-4
 .368927,-0.695811,0.900939\H,0,-5.609308,0.12336,0.729137\\Version=ES6
 4L-G09RevD.01\State=1-A'\HF=-76.335018\MP2=-76.4249925\RMSD=4.297e-09\
 PG=CS [SG(H2O1)]\\@

 CONFIDENCE: THAT QUIET ASSURED FEELING YOU HAVE

 Normal termination of Gaussian 09 at Wed Aug 26 08:30:10 2020.
