 Gaussian 09, Revision D.01,
 Gaussian 09:  ES64L-G09RevD.01 24-Apr-2013

 --------------------
 #p B2PLYPD3/Def2QZVP
 --------------------

 ---
 h2o
 ---
 Symbolic Z-matrix:
 Charge =  0 Multiplicity = 1

                         Standard orientation:
 ---------------------------------------------------------------------
 Center     Atomic      Atomic             Coordinates (Angstroms)
 Number     Number       Type             X           Y           Z
 ---------------------------------------------------------------------
      1          8           0        0.000000    0.114437    0.000000
      2          1           0        0.783239   -0.437043    0.000000
      3          1           0       -0.783239   -0.478453    0.000000
 ---------------------------------------------------------------------

 SCF Done:  E(RB2PLYPD3) =  -76.3340559085     A.U. after   10 cycles
 E2(B2PLYPD3) =    -0.9028348461D-01 E(B2PLYPD3) =    -0.76424339393119D+02

 The electronic state is 1-A'.
 Alpha  occ. eigenvalues --  -19.73176  -1.14946  -0.61305  -0.46730  -0.39793
 Alpha virt. eigenvalues --    0.04451   0.10048   0.27528   0.30451   0.31028
 Alpha virt. eigenvalues --    0.34916   0.43655   0.50779   0.55654   0.63018
 Alpha virt. eigenvalues --    0.65846   0.80599   0.93173   0.96256   1.03566

 Mulliken charges:
               1
     1  O   -0.458579
     2  H    0.224111
     3  H    0.234468
 Sum of Mulliken charges =   0.00000

 Dipole moment (field-independent basis, Debye):
    X=              0.0115    Y=             -1.9202    Z=              0.0000  Tot=              1.9202
 Quadrupole moment (field-independent basis, Debye-Ang):
   XX=             -4.1791   YY=             -6.4221   ZZ=             -7.6254
   XY=              0.0716   XZ=              0.0000   YZ=              0.0000

 1\1\GINC-NODE37\SP\RB2PLYPD3-FC\def2QZVP\H2O1\BOITTIER\26-Aug-2020\0\\
 #p B2PLYPD3/Def2QZVP\\h2o\\0,1\O,0,-5.326605,-0.762947,0.917774\H,0,-4
 .368927,-0.777771,0.932861\H,0,-5.609308,0.168971,0.78897\\Version=ES6
 4L-G09RevD.01\State=1-A'\HF=-76.3340559\MP2=-76.4243394\RMSD=4.137e-09
 \PG=CS [SG(H2O1)]\\@

 We're simply so accustomed to the marvels of everyday thought

 Normal termination of Gaussian 09 at Wed Aug 26 12:11:03 2020.
