 Gaussian 09, Revision D.01,
 Gaussian 09:  ES64L-G09RevD.01 24-Apr-2013

 --------------------
 #p B2PLYPD3/Def2QZVP
 --------------------

 ---
 h2o
 ---
 Symbolic Z-matrix:
 Charge =  0 Multiplicity = 1

                         Standard orientation:
 ---------------------------------------------------------------------
 Center     Atomic      Atomic             Coordinates (Angstroms)
 Number     Number       Type             X           Y           Z
 ---------------------------------------------------------------------
      1          8           0        0.000000    0.115337    0.000000
      2          1           0        0.728673   -0.512261    0.000000
      3          1           0       -0.728673   -0.410436    0.000000
 ---------------------------------------------------------------------

 SCF Done:  E(RB2PLYPD3) =  -76.3318602017     A.U. after   10 cycles
 E2(B2PLYPD3) =    -0.8910660922D-01 E(B2PLYPD3) =    -0.76420966810910D+02

 The electronic state is 1-A'.
 Alpha  occ. eigenvalues --  -19.72688  -1.17271  -0.62382  -0.48065  -0.40253
 Alpha virt. eigenvalues --    0.04771   0.10495   0.27312   0.30333   0.31239
 Alpha virt. eigenvalues --    0.37381   0.44958   0.50303   0.56744   0.62078
 Alpha virt. eigenvalues --    0.64898   0.81844   0.94373   0.95442   1.05071

 Mulliken charges:
               1
     1  O   -0.412762
     2  H    0.223135
     3  H    0.189626
 Sum of Mulliken charges =   0.00000

 Dipole moment (field-independent basis, Debye):
    X=             -0.0331    Y=             -1.9598    Z=              0.0000  Tot=              1.9601
 Quadrupole moment (field-independent basis, Debye-Ang):
   XX=             -4.4542   YY=             -6.2614   ZZ=             -7.5243
   XY=             -0.1610   XZ=              0.0000   YZ=              0.0000

 1\1\GINC-NODE36\SP\RB2PLYPD3-FC\def2QZVP\H2O1\BOITTIER\26-Aug-2020\0\\
 #p B2PLYPD3/Def2QZVP\\h2o\\0,1\O,0,-5.326605,-0.76231,0.924361\H,0,-4.
 368927,-0.689355,0.875646\H,0,-5.609308,0.070359,0.739583\\Version=ES6
 4L-G09RevD.01\State=1-A'\HF=-76.3318602\MP2=-76.4209668\RMSD=6.169e-09
 \PG=CS [SG(H2O1)]\\@

 LIFE IS A CONTINUAL STRUGGLE AGAINST THE TENDENCY TO PRODUCE ENTROPY.

 Normal termination of Gaussian 09 at Wed Aug 26 12:13:36 2020.
