 Gaussian 09, Revision D.01,
 Gaussian 09:  ES64L-G09RevD.01 24-Apr-2013

 --------------------
 #p B2PLYPD3/Def2QZVP
 --------------------

 ---
 h2o
 ---
 Symbolic Z-matrix:
 Charge =  0 Multiplicity = 1

                         Standard orientation:
 ---------------------------------------------------------------------
 Center     Atomic      Atomic             Coordinates (Angstroms)
 Number     Number       Type             X           Y           Z
 ---------------------------------------------------------------------
      1          8           0        0.000000    0.112643    0.000000
      2          1           0        0.723378   -0.520503    0.000000
      3          1           0       -0.723378   -0.380638    0.000000
 ---------------------------------------------------------------------

 SCF Done:  E(RB2PLYPD3) =  -76.3282393066     A.U. after   10 cycles
 E2(B2PLYPD3) =    -0.8871011677D-01 E(B2PLYPD3) =    -0.76416949423395D+02

 The electronic state is 1-A'.
 Alpha  occ. eigenvalues --  -19.72430  -1.17875  -0.63154  -0.48010  -0.40341
 Alpha virt. eigenvalues --    0.04877   0.10576   0.27193   0.30303   0.31399
 Alpha virt. eigenvalues --    0.37688   0.45412   0.50594   0.56685   0.62486
 Alpha virt. eigenvalues --    0.64572   0.82045   0.94230   0.95375   1.05455

 Mulliken charges:
               1
     1  O   -0.399863
     2  H    0.224597
     3  H    0.175266
 Sum of Mulliken charges =   0.00000

 Dipole moment (field-independent basis, Debye):
    X=             -0.0441    Y=             -1.9359    Z=              0.0000  Tot=              1.9364
 Quadrupole moment (field-independent basis, Debye-Ang):
   XX=             -4.4415   YY=             -6.2720   ZZ=             -7.4979
   XY=             -0.2227   XZ=              0.0000   YZ=              0.0000

 1\1\GINC-NODE14\SP\RB2PLYPD3-FC\def2QZVP\H2O1\BOITTIER\26-Aug-2020\0\\
 #p B2PLYPD3/Def2QZVP\\h2o\\0,1\O,0,-5.326605,-0.760494,0.923955\H,0,-4
 .368927,-0.698589,0.86765\H,0,-5.609308,0.050532,0.753902\\Version=ES6
 4L-G09RevD.01\State=1-A'\HF=-76.3282393\MP2=-76.4169494\RMSD=6.743e-09
 \PG=CS [SG(H2O1)]\\@

 GOOD SENSE ABOUT TRIVIALITIES IS BETTER THAN NONSENSE

 Normal termination of Gaussian 09 at Wed Aug 26 09:05:35 2020.
