 Gaussian 09, Revision D.01,
 Gaussian 09:  ES64L-G09RevD.01 24-Apr-2013

 --------------------
 #p B2PLYPD3/Def2QZVP
 --------------------

 ---
 h2o
 ---
 Symbolic Z-matrix:
 Charge =  0 Multiplicity = 1

                         Standard orientation:
 ---------------------------------------------------------------------
 Center     Atomic      Atomic             Coordinates (Angstroms)
 Number     Number       Type             X           Y           Z
 ---------------------------------------------------------------------
      1          8           0        0.000000    0.119198    0.000000
      2          1           0        0.761080   -0.464411    0.000000
      3          1           0       -0.761080   -0.489175    0.000000
 ---------------------------------------------------------------------

 SCF Done:  E(RB2PLYPD3) =  -76.3346072995     A.U. after   10 cycles
 E2(B2PLYPD3) =    -0.9028155190D-01 E(B2PLYPD3) =    -0.76424888851373D+02

 The electronic state is 1-A'.
 Alpha  occ. eigenvalues --  -19.73289  -1.15362  -0.60771  -0.47502  -0.39918
 Alpha virt. eigenvalues --    0.04430   0.10145   0.27579   0.30429   0.30739
 Alpha virt. eigenvalues --    0.35685   0.43760   0.50044   0.56275   0.61892
 Alpha virt. eigenvalues --    0.65846   0.81000   0.93660   0.96083   1.03095

 Mulliken charges:
               1
     1  O   -0.447422
     2  H    0.220477
     3  H    0.226945
 Sum of Mulliken charges =   0.00000

 Dipole moment (field-independent basis, Debye):
    X=              0.0079    Y=             -1.9786    Z=              0.0000  Tot=              1.9786
 Quadrupole moment (field-independent basis, Debye-Ang):
   XX=             -4.3541   YY=             -6.3070   ZZ=             -7.6102
   XY=              0.0404   XZ=              0.0000   YZ=              0.0000

 1\1\GINC-NODE22\SP\RB2PLYPD3-FC\def2QZVP\H2O1\BOITTIER\26-Aug-2020\0\\
 #p B2PLYPD3/Def2QZVP\\h2o\\0,1\O,0,-5.326605,-0.765189,0.923688\H,0,-4
 .368927,-0.719377,0.899262\H,0,-5.609308,0.146446,0.727827\\Version=ES
 64L-G09RevD.01\State=1-A'\HF=-76.3346073\MP2=-76.4248889\RMSD=4.177e-0
 9\PG=CS [SG(H2O1)]\\@

 FROM THE ASHES OF OUR DESPAIR GROW THE FLOWERS OF TOMORROW.

 Normal termination of Gaussian 09 at Wed Aug 26 09:46:35 2020.
