 Gaussian 09, Revision D.01,
 Gaussian 09:  ES64L-G09RevD.01 24-Apr-2013

 --------------------
 #p B2PLYPD3/Def2QZVP
 --------------------

 ---
 h2o
 ---
 Symbolic Z-matrix:
 Charge =  0 Multiplicity = 1

                         Standard orientation:
 ---------------------------------------------------------------------
 Center     Atomic      Atomic             Coordinates (Angstroms)
 Number     Number       Type             X           Y           Z
 ---------------------------------------------------------------------
      1          8           0        0.000000    0.116679    0.000000
      2          1           0        0.743571   -0.490669    0.000000
      3          1           0       -0.743571   -0.442759    0.000000
 ---------------------------------------------------------------------

 SCF Done:  E(RB2PLYPD3) =  -76.3346754657     A.U. after   10 cycles
 E2(B2PLYPD3) =    -0.8958292293D-01 E(B2PLYPD3) =    -0.76424258388609D+02

 The electronic state is 1-A'.
 Alpha  occ. eigenvalues --  -19.72944  -1.16408  -0.61736  -0.47803  -0.40104
 Alpha virt. eigenvalues --    0.04655   0.10350   0.27433   0.30375   0.31126
 Alpha virt. eigenvalues --    0.36653   0.44393   0.50227   0.56544   0.62046
 Alpha virt. eigenvalues --    0.65303   0.81517   0.94233   0.95654   1.04539

 Mulliken charges:
               1
     1  O   -0.429713
     2  H    0.221985
     3  H    0.207728
 Sum of Mulliken charges =   0.00000

 Dipole moment (field-independent basis, Debye):
    X=             -0.0153    Y=             -1.9649    Z=              0.0000  Tot=              1.9650
 Quadrupole moment (field-independent basis, Debye-Ang):
   XX=             -4.4033   YY=             -6.2906   ZZ=             -7.5609
   XY=             -0.0770   XZ=              0.0000   YZ=              0.0000

 1\1\GINC-NODE13\SP\RB2PLYPD3-FC\def2QZVP\H2O1\BOITTIER\26-Aug-2020\0\\
 #p B2PLYPD3/Def2QZVP\\h2o\\0,1\O,0,-5.326605,-0.763486,0.923439\H,0,-4
 .368927,-0.704039,0.890449\H,0,-5.609308,0.103853,0.739943\\Version=ES
 64L-G09RevD.01\State=1-A'\HF=-76.3346755\MP2=-76.4242584\RMSD=4.786e-0
 9\PG=CS [SG(H2O1)]\\@

 ALMOST ALL THE CHEMICAL PROCESSES WHICH OCCUR IN NATURE,

 Normal termination of Gaussian 09 at Wed Aug 26 11:07:53 2020.
