 Gaussian 09, Revision D.01,
 Gaussian 09:  ES64L-G09RevD.01 24-Apr-2013

 --------------------
 #p B2PLYPD3/Def2QZVP
 --------------------

 ---
 h2o
 ---
 Symbolic Z-matrix:
 Charge =  0 Multiplicity = 1

                         Standard orientation:
 ---------------------------------------------------------------------
 Center     Atomic      Atomic             Coordinates (Angstroms)
 Number     Number       Type             X           Y           Z
 ---------------------------------------------------------------------
      1          8           0        0.000000    0.121514    0.000000
      2          1           0        0.751204   -0.478640    0.000000
      3          1           0       -0.751204   -0.493472    0.000000
 ---------------------------------------------------------------------

 SCF Done:  E(RB2PLYPD3) =  -76.3345117441     A.U. after   10 cycles
 E2(B2PLYPD3) =    -0.9032409562D-01 E(B2PLYPD3) =    -0.76424835839705D+02

 The electronic state is 1-A'.
 Alpha  occ. eigenvalues --  -19.73355  -1.15515  -0.60457  -0.47855  -0.39967
 Alpha virt. eigenvalues --    0.04402   0.10182   0.27609   0.30421   0.30590
 Alpha virt. eigenvalues --    0.35982   0.43780   0.49744   0.56559   0.61372
 Alpha virt. eigenvalues --    0.65872   0.81104   0.93906   0.96048   1.02814

 Mulliken charges:
               1
     1  O   -0.443210
     2  H    0.219640
     3  H    0.223570
 Sum of Mulliken charges =   0.00000

 Dipole moment (field-independent basis, Debye):
    X=              0.0050    Y=             -2.0058    Z=              0.0000  Tot=              2.0058
 Quadrupole moment (field-independent basis, Debye-Ang):
   XX=             -4.4342   YY=             -6.2531   ZZ=             -7.6057
   XY=              0.0235   XZ=              0.0000   YZ=              0.0000

 1\1\GINC-NODE38\SP\RB2PLYPD3-FC\def2QZVP\H2O1\BOITTIER\26-Aug-2020\0\\
 #p B2PLYPD3/Def2QZVP\\h2o\\0,1\O,0,-5.326605,-0.766027,0.926681\H,0,-4
 .368927,-0.693855,0.880454\H,0,-5.609308,0.134325,0.698731\\Version=ES
 64L-G09RevD.01\State=1-A'\HF=-76.3345117\MP2=-76.4248358\RMSD=4.293e-0
 9\PG=CS [SG(H2O1)]\\@

 GETTING A SIMPLE ANSWER FROM A PROFESSOR IS LIKE

 Normal termination of Gaussian 09 at Wed Aug 26 08:30:12 2020.
