 Gaussian 09, Revision D.01,
 Gaussian 09:  ES64L-G09RevD.01 24-Apr-2013

 --------------------
 #p B2PLYPD3/Def2QZVP
 --------------------

 ---
 h2o
 ---
 Symbolic Z-matrix:
 Charge =  0 Multiplicity = 1

                         Standard orientation:
 ---------------------------------------------------------------------
 Center     Atomic      Atomic             Coordinates (Angstroms)
 Number     Number       Type             X           Y           Z
 ---------------------------------------------------------------------
      1          8           0        0.000000    0.114779    0.000000
      2          1           0        0.771986   -0.451971    0.000000
      3          1           0       -0.771986   -0.466264    0.000000
 ---------------------------------------------------------------------

 SCF Done:  E(RB2PLYPD3) =  -76.3349276672     A.U. after   10 cycles
 E2(B2PLYPD3) =    -0.9004096386D-01 E(B2PLYPD3) =    -0.76424968631066D+02

 The electronic state is 1-A'.
 Alpha  occ. eigenvalues --  -19.73094  -1.15378  -0.61509  -0.47023  -0.39886
 Alpha virt. eigenvalues --    0.04537   0.10142   0.27499   0.30427   0.31129
 Alpha virt. eigenvalues --    0.35412   0.43873   0.50641   0.55906   0.62786
 Alpha virt. eigenvalues --    0.65668   0.80923   0.93542   0.96054   1.04065

 Mulliken charges:
               1
     1  O   -0.450314
     2  H    0.223272
     3  H    0.227042
 Sum of Mulliken charges =   0.00000

 Dipole moment (field-independent basis, Debye):
    X=              0.0041    Y=             -1.9304    Z=              0.0000  Tot=              1.9304
 Quadrupole moment (field-independent basis, Debye-Ang):
   XX=             -4.2398   YY=             -6.3897   ZZ=             -7.6049
   XY=              0.0243   XZ=              0.0000   YZ=              0.0000

 1\1\GINC-NODE31\SP\RB2PLYPD3-FC\def2QZVP\H2O1\BOITTIER\26-Aug-2020\0\\
 #p B2PLYPD3/Def2QZVP\\h2o\\0,1\O,0,-5.326605,-0.762918,0.91964\H,0,-4.
 368927,-0.75876,0.91766\H,0,-5.609308,0.149486,0.774133\\Version=ES64L
 -G09RevD.01\State=1-A'\HF=-76.3349277\MP2=-76.4249686\RMSD=3.902e-09\P
 G=CS [SG(H2O1)]\\@

 CHINESE FORTUNE COOKIE OF JAN 1 1967 SAY....

 Normal termination of Gaussian 09 at Wed Aug 26 11:49:50 2020.
