 Gaussian 09, Revision D.01,
 Gaussian 09:  ES64L-G09RevD.01 24-Apr-2013

 --------------------
 #p B2PLYPD3/Def2QZVP
 --------------------

 ---
 h2o
 ---
 Symbolic Z-matrix:
 Charge =  0 Multiplicity = 1

                         Standard orientation:
 ---------------------------------------------------------------------
 Center     Atomic      Atomic             Coordinates (Angstroms)
 Number     Number       Type             X           Y           Z
 ---------------------------------------------------------------------
      1          8           0        0.000000    0.119960    0.000000
      2          1           0        0.751685   -0.477894    0.000000
      3          1           0       -0.751685   -0.481789    0.000000
 ---------------------------------------------------------------------

 SCF Done:  E(RB2PLYPD3) =  -76.3348732493     A.U. after   10 cycles
 E2(B2PLYPD3) =    -0.9014883581D-01 E(B2PLYPD3) =    -0.76425022085127D+02

 The electronic state is 1-A'.
 Alpha  occ. eigenvalues --  -19.73253  -1.15671  -0.60800  -0.47772  -0.39986
 Alpha virt. eigenvalues --    0.04468   0.10213   0.27565   0.30413   0.30758
 Alpha virt. eigenvalues --    0.36068   0.43899   0.49910   0.56501   0.61625
 Alpha virt. eigenvalues --    0.65745   0.81179   0.93955   0.95962   1.03285

 Mulliken charges:
               1
     1  O   -0.441498
     2  H    0.220221
     3  H    0.221276
 Sum of Mulliken charges =   0.00000

 Dipole moment (field-independent basis, Debye):
    X=              0.0013    Y=             -1.9912    Z=              0.0000  Tot=              1.9912
 Quadrupole moment (field-independent basis, Debye-Ang):
   XX=             -4.4101   YY=             -6.2737   ZZ=             -7.5968
   XY=              0.0062   XZ=              0.0000   YZ=              0.0000

 1\1\GINC-NODE14\SP\RB2PLYPD3-FC\def2QZVP\H2O1\BOITTIER\26-Aug-2020\0\\
 #p B2PLYPD3/Def2QZVP\\h2o\\0,1\O,0,-5.326605,-0.76548,0.924663\H,0,-4.
 368927,-0.699757,0.893123\H,0,-5.609308,0.131486,0.718111\\Version=ES6
 4L-G09RevD.01\State=1-A'\HF=-76.3348732\MP2=-76.4250221\RMSD=4.224e-09
 \PG=CS [SG(H2O1)]\\@

 A MATHEMATICIAN IS A MACHINE FOR TURNING COFFEE INTO THEOREMS.

 Normal termination of Gaussian 09 at Wed Aug 26 09:45:33 2020.
