 Gaussian 09, Revision D.01,
 Gaussian 09:  ES64L-G09RevD.01 24-Apr-2013

 --------------------
 #p B2PLYPD3/Def2QZVP
 --------------------

 ---
 h2o
 ---
 Symbolic Z-matrix:
 Charge =  0 Multiplicity = 1

                         Standard orientation:
 ---------------------------------------------------------------------
 Center     Atomic      Atomic             Coordinates (Angstroms)
 Number     Number       Type             X           Y           Z
 ---------------------------------------------------------------------
      1          8           0        0.000000    0.119411    0.000000
      2          1           0        0.740369   -0.494660    0.000000
      3          1           0       -0.740369   -0.460628    0.000000
 ---------------------------------------------------------------------

 SCF Done:  E(RB2PLYPD3) =  -76.3347612511     A.U. after   10 cycles
 E2(B2PLYPD3) =    -0.8982407853D-01 E(B2PLYPD3) =    -0.76424585329637D+02

 The electronic state is 1-A'.
 Alpha  occ. eigenvalues --  -19.73104  -1.16226  -0.61164  -0.48022  -0.40089
 Alpha virt. eigenvalues --    0.04564   0.10323   0.27501   0.30385   0.30895
 Alpha virt. eigenvalues --    0.36629   0.44215   0.49916   0.56713   0.61548
 Alpha virt. eigenvalues --    0.65487   0.81438   0.94287   0.95745   1.03895

 Mulliken charges:
               1
     1  O   -0.431808
     2  H    0.220839
     3  H    0.210969
 Sum of Mulliken charges =   0.00000

 Dipole moment (field-independent basis, Debye):
    X=             -0.0114    Y=             -1.9926    Z=              0.0000  Tot=              1.9926
 Quadrupole moment (field-independent basis, Debye-Ang):
   XX=             -4.4563   YY=             -6.2501   ZZ=             -7.5719
   XY=             -0.0536   XZ=              0.0000   YZ=              0.0000

 1\1\GINC-NODE38\SP\RB2PLYPD3-FC\def2QZVP\H2O1\BOITTIER\26-Aug-2020\0\\
 #p B2PLYPD3/Def2QZVP\\h2o\\0,1\O,0,-5.326605,-0.764975,0.925131\H,0,-4
 .368927,-0.683996,0.886093\H,0,-5.609308,0.107647,0.717283\\Version=ES
 64L-G09RevD.01\State=1-A'\HF=-76.3347613\MP2=-76.4245853\RMSD=4.635e-0
 9\PG=CS [SG(H2O1)]\\@

 IMAGINATION WILL OFTEN CARRY US TO WORLDS THAT NEVER WERE.

 Normal termination of Gaussian 09 at Wed Aug 26 12:11:17 2020.
