 Gaussian 09, Revision D.01,
 Gaussian 09:  ES64L-G09RevD.01 24-Apr-2013

 --------------------
 #p B2PLYPD3/Def2QZVP
 --------------------

 ---
 h2o
 ---
 Symbolic Z-matrix:
 Charge =  0 Multiplicity = 1

                         Standard orientation:
 ---------------------------------------------------------------------
 Center     Atomic      Atomic             Coordinates (Angstroms)
 Number     Number       Type             X           Y           Z
 ---------------------------------------------------------------------
      1          8           0        0.000000    0.113018    0.000000
      2          1           0        0.781135   -0.444526    0.000000
      3          1           0       -0.781135   -0.459616    0.000000
 ---------------------------------------------------------------------

 SCF Done:  E(RB2PLYPD3) =  -76.3346424793     A.U. after   10 cycles
 E2(B2PLYPD3) =    -0.9007426114D-01 E(B2PLYPD3) =    -0.76424716740456D+02

 The electronic state is 1-A'.
 Alpha  occ. eigenvalues --  -19.73064  -1.15175  -0.61671  -0.46715  -0.39830
 Alpha virt. eigenvalues --    0.04535   0.10096   0.27487   0.30438   0.31239
 Alpha virt. eigenvalues --    0.35059   0.43805   0.50942   0.55659   0.63224
 Alpha virt. eigenvalues --    0.65694   0.80723   0.93362   0.96154   1.04246

 Mulliken charges:
               1
     1  O   -0.455499
     2  H    0.225804
     3  H    0.229695
 Sum of Mulliken charges =   0.00000

 Dipole moment (field-independent basis, Debye):
    X=              0.0041    Y=             -1.9079    Z=              0.0000  Tot=              1.9079
 Quadrupole moment (field-independent basis, Debye-Ang):
   XX=             -4.1704   YY=             -6.4349   ZZ=             -7.6129
   XY=              0.0262   XZ=              0.0000   YZ=              0.0000

 1\1\GINC-NODE11\SP\RB2PLYPD3-FC\def2QZVP\H2O1\BOITTIER\26-Aug-2020\0\\
 #p B2PLYPD3/Def2QZVP\\h2o\\0,1\O,0,-5.326605,-0.762349,0.912336\H,0,-4
 .368927,-0.779218,0.972287\H,0,-5.609308,0.160848,0.835743\\Version=ES
 64L-G09RevD.01\State=1-A'\HF=-76.3346425\MP2=-76.4247167\RMSD=3.800e-0
 9\PG=CS [SG(H2O1)]\\@

 Once you get people laughing, they're

 Normal termination of Gaussian 09 at Wed Aug 26 09:19:26 2020.
