 Gaussian 09, Revision D.01,
 Gaussian 09:  ES64L-G09RevD.01 24-Apr-2013

 --------------------
 #p B2PLYPD3/Def2QZVP
 --------------------

 ---
 h2o
 ---
 Symbolic Z-matrix:
 Charge =  0 Multiplicity = 1

                         Standard orientation:
 ---------------------------------------------------------------------
 Center     Atomic      Atomic             Coordinates (Angstroms)
 Number     Number       Type             X           Y           Z
 ---------------------------------------------------------------------
      1          8           0        0.000000    0.118563    0.000000
      2          1           0        0.745531   -0.487014    0.000000
      3          1           0       -0.745531   -0.461489    0.000000
 ---------------------------------------------------------------------

 SCF Done:  E(RB2PLYPD3) =  -76.3349856558     A.U. after   10 cycles
 E2(B2PLYPD3) =    -0.8984242286D-01 E(B2PLYPD3) =    -0.76424828078709D+02

 The electronic state is 1-A'.
 Alpha  occ. eigenvalues --  -19.73096  -1.16098  -0.61253  -0.47855  -0.40059
 Alpha virt. eigenvalues --    0.04569   0.10296   0.27499   0.30391   0.30948
 Alpha virt. eigenvalues --    0.36446   0.44165   0.50030   0.56580   0.61760
 Alpha virt. eigenvalues --    0.65509   0.81383   0.94174   0.95780   1.03963

 Mulliken charges:
               1
     1  O   -0.434619
     2  H    0.220960
     3  H    0.213659
 Sum of Mulliken charges =   0.00000

 Dipole moment (field-independent basis, Debye):
    X=             -0.0084    Y=             -1.9817    Z=              0.0000  Tot=              1.9817
 Quadrupole moment (field-independent basis, Debye-Ang):
   XX=             -4.4201   YY=             -6.2742   ZZ=             -7.5764
   XY=             -0.0407   XZ=              0.0000   YZ=              0.0000

 1\1\GINC-NODE11\SP\RB2PLYPD3-FC\def2QZVP\H2O1\BOITTIER\26-Aug-2020\0\\
 #p B2PLYPD3/Def2QZVP\\h2o\\0,1\O,0,-5.326605,-0.764996,0.922527\H,0,-4
 .368927,-0.693224,0.906973\H,0,-5.609308,0.117202,0.737913\\Version=ES
 64L-G09RevD.01\State=1-A'\HF=-76.3349857\MP2=-76.4248281\RMSD=4.427e-0
 9\PG=CS [SG(H2O1)]\\@

 SEE YOU NOW,

 Normal termination of Gaussian 09 at Wed Aug 26 08:31:10 2020.
