 Gaussian 09, Revision D.01,
 Gaussian 09:  ES64L-G09RevD.01 24-Apr-2013

 --------------------
 #p B2PLYPD3/Def2QZVP
 --------------------

 ---
 h2o
 ---
 Symbolic Z-matrix:
 Charge =  0 Multiplicity = 1

                         Standard orientation:
 ---------------------------------------------------------------------
 Center     Atomic      Atomic             Coordinates (Angstroms)
 Number     Number       Type             X           Y           Z
 ---------------------------------------------------------------------
      1          8           0        0.000000    0.116055    0.000000
      2          1           0        0.761014   -0.468513    0.000000
      3          1           0       -0.761014   -0.459927    0.000000
 ---------------------------------------------------------------------

 SCF Done:  E(RB2PLYPD3) =  -76.3351869271     A.U. after   10 cycles
 E2(B2PLYPD3) =    -0.8991803625D-01 E(B2PLYPD3) =    -0.76425104963331D+02

 The electronic state is 1-A'.
 Alpha  occ. eigenvalues --  -19.73075  -1.15709  -0.61484  -0.47354  -0.39964
 Alpha virt. eigenvalues --    0.04569   0.10212   0.27492   0.30410   0.31090
 Alpha virt. eigenvalues --    0.35866   0.44019   0.50405   0.56177   0.62405
 Alpha virt. eigenvalues --    0.65574   0.81158   0.93818   0.95913   1.04133

 Mulliken charges:
               1
     1  O   -0.443285
     2  H    0.222819
     3  H    0.220466
 Sum of Mulliken charges =   0.00000

 Dipole moment (field-independent basis, Debye):
    X=             -0.0026    Y=             -1.9491    Z=              0.0000  Tot=              1.9491
 Quadrupole moment (field-independent basis, Debye-Ang):
   XX=             -4.3110   YY=             -6.3456   ZZ=             -7.5909
   XY=             -0.0142   XZ=              0.0000   YZ=              0.0000

 1\1\GINC-NODE39\SP\RB2PLYPD3-FC\def2QZVP\H2O1\BOITTIER\26-Aug-2020\0\\
 #p B2PLYPD3/Def2QZVP\\h2o\\0,1\O,0,-5.326605,-0.762508,0.925596\H,0,-4
 .368927,-0.743497,0.867684\H,0,-5.609308,0.127662,0.729194\\Version=ES
 64L-G09RevD.01\State=1-A'\HF=-76.3351869\MP2=-76.425105\RMSD=4.029e-09
 \PG=CS [SG(H2O1)]\\@

 A CHEMICAL PHYSICIST MAKES PRECISE MEASUREMENTS ON IMPURE COMPOUNDS.

 Normal termination of Gaussian 09 at Wed Aug 26 12:53:53 2020.
