 Gaussian 09, Revision D.01,
 Gaussian 09:  ES64L-G09RevD.01 24-Apr-2013

 --------------------
 #p B2PLYPD3/Def2QZVP
 --------------------

 ---
 h2o
 ---
 Symbolic Z-matrix:
 Charge =  0 Multiplicity = 1

                         Standard orientation:
 ---------------------------------------------------------------------
 Center     Atomic      Atomic             Coordinates (Angstroms)
 Number     Number       Type             X           Y           Z
 ---------------------------------------------------------------------
      1          8           0        0.000000    0.121019    0.000000
      2          1           0        0.807967   -0.396640    0.000000
      3          1           0       -0.807967   -0.571514    0.000000
 ---------------------------------------------------------------------

 SCF Done:  E(RB2PLYPD3) =  -76.3245559648     A.U. after   10 cycles
 E2(B2PLYPD3) =    -0.9171592000D-01 E(B2PLYPD3) =    -0.76416271884795D+02

 The electronic state is 1-A'.
 Alpha  occ. eigenvalues --  -19.73792  -1.13404  -0.59322  -0.46330  -0.39504
 Alpha virt. eigenvalues --    0.03766   0.09663   0.27693   0.29232   0.30535
 Alpha virt. eigenvalues --    0.33977   0.42830   0.50186   0.55170   0.62418
 Alpha virt. eigenvalues --    0.66720   0.79418   0.90930   0.96878   1.00509

 Mulliken charges:
               1
     1  O   -0.478490
     2  H    0.221800
     3  H    0.256690
 Sum of Mulliken charges =   0.00000

 Dipole moment (field-independent basis, Debye):
    X=              0.0508    Y=             -1.9635    Z=              0.0000  Tot=              1.9641
 Quadrupole moment (field-independent basis, Debye-Ang):
   XX=             -4.1439   YY=             -6.3826   ZZ=             -7.7140
   XY=              0.3033   XZ=              0.0000   YZ=              0.0000

 1\1\GINC-NODE10\SP\RB2PLYPD3-FC\def2QZVP\H2O1\BOITTIER\26-Aug-2020\0\\
 #p B2PLYPD3/Def2QZVP\\h2o\\0,1\O,0,-5.326605,-0.767605,0.916182\H,0,-4
 .368927,-0.782607,0.974572\H,0,-5.609308,0.248329,0.773459\\Version=ES
 64L-G09RevD.01\State=1-A'\HF=-76.324556\MP2=-76.4162719\RMSD=7.082e-09
 \PG=CS [SG(H2O1)]\\@

 LAW OF COMPENSATION:

 Normal termination of Gaussian 09 at Wed Aug 26 08:56:33 2020.
