 Gaussian 09, Revision D.01,
 Gaussian 09:  ES64L-G09RevD.01 24-Apr-2013

 --------------------
 #p B2PLYPD3/Def2QZVP
 --------------------

 ---
 h2o
 ---
 Symbolic Z-matrix:
 Charge =  0 Multiplicity = 1

                         Standard orientation:
 ---------------------------------------------------------------------
 Center     Atomic      Atomic             Coordinates (Angstroms)
 Number     Number       Type             X           Y           Z
 ---------------------------------------------------------------------
      1          8           0        0.000000    0.115398    0.000000
      2          1           0        0.748554   -0.484127    0.000000
      3          1           0       -0.748554   -0.439057    0.000000
 ---------------------------------------------------------------------

 SCF Done:  E(RB2PLYPD3) =  -76.3348189113     A.U. after   10 cycles
 E2(B2PLYPD3) =    -0.8955382556D-01 E(B2PLYPD3) =    -0.76424372736808D+02

 The electronic state is 1-A'.
 Alpha  occ. eigenvalues --  -19.72905  -1.16333  -0.61923  -0.47616  -0.40081
 Alpha virt. eigenvalues --    0.04677   0.10332   0.27419   0.30378   0.31221
 Alpha virt. eigenvalues --    0.36491   0.44385   0.50402   0.56398   0.62334
 Alpha virt. eigenvalues --    0.65284   0.81477   0.94144   0.95670   1.04739

 Mulliken charges:
               1
     1  O   -0.431783
     2  H    0.222551
     3  H    0.209233
 Sum of Mulliken charges =   0.00000

 Dipole moment (field-independent basis, Debye):
    X=             -0.0140    Y=             -1.9499    Z=              0.0000  Tot=              1.9499
 Quadrupole moment (field-independent basis, Debye-Ang):
   XX=             -4.3620   YY=             -6.3193   ZZ=             -7.5627
   XY=             -0.0735   XZ=              0.0000   YZ=              0.0000

 1\1\GINC-NODE30\SP\RB2PLYPD3-FC\def2QZVP\H2O1\BOITTIER\26-Aug-2020\0\\
 #p B2PLYPD3/Def2QZVP\\h2o\\0,1\O,0,-5.326605,-0.762861,0.922224\H,0,-4
 .368927,-0.718736,0.896358\H,0,-5.609308,0.108559,0.753524\\Version=ES
 64L-G09RevD.01\State=1-A'\HF=-76.3348189\MP2=-76.4243727\RMSD=4.649e-0
 9\PG=CS [SG(H2O1)]\\@

 What some people mistake for the high cost

 Normal termination of Gaussian 09 at Wed Aug 26 11:09:13 2020.
