 Gaussian 09, Revision D.01,
 Gaussian 09:  ES64L-G09RevD.01 24-Apr-2013

 --------------------
 #p B2PLYPD3/Def2QZVP
 --------------------

 ---
 h2o
 ---
 Symbolic Z-matrix:
 Charge =  0 Multiplicity = 1

                         Standard orientation:
 ---------------------------------------------------------------------
 Center     Atomic      Atomic             Coordinates (Angstroms)
 Number     Number       Type             X           Y           Z
 ---------------------------------------------------------------------
      1          8           0        0.000000    0.125621    0.000000
      2          1           0        0.753011   -0.477738    0.000000
      3          1           0       -0.753011   -0.527233    0.000000
 ---------------------------------------------------------------------

 SCF Done:  E(RB2PLYPD3) =  -76.3326418821     A.U. after   10 cycles
 E2(B2PLYPD3) =    -0.9087866462D-01 E(B2PLYPD3) =    -0.76423520546684D+02

 The electronic state is 1-A'.
 Alpha  occ. eigenvalues --  -19.73650  -1.14982  -0.59503  -0.47980  -0.39894
 Alpha virt. eigenvalues --    0.04189   0.10063   0.27735   0.30061   0.30446
 Alpha virt. eigenvalues --    0.35597   0.43425   0.49340   0.56622   0.60777
 Alpha virt. eigenvalues --    0.66248   0.80826   0.93582   0.96337   1.01499

 Mulliken charges:
               1
     1  O   -0.449182
     2  H    0.218523
     3  H    0.230660
 Sum of Mulliken charges =   0.00000

 Dipole moment (field-independent basis, Debye):
    X=              0.0177    Y=             -2.0418    Z=              0.0000  Tot=              2.0418
 Quadrupole moment (field-independent basis, Debye-Ang):
   XX=             -4.4835   YY=             -6.2047   ZZ=             -7.6352
   XY=              0.0769   XZ=              0.0000   YZ=              0.0000

 1\1\GINC-NODE27\SP\RB2PLYPD3-FC\def2QZVP\H2O1\BOITTIER\26-Aug-2020\0\\
 #p B2PLYPD3/Def2QZVP\\h2o\\0,1\O,0,-5.326605,-0.767172,0.931992\H,0,-4
 .368927,-0.687041,0.845382\H,0,-5.609308,0.145831,0.649592\\Version=ES
 64L-G09RevD.01\State=1-A'\HF=-76.3326419\MP2=-76.4235205\RMSD=4.622e-0
 9\PG=CS [SG(H2O1)]\\@

 FROM THE ASHES OF OUR DESPAIR GROW THE FLOWERS OF TOMORROW.

 Normal termination of Gaussian 09 at Wed Aug 26 08:35:07 2020.
