 Gaussian 09, Revision D.01,
 Gaussian 09:  ES64L-G09RevD.01 24-Apr-2013

 --------------------
 #p B2PLYPD3/Def2QZVP
 --------------------

 ---
 h2o
 ---
 Symbolic Z-matrix:
 Charge =  0 Multiplicity = 1

                         Standard orientation:
 ---------------------------------------------------------------------
 Center     Atomic      Atomic             Coordinates (Angstroms)
 Number     Number       Type             X           Y           Z
 ---------------------------------------------------------------------
      1          8           0        0.000000    0.116872    0.000000
      2          1           0        0.756223   -0.472947    0.000000
      3          1           0       -0.756223   -0.462032    0.000000
 ---------------------------------------------------------------------

 SCF Done:  E(RB2PLYPD3) =  -76.3351912372     A.U. after   10 cycles
 E2(B2PLYPD3) =    -0.8989674595D-01 E(B2PLYPD3) =    -0.76425087983114D+02

 The electronic state is 1-A'.
 Alpha  occ. eigenvalues --  -19.73084  -1.15825  -0.61407  -0.47511  -0.39993
 Alpha virt. eigenvalues --    0.04569   0.10238   0.27495   0.30404   0.31044
 Alpha virt. eigenvalues --    0.36047   0.44060   0.50278   0.56304   0.62197
 Alpha virt. eigenvalues --    0.65558   0.81235   0.93928   0.95869   1.04072

 Mulliken charges:
               1
     1  O   -0.440628
     2  H    0.221829
     3  H    0.218799
 Sum of Mulliken charges =   0.00000

 Dipole moment (field-independent basis, Debye):
    X=             -0.0034    Y=             -1.9596    Z=              0.0000  Tot=              1.9596
 Quadrupole moment (field-independent basis, Debye-Ang):
   XX=             -4.3455   YY=             -6.3231   ZZ=             -7.5865
   XY=             -0.0179   XZ=              0.0000   YZ=              0.0000

 1\1\GINC-NODE33\SP\RB2PLYPD3-FC\def2QZVP\H2O1\BOITTIER\26-Aug-2020\0\\
 #p B2PLYPD3/Def2QZVP\\h2o\\0,1\O,0,-5.326605,-0.76358,0.923643\H,0,-4.
 368927,-0.725383,0.889666\H,0,-5.609308,0.126711,0.737997\\Version=ES6
 4L-G09RevD.01\State=1-A'\HF=-76.3351912\MP2=-76.425088\RMSD=4.123e-09\
 PG=CS [SG(H2O1)]\\@

 NO HUMAN INVESTIGATION CAN BECOME REAL SCIENCE

 Normal termination of Gaussian 09 at Wed Aug 26 10:31:27 2020.
