 Gaussian 09, Revision D.01,
 Gaussian 09:  ES64L-G09RevD.01 24-Apr-2013

 --------------------
 #p B2PLYPD3/Def2QZVP
 --------------------

 ---
 h2o
 ---
 Symbolic Z-matrix:
 Charge =  0 Multiplicity = 1

                         Standard orientation:
 ---------------------------------------------------------------------
 Center     Atomic      Atomic             Coordinates (Angstroms)
 Number     Number       Type             X           Y           Z
 ---------------------------------------------------------------------
      1          8           0        0.000000    0.120395    0.000000
      2          1           0        0.760637   -0.472943    0.000000
      3          1           0       -0.760637   -0.490217    0.000000
 ---------------------------------------------------------------------

 SCF Done:  E(RB2PLYPD3) =  -76.3343966612     A.U. after   10 cycles
 E2(B2PLYPD3) =    -0.9041150300D-01 E(B2PLYPD3) =    -0.76424808164228D+02

 The electronic state is 1-A'.
 Alpha  occ. eigenvalues --  -19.73367  -1.15247  -0.60512  -0.47571  -0.39905
 Alpha virt. eigenvalues --    0.04382   0.10122   0.27612   0.30435   0.30620
 Alpha virt. eigenvalues --    0.35627   0.43669   0.49908   0.56324   0.61690
 Alpha virt. eigenvalues --    0.65944   0.80950   0.93635   0.96137   1.02762

 Mulliken charges:
               1
     1  O   -0.448632
     2  H    0.222097
     3  H    0.226535
 Sum of Mulliken charges =   0.00000

 Dipole moment (field-independent basis, Debye):
    X=              0.0056    Y=             -1.9900    Z=              0.0000  Tot=              1.9900
 Quadrupole moment (field-independent basis, Debye-Ang):
   XX=             -4.3729   YY=             -6.2913   ZZ=             -7.6166
   XY=              0.0280   XZ=              0.0000   YZ=              0.0000

 1\1\GINC-NODE30\SP\RB2PLYPD3-FC\def2QZVP\H2O1\BOITTIER\26-Aug-2020\0\\
 #p B2PLYPD3/Def2QZVP\\h2o\\0,1\O,0,-5.326605,-0.767379,0.912031\H,0,-4
 .368927,-0.698094,1.005146\H,0,-5.609308,0.16021,0.806802\\Version=ES6
 4L-G09RevD.01\State=1-A'\HF=-76.3343967\MP2=-76.4248082\RMSD=4.141e-09
 \PG=CS [SG(H2O1)]\\@

 CHILDREN YOU ARE VERY LITTLE,

 Normal termination of Gaussian 09 at Wed Aug 26 09:16:21 2020.
