 Gaussian 09, Revision D.01,
 Gaussian 09:  ES64L-G09RevD.01 24-Apr-2013

 --------------------
 #p B2PLYPD3/Def2QZVP
 --------------------

 ---
 h2o
 ---
 Symbolic Z-matrix:
 Charge =  0 Multiplicity = 1

                         Standard orientation:
 ---------------------------------------------------------------------
 Center     Atomic      Atomic             Coordinates (Angstroms)
 Number     Number       Type             X           Y           Z
 ---------------------------------------------------------------------
      1          8           0        0.000000    0.114811    0.000000
      2          1           0        0.774059   -0.449133    0.000000
      3          1           0       -0.774059   -0.469356    0.000000
 ---------------------------------------------------------------------

 SCF Done:  E(RB2PLYPD3) =  -76.3347894355     A.U. after   10 cycles
 E2(B2PLYPD3) =    -0.9009548491D-01 E(B2PLYPD3) =    -0.76424884920404D+02

 The electronic state is 1-A'.
 Alpha  occ. eigenvalues --  -19.73116  -1.15288  -0.61451  -0.46974  -0.39868
 Alpha virt. eigenvalues --    0.04518   0.10123   0.27508   0.30432   0.31103
 Alpha virt. eigenvalues --    0.35315   0.43825   0.50653   0.55863   0.62812
 Alpha virt. eigenvalues --    0.65708   0.80862   0.93471   0.96095   1.03948

 Mulliken charges:
               1
     1  O   -0.451969
     2  H    0.223347
     3  H    0.228622
 Sum of Mulliken charges =   0.00000

 Dipole moment (field-independent basis, Debye):
    X=              0.0058    Y=             -1.9294    Z=              0.0000  Tot=              1.9294
 Quadrupole moment (field-independent basis, Debye-Ang):
   XX=             -4.2300   YY=             -6.3945   ZZ=             -7.6092
   XY=              0.0344   XZ=              0.0000   YZ=              0.0000

 1\1\GINC-NODE06\SP\RB2PLYPD3-FC\def2QZVP\H2O1\BOITTIER\26-Aug-2020\0\\
 #p B2PLYPD3/Def2QZVP\\h2o\\0,1\O,0,-5.326605,-0.763074,0.918757\H,0,-4
 .368927,-0.76093,0.925666\H,0,-5.609308,0.154153,0.780221\\Version=ES6
 4L-G09RevD.01\State=1-A'\HF=-76.3347894\MP2=-76.4248849\RMSD=3.928e-09
 \PG=CS [SG(H2O1)]\\@

 EXPERIENCE IS A WONDERFUL THING.  IT ENABLES

 Normal termination of Gaussian 09 at Wed Aug 26 12:27:56 2020.
