 Gaussian 09, Revision D.01,
 Gaussian 09:  ES64L-G09RevD.01 24-Apr-2013

 --------------------
 #p B2PLYPD3/Def2QZVP
 --------------------

 ---
 h2o
 ---
 Symbolic Z-matrix:
 Charge =  0 Multiplicity = 1

                         Standard orientation:
 ---------------------------------------------------------------------
 Center     Atomic      Atomic             Coordinates (Angstroms)
 Number     Number       Type             X           Y           Z
 ---------------------------------------------------------------------
      1          8           0        0.000000    0.114601    0.000000
      2          1           0        0.767414   -0.460500    0.000000
      3          1           0       -0.767414   -0.456308    0.000000
 ---------------------------------------------------------------------

 SCF Done:  E(RB2PLYPD3) =  -76.3351481501     A.U. after   10 cycles
 E2(B2PLYPD3) =    -0.8990993195D-01 E(B2PLYPD3) =    -0.76425058082046D+02

 The electronic state is 1-A'.
 Alpha  occ. eigenvalues --  -19.73038  -1.15592  -0.61661  -0.47125  -0.39929
 Alpha virt. eigenvalues --    0.04582   0.10185   0.27478   0.30415   0.31191
 Alpha virt. eigenvalues --    0.35636   0.43992   0.50627   0.55995   0.62747
 Alpha virt. eigenvalues --    0.65568   0.81057   0.93693   0.95959   1.04338

 Mulliken charges:
               1
     1  O   -0.446442
     2  H    0.223789
     3  H    0.222653
 Sum of Mulliken charges =   0.00000

 Dipole moment (field-independent basis, Debye):
    X=             -0.0012    Y=             -1.9314    Z=              0.0000  Tot=              1.9314
 Quadrupole moment (field-independent basis, Debye-Ang):
   XX=             -4.2599   YY=             -6.3799   ZZ=             -7.5948
   XY=             -0.0071   XZ=              0.0000   YZ=              0.0000

 1\1\GINC-NODE36\SP\RB2PLYPD3-FC\def2QZVP\H2O1\BOITTIER\26-Aug-2020\0\\
 #p B2PLYPD3/Def2QZVP\\h2o\\0,1\O,0,-5.326605,-0.763362,0.914407\H,0,-4
 .368927,-0.746888,0.961809\H,0,-5.609308,0.144724,0.812822\\Version=ES
 64L-G09RevD.01\State=1-A'\HF=-76.3351482\MP2=-76.4250581\RMSD=3.911e-0
 9\PG=CS [SG(H2O1)]\\@

 Not by the face shall a man be known, but by the mask.

 Normal termination of Gaussian 09 at Wed Aug 26 11:15:27 2020.
