 Gaussian 09, Revision D.01,
 Gaussian 09:  ES64L-G09RevD.01 24-Apr-2013

 --------------------
 #p B2PLYPD3/Def2QZVP
 --------------------

 ---
 h2o
 ---
 Symbolic Z-matrix:
 Charge =  0 Multiplicity = 1

                         Standard orientation:
 ---------------------------------------------------------------------
 Center     Atomic      Atomic             Coordinates (Angstroms)
 Number     Number       Type             X           Y           Z
 ---------------------------------------------------------------------
      1          8           0        0.000000    0.118323    0.000000
      2          1           0        0.747999   -0.483522    0.000000
      3          1           0       -0.747999   -0.463064    0.000000
 ---------------------------------------------------------------------

 SCF Done:  E(RB2PLYPD3) =  -76.3350600039     A.U. after   10 cycles
 E2(B2PLYPD3) =    -0.8987132698D-01 E(B2PLYPD3) =    -0.76424931330834D+02

 The electronic state is 1-A'.
 Alpha  occ. eigenvalues --  -19.73104  -1.16018  -0.61256  -0.47783  -0.40041
 Alpha virt. eigenvalues --    0.04563   0.10280   0.27502   0.30395   0.30957
 Alpha virt. eigenvalues --    0.36347   0.44127   0.50068   0.56522   0.61835
 Alpha virt. eigenvalues --    0.65533   0.81344   0.94115   0.95807   1.03944

 Mulliken charges:
               1
     1  O   -0.436232
     2  H    0.221015
     3  H    0.215217
 Sum of Mulliken charges =   0.00000

 Dipole moment (field-independent basis, Debye):
    X=             -0.0067    Y=             -1.9780    Z=              0.0000  Tot=              1.9781
 Quadrupole moment (field-independent basis, Debye-Ang):
   XX=             -4.4050   YY=             -6.2838   ZZ=             -7.5796
   XY=             -0.0328   XZ=              0.0000   YZ=              0.0000

 1\1\GINC-NODE26\SP\RB2PLYPD3-FC\def2QZVP\H2O1\BOITTIER\26-Aug-2020\0\\
 #p B2PLYPD3/Def2QZVP\\h2o\\0,1\O,0,-5.326605,-0.764904,0.922175\H,0,-4
 .368927,-0.698528,0.909258\H,0,-5.609308,0.121034,0.741328\\Version=ES
 64L-G09RevD.01\State=1-A'\HF=-76.33506\MP2=-76.4249313\RMSD=4.335e-09\
 PG=CS [SG(H2O1)]\\@

 NEVER LOSE YOUR IGNORANCE, IT CAN'T BE REPLACED.

 Normal termination of Gaussian 09 at Wed Aug 26 10:44:13 2020.
