 Gaussian 09, Revision D.01,
 Gaussian 09:  ES64L-G09RevD.01 24-Apr-2013

 --------------------
 #p B2PLYPD3/Def2QZVP
 --------------------

 ---
 h2o
 ---
 Symbolic Z-matrix:
 Charge =  0 Multiplicity = 1

                         Standard orientation:
 ---------------------------------------------------------------------
 Center     Atomic      Atomic             Coordinates (Angstroms)
 Number     Number       Type             X           Y           Z
 ---------------------------------------------------------------------
      1          8           0        0.000000    0.115173    0.000000
      2          1           0        0.737982   -0.499328    0.000000
      3          1           0       -0.737982   -0.422055    0.000000
 ---------------------------------------------------------------------

 SCF Done:  E(RB2PLYPD3) =  -76.3335335525     A.U. after   10 cycles
 E2(B2PLYPD3) =    -0.8929153970D-01 E(B2PLYPD3) =    -0.76422825092229D+02

 The electronic state is 1-A'.
 Alpha  occ. eigenvalues --  -19.72777  -1.16847  -0.62216  -0.47847  -0.40175
 Alpha virt. eigenvalues --    0.04739   0.10423   0.27359   0.30353   0.31256
 Alpha virt. eigenvalues --    0.36987   0.44698   0.50368   0.56580   0.62228
 Alpha virt. eigenvalues --    0.65062   0.81695   0.94303   0.95520   1.04987

 Mulliken charges:
               1
     1  O   -0.421607
     2  H    0.222925
     3  H    0.198682
 Sum of Mulliken charges =   0.00000

 Dipole moment (field-independent basis, Debye):
    X=             -0.0245    Y=             -1.9534    Z=              0.0000  Tot=              1.9535
 Quadrupole moment (field-independent basis, Debye-Ang):
   XX=             -4.4088   YY=             -6.2912   ZZ=             -7.5410
   XY=             -0.1242   XZ=              0.0000   YZ=              0.0000

 1\1\GINC-NODE37\SP\RB2PLYPD3-FC\def2QZVP\H2O1\BOITTIER\26-Aug-2020\0\\
 #p B2PLYPD3/Def2QZVP\\h2o\\0,1\O,0,-5.326605,-0.762361,0.923711\H,0,-4
 .368927,-0.705074,0.881292\H,0,-5.609308,0.086892,0.744605\\Version=ES
 64L-G09RevD.01\State=1-A'\HF=-76.3335336\MP2=-76.4228251\RMSD=5.528e-0
 9\PG=CS [SG(H2O1)]\\@

 GETTING A SIMPLE ANSWER FROM A PROFESSOR IS LIKE

 Normal termination of Gaussian 09 at Wed Aug 26 08:30:12 2020.
