 Gaussian 09, Revision D.01,
 Gaussian 09:  ES64L-G09RevD.01 24-Apr-2013

 --------------------
 #p B2PLYPD3/Def2QZVP
 --------------------

 ---
 h2o
 ---
 Symbolic Z-matrix:
 Charge =  0 Multiplicity = 1

                         Standard orientation:
 ---------------------------------------------------------------------
 Center     Atomic      Atomic             Coordinates (Angstroms)
 Number     Number       Type             X           Y           Z
 ---------------------------------------------------------------------
      1          8           0        0.000000    0.109540    0.000000
      2          1           0        0.781400   -0.449110    0.000000
      3          1           0       -0.781400   -0.427212    0.000000
 ---------------------------------------------------------------------

 SCF Done:  E(RB2PLYPD3) =  -76.3347176263     A.U. after   10 cycles
 E2(B2PLYPD3) =    -0.8971784316D-01 E(B2PLYPD3) =    -0.76424435469493D+02

 The electronic state is 1-A'.
 Alpha  occ. eigenvalues --  -19.72835  -1.15519  -0.62435  -0.46525  -0.39874
 Alpha virt. eigenvalues --    0.04673   0.10157   0.27404   0.30416   0.31598
 Alpha virt. eigenvalues --    0.35176   0.44077   0.51411   0.55528   0.63841
 Alpha virt. eigenvalues --    0.65423   0.80825   0.93545   0.96041   1.05329

 Mulliken charges:
               1
     1  O   -0.451408
     2  H    0.228659
     3  H    0.222750
 Sum of Mulliken charges =   0.00000

 Dipole moment (field-independent basis, Debye):
    X=             -0.0056    Y=             -1.8736    Z=              0.0000  Tot=              1.8736
 Quadrupole moment (field-independent basis, Debye-Ang):
   XX=             -4.1225   YY=             -6.4769   ZZ=             -7.5938
   XY=             -0.0387   XZ=              0.0000   YZ=              0.0000

 1\1\GINC-NODE17\SP\RB2PLYPD3-FC\def2QZVP\H2O1\BOITTIER\26-Aug-2020\0\\
 #p B2PLYPD3/Def2QZVP\\h2o\\0,1\O,0,-5.326605,-0.759918,0.910449\H,0,-4
 .368927,-0.801101,0.972349\H,0,-5.609308,0.143831,0.865676\\Version=ES
 64L-G09RevD.01\State=1-A'\HF=-76.3347176\MP2=-76.4244355\RMSD=3.876e-0
 9\PG=CS [SG(H2O1)]\\@

 IN NATURE THERE ARE NEITHER REWARDS OR

 Normal termination of Gaussian 09 at Wed Aug 26 09:05:42 2020.
