 Gaussian 09, Revision D.01,
 Gaussian 09:  ES64L-G09RevD.01 24-Apr-2013

 --------------------
 #p B2PLYPD3/Def2QZVP
 --------------------

 ---
 h2o
 ---
 Symbolic Z-matrix:
 Charge =  0 Multiplicity = 1

                         Standard orientation:
 ---------------------------------------------------------------------
 Center     Atomic      Atomic             Coordinates (Angstroms)
 Number     Number       Type             X           Y           Z
 ---------------------------------------------------------------------
      1          8           0        0.000000    0.116806    0.000000
      2          1           0        0.758672   -0.471356    0.000000
      3          1           0       -0.758672   -0.463089    0.000000
 ---------------------------------------------------------------------

 SCF Done:  E(RB2PLYPD3) =  -76.3351660856     A.U. after   10 cycles
 E2(B2PLYPD3) =    -0.8994710412D-01 E(B2PLYPD3) =    -0.76425113189772D+02

 The electronic state is 1-A'.
 Alpha  occ. eigenvalues --  -19.73103  -1.15727  -0.61367  -0.47448  -0.39973
 Alpha virt. eigenvalues --    0.04554   0.10218   0.27503   0.30409   0.31031
 Alpha virt. eigenvalues --    0.35935   0.44009   0.50301   0.56251   0.62245
 Alpha virt. eigenvalues --    0.65597   0.81180   0.93857   0.95909   1.03990

 Mulliken charges:
               1
     1  O   -0.442477
     2  H    0.222372
     3  H    0.220105
 Sum of Mulliken charges =   0.00000

 Dipole moment (field-independent basis, Debye):
    X=             -0.0026    Y=             -1.9576    Z=              0.0000  Tot=              1.9576
 Quadrupole moment (field-independent basis, Debye-Ang):
   XX=             -4.3327   YY=             -6.3303   ZZ=             -7.5909
   XY=             -0.0136   XZ=              0.0000   YZ=              0.0000

 1\1\GINC-NODE35\SP\RB2PLYPD3-FC\def2QZVP\H2O1\BOITTIER\26-Aug-2020\0\\
 #p B2PLYPD3/Def2QZVP\\h2o\\0,1\O,0,-5.326605,-0.762888,0.926128\H,0,-4
 .368927,-0.735963,0.865756\H,0,-5.609308,0.126219,0.722589\\Version=ES
 64L-G09RevD.01\State=1-A'\HF=-76.3351661\MP2=-76.4251132\RMSD=4.073e-0
 9\PG=CS [SG(H2O1)]\\@

 I (ERNEST RUTHERFORD) CAME INTO THE ROOM, WHICH WAS HALF DARK, AND PRESENTLY

 Normal termination of Gaussian 09 at Wed Aug 26 08:02:51 2020.
