 Gaussian 09, Revision D.01,
 Gaussian 09:  ES64L-G09RevD.01 24-Apr-2013

 --------------------
 #p B2PLYPD3/Def2QZVP
 --------------------

 ---
 h2o
 ---
 Symbolic Z-matrix:
 Charge =  0 Multiplicity = 1

                         Standard orientation:
 ---------------------------------------------------------------------
 Center     Atomic      Atomic             Coordinates (Angstroms)
 Number     Number       Type             X           Y           Z
 ---------------------------------------------------------------------
      1          8           0        0.000000    0.117567    0.000000
      2          1           0        0.762931   -0.463619    0.000000
      3          1           0       -0.762931   -0.476915    0.000000
 ---------------------------------------------------------------------

 SCF Done:  E(RB2PLYPD3) =  -76.3349215703     A.U. after   10 cycles
 E2(B2PLYPD3) =    -0.9013570680D-01 E(B2PLYPD3) =    -0.76425057277068D+02

 The electronic state is 1-A'.
 Alpha  occ. eigenvalues --  -19.73196  -1.15462  -0.61097  -0.47381  -0.39926
 Alpha virt. eigenvalues --    0.04489   0.10164   0.27541   0.30423   0.30910
 Alpha virt. eigenvalues --    0.35693   0.43850   0.50241   0.56186   0.62184
 Alpha virt. eigenvalues --    0.65740   0.81037   0.93689   0.96025   1.03554

 Mulliken charges:
               1
     1  O   -0.446800
     2  H    0.221637
     3  H    0.225164
 Sum of Mulliken charges =   0.00000

 Dipole moment (field-independent basis, Debye):
    X=              0.0041    Y=             -1.9622    Z=              0.0000  Tot=              1.9622
 Quadrupole moment (field-independent basis, Debye-Ang):
   XX=             -4.3225   YY=             -6.3321   ZZ=             -7.6038
   XY=              0.0219   XZ=              0.0000   YZ=              0.0000

 1\1\GINC-NODE19\SP\RB2PLYPD3-FC\def2QZVP\H2O1\BOITTIER\26-Aug-2020\0\\
 #p B2PLYPD3/Def2QZVP\\h2o\\0,1\O,0,-5.326605,-0.765126,0.917509\H,0,-4
 .368927,-0.723076,0.947931\H,0,-5.609308,0.149141,0.777269\\Version=ES
 64L-G09RevD.01\State=1-A'\HF=-76.3349216\MP2=-76.4250573\RMSD=4.043e-0
 9\PG=CS [SG(H2O1)]\\@

 E PUR SI MUOVE    -- GALILEO GALILEI

 Normal termination of Gaussian 09 at Wed Aug 26 10:08:25 2020.
