 Gaussian 09, Revision D.01,
 Gaussian 09:  ES64L-G09RevD.01 24-Apr-2013

 --------------------
 #p B2PLYPD3/Def2QZVP
 --------------------

 ---
 h2o
 ---
 Symbolic Z-matrix:
 Charge =  0 Multiplicity = 1

                         Standard orientation:
 ---------------------------------------------------------------------
 Center     Atomic      Atomic             Coordinates (Angstroms)
 Number     Number       Type             X           Y           Z
 ---------------------------------------------------------------------
      1          8           0        0.000000    0.117648    0.000000
      2          1           0        0.755227   -0.474354    0.000000
      3          1           0       -0.755227   -0.466832    0.000000
 ---------------------------------------------------------------------

 SCF Done:  E(RB2PLYPD3) =  -76.3351407407     A.U. after   10 cycles
 E2(B2PLYPD3) =    -0.8996188134D-01 E(B2PLYPD3) =    -0.76425102622023D+02

 The electronic state is 1-A'.
 Alpha  occ. eigenvalues --  -19.73128  -1.15781  -0.61252  -0.47574  -0.39990
 Alpha virt. eigenvalues --    0.04543   0.10231   0.27513   0.30407   0.30972
 Alpha virt. eigenvalues --    0.36049   0.44016   0.50184   0.56351   0.62054
 Alpha virt. eigenvalues --    0.65607   0.81220   0.93930   0.95893   1.03867

 Mulliken charges:
               1
     1  O   -0.440963
     2  H    0.221519
     3  H    0.219444
 Sum of Mulliken charges =   0.00000

 Dipole moment (field-independent basis, Debye):
    X=             -0.0024    Y=             -1.9675    Z=              0.0000  Tot=              1.9675
 Quadrupole moment (field-independent basis, Debye-Ang):
   XX=             -4.3610   YY=             -6.3111   ZZ=             -7.5893
   XY=             -0.0123   XZ=              0.0000   YZ=              0.0000

 1\1\GINC-NODE24\SP\RB2PLYPD3-FC\def2QZVP\H2O1\BOITTIER\26-Aug-2020\0\\
 #p B2PLYPD3/Def2QZVP\\h2o\\0,1\O,0,-5.326605,-0.763822,0.924865\H,0,-4
 .368927,-0.72139,0.881432\H,0,-5.609308,0.126588,0.726792\\Version=ES6
 4L-G09RevD.01\State=1-A'\HF=-76.3351407\MP2=-76.4251026\RMSD=4.136e-09
 \PG=CS [SG(H2O1)]\\@

    WHAT WE HAVE LEARNED

 Normal termination of Gaussian 09 at Wed Aug 26 09:34:20 2020.
