 Gaussian 09, Revision D.01,
 Gaussian 09:  ES64L-G09RevD.01 24-Apr-2013

 --------------------
 #p B2PLYPD3/Def2QZVP
 --------------------

 ---
 h2o
 ---
 Symbolic Z-matrix:
 Charge =  0 Multiplicity = 1

                         Standard orientation:
 ---------------------------------------------------------------------
 Center     Atomic      Atomic             Coordinates (Angstroms)
 Number     Number       Type             X           Y           Z
 ---------------------------------------------------------------------
      1          8           0        0.000000    0.113876    0.000000
      2          1           0        0.708699   -0.540639    0.000000
      3          1           0       -0.708699   -0.370373    0.000000
 ---------------------------------------------------------------------

 SCF Done:  E(RB2PLYPD3) =  -76.3238828068     A.U. after   10 cycles
 E2(B2PLYPD3) =    -0.8853863153D-01 E(B2PLYPD3) =    -0.76412421438361D+02

 The electronic state is 1-A'.
 Alpha  occ. eigenvalues --  -19.72347  -1.18471  -0.63170  -0.48395  -0.40448
 Alpha virt. eigenvalues --    0.04869   0.10669   0.27130   0.30280   0.31265
 Alpha virt. eigenvalues --    0.38171   0.45780   0.50387   0.56953   0.62096
 Alpha virt. eigenvalues --    0.64409   0.82171   0.94173   0.95374   1.05334

 Mulliken charges:
               1
     1  O   -0.385848
     2  H    0.224861
     3  H    0.160987
 Sum of Mulliken charges =   0.00000

 Dipole moment (field-independent basis, Debye):
    X=             -0.0565    Y=             -1.9551    Z=              0.0000  Tot=              1.9559
 Quadrupole moment (field-independent basis, Debye-Ang):
   XX=             -4.5238   YY=             -6.2119   ZZ=             -7.4779
   XY=             -0.2629   XZ=              0.0000   YZ=              0.0000

 1\1\GINC-NODE26\SP\RB2PLYPD3-FC\def2QZVP\H2O1\BOITTIER\26-Aug-2020\0\\
 #p B2PLYPD3/Def2QZVP\\h2o\\0,1\O,0,-5.326605,-0.760825,0.925928\H,0,-4
 .368927,-0.669798,0.853738\H,0,-5.609308,0.027038,0.735922\\Version=ES
 64L-G09RevD.01\State=1-A'\HF=-76.3238828\MP2=-76.4124214\RMSD=6.685e-0
 9\PG=CS [SG(H2O1)]\\@

 KNOWING HOW CONTENTED, FREE, AND JOYFUL IS LIFE IN

 Normal termination of Gaussian 09 at Wed Aug 26 09:18:10 2020.
