 Gaussian 09, Revision D.01,
 Gaussian 09:  ES64L-G09RevD.01 24-Apr-2013

 --------------------
 #p B2PLYPD3/Def2QZVP
 --------------------

 ---
 h2o
 ---
 Symbolic Z-matrix:
 Charge =  0 Multiplicity = 1

                         Standard orientation:
 ---------------------------------------------------------------------
 Center     Atomic      Atomic             Coordinates (Angstroms)
 Number     Number       Type             X           Y           Z
 ---------------------------------------------------------------------
      1          8           0        0.000000    0.111640    0.000000
      2          1           0        0.759283   -0.472817    0.000000
      3          1           0       -0.759283   -0.420303    0.000000
 ---------------------------------------------------------------------

 SCF Done:  E(RB2PLYPD3) =  -76.3346171956     A.U. after   10 cycles
 E2(B2PLYPD3) =    -0.8940076531D-01 E(B2PLYPD3) =    -0.76424017960935D+02

 The electronic state is 1-A'.
 Alpha  occ. eigenvalues --  -19.72754  -1.16276  -0.62538  -0.47156  -0.40042
 Alpha virt. eigenvalues --    0.04753   0.10307   0.27364   0.30377   0.31501
 Alpha virt. eigenvalues --    0.36159   0.44454   0.50939   0.56037   0.63145
 Alpha virt. eigenvalues --    0.65162   0.81386   0.93975   0.95693   1.05359

 Mulliken charges:
               1
     1  O   -0.434761
     2  H    0.225119
     3  H    0.209642
 Sum of Mulliken charges =   0.00000

 Dipole moment (field-independent basis, Debye):
    X=             -0.0149    Y=             -1.9072    Z=              0.0000  Tot=              1.9072
 Quadrupole moment (field-independent basis, Debye-Ang):
   XX=             -4.2596   YY=             -6.3917   ZZ=             -7.5614
   XY=             -0.0889   XZ=              0.0000   YZ=              0.0000

 1\1\GINC-NODE15\SP\RB2PLYPD3-FC\def2QZVP\H2O1\BOITTIER\26-Aug-2020\0\\
 #p B2PLYPD3/Def2QZVP\\h2o\\0,1\O,0,-5.326605,-0.761271,0.914953\H,0,-4
 .368927,-0.752277,0.944505\H,0,-5.609308,0.116661,0.821204\\Version=ES
 64L-G09RevD.01\State=1-A'\HF=-76.3346172\MP2=-76.424018\RMSD=4.696e-09
 \PG=CS [SG(H2O1)]\\@

 I do not feel obliged to believe that the same God who

 Normal termination of Gaussian 09 at Wed Aug 26 08:58:47 2020.
