 Gaussian 09, Revision D.01,
 Gaussian 09:  ES64L-G09RevD.01 24-Apr-2013

 --------------------
 #p B2PLYPD3/Def2QZVP
 --------------------

 ---
 h2o
 ---
 Symbolic Z-matrix:
 Charge =  0 Multiplicity = 1

                         Standard orientation:
 ---------------------------------------------------------------------
 Center     Atomic      Atomic             Coordinates (Angstroms)
 Number     Number       Type             X           Y           Z
 ---------------------------------------------------------------------
      1          8           0        0.000000    0.119208    0.000000
      2          1           0        0.756539   -0.470995    0.000000
      3          1           0       -0.756539   -0.482670    0.000000
 ---------------------------------------------------------------------

 SCF Done:  E(RB2PLYPD3) =  -76.3348611197     A.U. after   10 cycles
 E2(B2PLYPD3) =    -0.9017423944D-01 E(B2PLYPD3) =    -0.76425035359125D+02

 The electronic state is 1-A'.
 Alpha  occ. eigenvalues --  -19.73247  -1.15550  -0.60868  -0.47616  -0.39956
 Alpha virt. eigenvalues --    0.04466   0.10186   0.27562   0.30419   0.30792
 Alpha virt. eigenvalues --    0.35892   0.43856   0.50017   0.56374   0.61820
 Alpha virt. eigenvalues --    0.65767   0.81109   0.93824   0.96003   1.03308

 Mulliken charges:
               1
     1  O   -0.444105
     2  H    0.220492
     3  H    0.223613
 Sum of Mulliken charges =   0.00000

 Dipole moment (field-independent basis, Debye):
    X=              0.0038    Y=             -1.9814    Z=              0.0000  Tot=              1.9814
 Quadrupole moment (field-independent basis, Debye-Ang):
   XX=             -4.3763   YY=             -6.2954   ZZ=             -7.6015
   XY=              0.0189   XZ=              0.0000   YZ=              0.0000

 1\1\GINC-NODE06\SP\RB2PLYPD3-FC\def2QZVP\H2O1\BOITTIER\26-Aug-2020\0\\
 #p B2PLYPD3/Def2QZVP\\h2o\\0,1\O,0,-5.326605,-0.765173,0.923779\H,0,-4
 .368927,-0.711354,0.898347\H,0,-5.609308,0.13816,0.727115\\Version=ES6
 4L-G09RevD.01\State=1-A'\HF=-76.3348611\MP2=-76.4250354\RMSD=4.154e-09
 \PG=CS [SG(H2O1)]\\@

 IF YOU GET CONFUSED, LOGIC OUT YOUR DILEMMA

 Normal termination of Gaussian 09 at Wed Aug 26 10:10:38 2020.
