 Gaussian 09, Revision D.01,
 Gaussian 09:  ES64L-G09RevD.01 24-Apr-2013

 --------------------
 #p B2PLYPD3/Def2QZVP
 --------------------

 ---
 h2o
 ---
 Symbolic Z-matrix:
 Charge =  0 Multiplicity = 1

                         Standard orientation:
 ---------------------------------------------------------------------
 Center     Atomic      Atomic             Coordinates (Angstroms)
 Number     Number       Type             X           Y           Z
 ---------------------------------------------------------------------
      1          8           0        0.000000    0.117238    0.000000
      2          1           0        0.749282   -0.482075    0.000000
      3          1           0       -0.749282   -0.455832    0.000000
 ---------------------------------------------------------------------

 SCF Done:  E(RB2PLYPD3) =  -76.3350849776     A.U. after   10 cycles
 E2(B2PLYPD3) =    -0.8977651965D-01 E(B2PLYPD3) =    -0.76424861497268D+02

 The electronic state is 1-A'.
 Alpha  occ. eigenvalues --  -19.73041  -1.16087  -0.61479  -0.47697  -0.40047
 Alpha virt. eigenvalues --    0.04600   0.10291   0.27476   0.30391   0.31053
 Alpha virt. eigenvalues --    0.36353   0.44195   0.50195   0.56457   0.62034
 Alpha virt. eigenvalues --    0.65461   0.81372   0.94104   0.95770   1.04219

 Mulliken charges:
               1
     1  O   -0.435546
     2  H    0.221529
     3  H    0.214017
 Sum of Mulliken charges =   0.00000

 Dipole moment (field-independent basis, Debye):
    X=             -0.0084    Y=             -1.9671    Z=              0.0000  Tot=              1.9671
 Quadrupole moment (field-independent basis, Debye-Ang):
   XX=             -4.3839   YY=             -6.3001   ZZ=             -7.5753
   XY=             -0.0425   XZ=              0.0000   YZ=              0.0000

 1\1\GINC-NODE01\SP\RB2PLYPD3-FC\def2QZVP\H2O1\BOITTIER\26-Aug-2020\0\\
 #p B2PLYPD3/Def2QZVP\\h2o\\0,1\O,0,-5.326605,-0.764355,0.92114\H,0,-4.
 368927,-0.706007,0.914131\H,0,-5.609308,0.119738,0.752938\\Version=ES6
 4L-G09RevD.01\State=1-A'\HF=-76.335085\MP2=-76.4248615\RMSD=4.358e-09\
 PG=CS [SG(H2O1)]\\@

      SCIENCE SANS CONSCIENCE N'EST QUE RUINE DE L'AME.

 Normal termination of Gaussian 09 at Wed Aug 26 09:31:55 2020.
