 Gaussian 09, Revision D.01,
 Gaussian 09:  ES64L-G09RevD.01 24-Apr-2013

 --------------------
 #p B2PLYPD3/Def2QZVP
 --------------------

 ---
 h2o
 ---
 Symbolic Z-matrix:
 Charge =  0 Multiplicity = 1

                         Standard orientation:
 ---------------------------------------------------------------------
 Center     Atomic      Atomic             Coordinates (Angstroms)
 Number     Number       Type             X           Y           Z
 ---------------------------------------------------------------------
      1          8           0        0.000000    0.121911    0.000000
      2          1           0        0.736815   -0.501756    0.000000
      3          1           0       -0.736815   -0.473533    0.000000
 ---------------------------------------------------------------------

 SCF Done:  E(RB2PLYPD3) =  -76.3344966783     A.U. after   10 cycles
 E2(B2PLYPD3) =    -0.9004278396D-01 E(B2PLYPD3) =    -0.76424539462235D+02

 The electronic state is 1-A'.
 Alpha  occ. eigenvalues --  -19.73245  -1.16084  -0.60653  -0.48230  -0.40080
 Alpha virt. eigenvalues --    0.04478   0.10301   0.27562   0.30393   0.30672
 Alpha virt. eigenvalues --    0.36607   0.44070   0.49652   0.56872   0.61097
 Alpha virt. eigenvalues --    0.65641   0.81363   0.94342   0.95835   1.03294

 Mulliken charges:
               1
     1  O   -0.433063
     2  H    0.220536
     3  H    0.212527
 Sum of Mulliken charges =   0.00000

 Dipole moment (field-independent basis, Debye):
    X=             -0.0099    Y=             -2.0178    Z=              0.0000  Tot=              2.0178
 Quadrupole moment (field-independent basis, Debye-Ang):
   XX=             -4.5080   YY=             -6.2105   ZZ=             -7.5812
   XY=             -0.0436   XZ=              0.0000   YZ=              0.0000

 1\1\GINC-NODE40\SP\RB2PLYPD3-FC\def2QZVP\H2O1\BOITTIER\26-Aug-2020\0\\
 #p B2PLYPD3/Def2QZVP\\h2o\\0,1\O,0,-5.326605,-0.767823,0.919391\H,0,-4
 .368927,-0.650202,0.948993\H,0,-5.609308,0.119413,0.7452\\Version=ES64
 L-G09RevD.01\State=1-A'\HF=-76.3344967\MP2=-76.4245395\RMSD=4.666e-09\
 PG=CS [SG(H2O1)]\\@

 IT MATTERS NOT HOW DEEP YOU PLOW,

 Normal termination of Gaussian 09 at Wed Aug 26 09:05:55 2020.
