 Gaussian 09, Revision D.01,
 Gaussian 09:  ES64L-G09RevD.01 24-Apr-2013

 --------------------
 #p B2PLYPD3/Def2QZVP
 --------------------

 ---
 h2o
 ---
 Symbolic Z-matrix:
 Charge =  0 Multiplicity = 1

                         Standard orientation:
 ---------------------------------------------------------------------
 Center     Atomic      Atomic             Coordinates (Angstroms)
 Number     Number       Type             X           Y           Z
 ---------------------------------------------------------------------
      1          8           0        0.000000    0.114632    0.000000
      2          1           0        0.731910   -0.507650    0.000000
      3          1           0       -0.731910   -0.409409    0.000000
 ---------------------------------------------------------------------

 SCF Done:  E(RB2PLYPD3) =  -76.3321674932     A.U. after   10 cycles
 E2(B2PLYPD3) =    -0.8909999553D-01 E(B2PLYPD3) =    -0.76421267488762D+02

 The electronic state is 1-A'.
 Alpha  occ. eigenvalues --  -19.72672  -1.17202  -0.62481  -0.47952  -0.40236
 Alpha virt. eigenvalues --    0.04784   0.10481   0.27309   0.30336   0.31294
 Alpha virt. eigenvalues --    0.37277   0.44932   0.50399   0.56658   0.62241
 Alpha virt. eigenvalues --    0.64899   0.81826   0.94339   0.95446   1.05165

 Mulliken charges:
               1
     1  O   -0.414412
     2  H    0.223260
     3  H    0.191151
 Sum of Mulliken charges =   0.00000

 Dipole moment (field-independent basis, Debye):
    X=             -0.0313    Y=             -1.9513    Z=              0.0000  Tot=              1.9515
 Quadrupole moment (field-independent basis, Debye-Ang):
   XX=             -4.4296   YY=             -6.2788   ZZ=             -7.5261
   XY=             -0.1568   XZ=              0.0000   YZ=              0.0000

 1\1\GINC-NODE34\SP\RB2PLYPD3-FC\def2QZVP\H2O1\BOITTIER\26-Aug-2020\0\\
 #p B2PLYPD3/Def2QZVP\\h2o\\0,1\O,0,-5.326605,-0.762096,0.923211\H,0,-4
 .368927,-0.697242,0.883522\H,0,-5.609308,0.074816,0.750093\\Version=ES
 64L-G09RevD.01\State=1-A'\HF=-76.3321675\MP2=-76.4212675\RMSD=6.079e-0
 9\PG=CS [SG(H2O1)]\\@

 SIC AS THE CAWSE OF EWERY THING IS, SIC WILBE THE EFFECT.

 Normal termination of Gaussian 09 at Wed Aug 26 08:30:55 2020.
