 Gaussian 09, Revision D.01,
 Gaussian 09:  ES64L-G09RevD.01 24-Apr-2013

 --------------------
 #p B2PLYPD3/Def2QZVP
 --------------------

 ---
 h2o
 ---
 Symbolic Z-matrix:
 Charge =  0 Multiplicity = 1

                         Standard orientation:
 ---------------------------------------------------------------------
 Center     Atomic      Atomic             Coordinates (Angstroms)
 Number     Number       Type             X           Y           Z
 ---------------------------------------------------------------------
      1          8           0        0.000000    0.110172    0.000000
      2          1           0        0.754204   -0.481883    0.000000
      3          1           0       -0.754204   -0.399493    0.000000
 ---------------------------------------------------------------------

 SCF Done:  E(RB2PLYPD3) =  -76.3333901127     A.U. after   10 cycles
 E2(B2PLYPD3) =    -0.8913508543D-01 E(B2PLYPD3) =    -0.76422525198159D+02

 The electronic state is 1-A'.
 Alpha  occ. eigenvalues --  -19.72597  -1.16677  -0.63007  -0.47181  -0.40108
 Alpha virt. eigenvalues --    0.04831   0.10371   0.27298   0.30355   0.31607
 Alpha virt. eigenvalues --    0.36453   0.44733   0.51096   0.56058   0.63342
 Alpha virt. eigenvalues --    0.64941   0.81557   0.94050   0.95575   1.05596

 Mulliken charges:
               1
     1  O   -0.426964
     2  H    0.226213
     3  H    0.200751
 Sum of Mulliken charges =   0.00000

 Dipole moment (field-independent basis, Debye):
    X=             -0.0230    Y=             -1.8953    Z=              0.0000  Tot=              1.8955
 Quadrupole moment (field-independent basis, Debye-Ang):
   XX=             -4.2645   YY=             -6.3923   ZZ=             -7.5430
   XY=             -0.1395   XZ=              0.0000   YZ=              0.0000

 1\1\GINC-NODE15\SP\RB2PLYPD3-FC\def2QZVP\H2O1\BOITTIER\26-Aug-2020\0\\
 #p B2PLYPD3/Def2QZVP\\h2o\\0,1\O,0,-5.326605,-0.76036,0.912442\H,0,-4.
 368927,-0.752581,0.958749\H,0,-5.609308,0.102386,0.846643\\Version=ES6
 4L-G09RevD.01\State=1-A'\HF=-76.3333901\MP2=-76.4225252\RMSD=5.561e-09
 \PG=CS [SG(H2O1)]\\@

 A politician is a person who can make waves and then

 Normal termination of Gaussian 09 at Wed Aug 26 09:16:51 2020.
