 Gaussian 09, Revision D.01,
 Gaussian 09:  ES64L-G09RevD.01 24-Apr-2013

 --------------------
 #p B2PLYPD3/Def2QZVP
 --------------------

 ---
 h2o
 ---
 Symbolic Z-matrix:
 Charge =  0 Multiplicity = 1

                         Standard orientation:
 ---------------------------------------------------------------------
 Center     Atomic      Atomic             Coordinates (Angstroms)
 Number     Number       Type             X           Y           Z
 ---------------------------------------------------------------------
      1          8           0        0.000000    0.115336    0.000000
      2          1           0        0.715416   -0.534033    0.000000
      3          1           0       -0.715416   -0.388652    0.000000
 ---------------------------------------------------------------------

 SCF Done:  E(RB2PLYPD3) =  -76.3276959918     A.U. after   10 cycles
 E2(B2PLYPD3) =    -0.8883232657D-01 E(B2PLYPD3) =    -0.76416528318372D+02

 The electronic state is 1-A'.
 Alpha  occ. eigenvalues --  -19.72534  -1.17936  -0.62666  -0.48342  -0.40365
 Alpha virt. eigenvalues --    0.04801   0.10599   0.27225   0.30305   0.31179
 Alpha virt. eigenvalues --    0.37884   0.45406   0.50250   0.56930   0.61929
 Alpha virt. eigenvalues --    0.64642   0.82020   0.94293   0.95402   1.05068

 Mulliken charges:
               1
     1  O   -0.398000
     2  H    0.224716
     3  H    0.173283
 Sum of Mulliken charges =   0.00000

 Dipole moment (field-independent basis, Debye):
    X=             -0.0486    Y=             -1.9661    Z=              0.0000  Tot=              1.9667
 Quadrupole moment (field-independent basis, Debye-Ang):
   XX=             -4.5140   YY=             -6.2187   ZZ=             -7.4997
   XY=             -0.2251   XZ=              0.0000   YZ=              0.0000

 1\1\GINC-NODE09\SP\RB2PLYPD3-FC\def2QZVP\H2O1\BOITTIER\26-Aug-2020\0\\
 #p B2PLYPD3/Def2QZVP\\h2o\\0,1\O,0,-5.326605,-0.760886,0.928988\H,0,-4
 .368927,-0.679991,0.829956\H,0,-5.609308,0.038209,0.71139\\Version=ES6
 4L-G09RevD.01\State=1-A'\HF=-76.327696\MP2=-76.4165283\RMSD=6.736e-09\
 PG=CS [SG(H2O1)]\\@

 THE FIRST AND LAST THING REQUIRED OF GENIUS IS THE LOVE OF TRUTH.

 Normal termination of Gaussian 09 at Wed Aug 26 09:12:49 2020.
