 Gaussian 09, Revision D.01,
 Gaussian 09:  ES64L-G09RevD.01 24-Apr-2013

 --------------------
 #p B2PLYPD3/Def2QZVP
 --------------------

 ---
 h2o
 ---
 Symbolic Z-matrix:
 Charge =  0 Multiplicity = 1

                         Standard orientation:
 ---------------------------------------------------------------------
 Center     Atomic      Atomic             Coordinates (Angstroms)
 Number     Number       Type             X           Y           Z
 ---------------------------------------------------------------------
      1          8           0        0.000000    0.114498    0.000000
      2          1           0        0.737306   -0.500794    0.000000
      3          1           0       -0.737306   -0.415191    0.000000
 ---------------------------------------------------------------------

 SCF Done:  E(RB2PLYPD3) =  -76.3330901841     A.U. after   10 cycles
 E2(B2PLYPD3) =    -0.8920380170D-01 E(B2PLYPD3) =    -0.76422293985831D+02

 The electronic state is 1-A'.
 Alpha  occ. eigenvalues --  -19.72722  -1.16962  -0.62392  -0.47822  -0.40191
 Alpha virt. eigenvalues --    0.04765   0.10440   0.27335   0.30347   0.31304
 Alpha virt. eigenvalues --    0.37049   0.44787   0.50443   0.56559   0.62336
 Alpha virt. eigenvalues --    0.64990   0.81738   0.94293   0.95492   1.05117

 Mulliken charges:
               1
     1  O   -0.419471
     2  H    0.223350
     3  H    0.196121
 Sum of Mulliken charges =   0.00000

 Dipole moment (field-independent basis, Debye):
    X=             -0.0269    Y=             -1.9472    Z=              0.0000  Tot=              1.9473
 Quadrupole moment (field-independent basis, Debye-Ang):
   XX=             -4.4027   YY=             -6.2964   ZZ=             -7.5356
   XY=             -0.1379   XZ=              0.0000   YZ=              0.0000

 1\1\GINC-NODE17\SP\RB2PLYPD3-FC\def2QZVP\H2O1\BOITTIER\26-Aug-2020\0\\
 #p B2PLYPD3/Def2QZVP\\h2o\\0,1\O,0,-5.326605,-0.761829,0.923932\H,0,-4
 .368927,-0.709046,0.876276\H,0,-5.609308,0.082358,0.74612\\Version=ES6
 4L-G09RevD.01\State=1-A'\HF=-76.3330902\MP2=-76.422294\RMSD=5.739e-09\
 PG=CS [SG(H2O1)]\\@

 IT WAS A GAME, A VERY INTERESTING GAME ONE COULD

 Normal termination of Gaussian 09 at Wed Aug 26 08:31:44 2020.
