 Gaussian 09, Revision D.01,
 Gaussian 09:  ES64L-G09RevD.01 24-Apr-2013

 --------------------
 #p B2PLYPD3/Def2QZVP
 --------------------

 ---
 h2o
 ---
 Symbolic Z-matrix:
 Charge =  0 Multiplicity = 1

                         Standard orientation:
 ---------------------------------------------------------------------
 Center     Atomic      Atomic             Coordinates (Angstroms)
 Number     Number       Type             X           Y           Z
 ---------------------------------------------------------------------
      1          8           0        0.000000    0.113607    0.000000
      2          1           0        0.802822   -0.415187    0.000000
      3          1           0       -0.802822   -0.493670    0.000000
 ---------------------------------------------------------------------

 SCF Done:  E(RB2PLYPD3) =  -76.3316626150     A.U. after   10 cycles
 E2(B2PLYPD3) =    -0.9069754865D-01 E(B2PLYPD3) =    -0.76422360163644D+02

 The electronic state is 1-A'.
 Alpha  occ. eigenvalues --  -19.73298  -1.14238  -0.60975  -0.46209  -0.39632
 Alpha virt. eigenvalues --    0.04285   0.09887   0.27555   0.30492   0.30798
 Alpha virt. eigenvalues --    0.34137   0.43307   0.51078   0.55205   0.63457
 Alpha virt. eigenvalues --    0.66148   0.79962   0.92493   0.96592   1.02687

 Mulliken charges:
               1
     1  O   -0.472335
     2  H    0.227188
     3  H    0.245147
 Sum of Mulliken charges =   0.00000

 Dipole moment (field-independent basis, Debye):
    X=              0.0203    Y=             -1.8998    Z=              0.0000  Tot=              1.8999
 Quadrupole moment (field-independent basis, Debye-Ang):
   XX=             -4.0683   YY=             -6.4798   ZZ=             -7.6603
   XY=              0.1402   XZ=              0.0000   YZ=              0.0000

 1\1\GINC-NODE11\SP\RB2PLYPD3-FC\def2QZVP\H2O1\BOITTIER\26-Aug-2020\0\\
 #p B2PLYPD3/Def2QZVP\\h2o\\0,1\O,0,-5.326605,-0.762764,0.911826\H,0,-4
 .368927,-0.812238,0.979288\H,0,-5.609308,0.200504,0.837649\\Version=ES
 64L-G09RevD.01\State=1-A'\HF=-76.3316626\MP2=-76.4223602\RMSD=4.903e-0
 9\PG=CS [SG(H2O1)]\\@

 NATURE GIVES TO EVERY TIME AND SEASON SOME BEAUTY OF ITS OWN.

 Normal termination of Gaussian 09 at Wed Aug 26 08:50:44 2020.
