 Gaussian 09, Revision D.01,
 Gaussian 09:  ES64L-G09RevD.01 24-Apr-2013

 --------------------
 #p B2PLYPD3/Def2QZVP
 --------------------

 ---
 h2o
 ---
 Symbolic Z-matrix:
 Charge =  0 Multiplicity = 1

                         Standard orientation:
 ---------------------------------------------------------------------
 Center     Atomic      Atomic             Coordinates (Angstroms)
 Number     Number       Type             X           Y           Z
 ---------------------------------------------------------------------
      1          8           0        0.000000    0.125265    0.000000
      2          1           0        0.718191   -0.529231    0.000000
      3          1           0       -0.718191   -0.472885    0.000000
 ---------------------------------------------------------------------

 SCF Done:  E(RB2PLYPD3) =  -76.3330209845     A.U. after   10 cycles
 E2(B2PLYPD3) =    -0.9005134824D-01 E(B2PLYPD3) =    -0.76423072332774D+02

 The electronic state is 1-A'.
 Alpha  occ. eigenvalues --  -19.73300  -1.16492  -0.60207  -0.48839  -0.40179
 Alpha virt. eigenvalues --    0.04427   0.10388   0.27584   0.30375   0.30448
 Alpha virt. eigenvalues --    0.37124   0.44215   0.49325   0.57349   0.60329
 Alpha virt. eigenvalues --    0.65568   0.81453   0.94767   0.95748   1.03072

 Mulliken charges:
               1
     1  O   -0.424151
     2  H    0.220411
     3  H    0.203740
 Sum of Mulliken charges =   0.00000

 Dipole moment (field-independent basis, Debye):
    X=             -0.0215    Y=             -2.0586    Z=              0.0000  Tot=              2.0587
 Quadrupole moment (field-independent basis, Debye-Ang):
   XX=             -4.6418   YY=             -6.1194   ZZ=             -7.5691
   XY=             -0.0828   XZ=              0.0000   YZ=              0.0000

 1\1\GINC-NODE02\SP\RB2PLYPD3-FC\def2QZVP\H2O1\BOITTIER\26-Aug-2020\0\\
 #p B2PLYPD3/Def2QZVP\\h2o\\0,1\O,0,-5.326605,-0.768198,0.928059\H,0,-4
 .368927,-0.610382,0.882122\H,0,-5.609308,0.0856,0.673717\\Version=ES64
 L-G09RevD.01\State=1-A'\HF=-76.333021\MP2=-76.4230723\RMSD=5.421e-09\P
 G=CS [SG(H2O1)]\\@

 WHEN A MATHEMATICIAN ENGAGED IN INVESTIGATING

 Normal termination of Gaussian 09 at Wed Aug 26 08:56:54 2020.
