 Gaussian 09, Revision D.01,
 Gaussian 09:  ES64L-G09RevD.01 24-Apr-2013

 --------------------
 #p B2PLYPD3/Def2QZVP
 --------------------

 ---
 h2o
 ---
 Symbolic Z-matrix:
 Charge =  0 Multiplicity = 1

                         Standard orientation:
 ---------------------------------------------------------------------
 Center     Atomic      Atomic             Coordinates (Angstroms)
 Number     Number       Type             X           Y           Z
 ---------------------------------------------------------------------
      1          8           0        0.000000    0.109653    0.000000
      2          1           0        0.797949   -0.426448    0.000000
      3          1           0       -0.797949   -0.450773    0.000000
 ---------------------------------------------------------------------

 SCF Done:  E(RB2PLYPD3) =  -76.3337059180     A.U. after   10 cycles
 E2(B2PLYPD3) =    -0.9014669129D-01 E(B2PLYPD3) =    -0.76423852609259D+02

 The electronic state is 1-A'.
 Alpha  occ. eigenvalues --  -19.73002  -1.14803  -0.61953  -0.46143  -0.39724
 Alpha virt. eigenvalues --    0.04522   0.10011   0.27460   0.30458   0.31452
 Alpha virt. eigenvalues --    0.34399   0.43678   0.51566   0.55202   0.64059
 Alpha virt. eigenvalues --    0.65769   0.80263   0.93072   0.96389   1.04534

 Mulliken charges:
               1
     1  O   -0.465512
     2  H    0.229748
     3  H    0.235764
 Sum of Mulliken charges =   0.00000

 Dipole moment (field-independent basis, Debye):
    X=              0.0059    Y=             -1.8646    Z=              0.0000  Tot=              1.8646
 Quadrupole moment (field-independent basis, Debye-Ang):
   XX=             -4.0401   YY=             -6.5191   ZZ=             -7.6282
   XY=              0.0440   XZ=              0.0000   YZ=              0.0000

 1\1\GINC-NODE27\SP\RB2PLYPD3-FC\def2QZVP\H2O1\BOITTIER\26-Aug-2020\0\\
 #p B2PLYPD3/Def2QZVP\\h2o\\0,1\O,0,-5.326605,-0.760004,0.911925\H,0,-4
 .368927,-0.827276,0.961469\H,0,-5.609308,0.171389,0.853734\\Version=ES
 64L-G09RevD.01\State=1-A'\HF=-76.3337059\MP2=-76.4238526\RMSD=3.778e-0
 9\PG=CS [SG(H2O1)]\\@

 A great many people think they are thinking when they

 Normal termination of Gaussian 09 at Wed Aug 26 08:51:26 2020.
