 Gaussian 09, Revision D.01,
 Gaussian 09:  ES64L-G09RevD.01 24-Apr-2013

 --------------------
 #p B2PLYPD3/Def2QZVP
 --------------------

 ---
 h2o
 ---
 Symbolic Z-matrix:
 Charge =  0 Multiplicity = 1

                         Standard orientation:
 ---------------------------------------------------------------------
 Center     Atomic      Atomic             Coordinates (Angstroms)
 Number     Number       Type             X           Y           Z
 ---------------------------------------------------------------------
      1          8           0        0.000000    0.121028    0.000000
      2          1           0        0.804015   -0.403608    0.000000
      3          1           0       -0.804015   -0.564618    0.000000
 ---------------------------------------------------------------------

 SCF Done:  E(RB2PLYPD3) =  -76.3257906569     A.U. after   10 cycles
 E2(B2PLYPD3) =    -0.9160580519D-01 E(B2PLYPD3) =    -0.76417396462126D+02

 The electronic state is 1-A'.
 Alpha  occ. eigenvalues --  -19.73764  -1.13540  -0.59412  -0.46443  -0.39537
 Alpha virt. eigenvalues --    0.03833   0.09700   0.27703   0.29394   0.30528
 Alpha virt. eigenvalues --    0.34059   0.42886   0.50146   0.55277   0.62341
 Alpha virt. eigenvalues --    0.66667   0.79571   0.91212   0.96835   1.00636

 Mulliken charges:
               1
     1  O   -0.476325
     2  H    0.221771
     3  H    0.254554
 Sum of Mulliken charges =   0.00000

 Dipole moment (field-independent basis, Debye):
    X=              0.0473    Y=             -1.9665    Z=              0.0000  Tot=              1.9671
 Quadrupole moment (field-independent basis, Debye-Ang):
   XX=             -4.1644   YY=             -6.3759   ZZ=             -7.7060
   XY=              0.2776   XZ=              0.0000   YZ=              0.0000

 1\1\GINC-NODE08\SP\RB2PLYPD3-FC\def2QZVP\H2O1\BOITTIER\26-Aug-2020\0\\
 #p B2PLYPD3/Def2QZVP\\h2o\\0,1\O,0,-5.326605,-0.76768,0.91526\H,0,-4.3
 68927,-0.774557,0.982263\H,0,-5.609308,0.241477,0.78023\\Version=ES64L
 -G09RevD.01\State=1-A'\HF=-76.3257907\MP2=-76.4173965\RMSD=6.706e-09\P
 G=CS [SG(H2O1)]\\@

 THE PROBLEM WITH THE LADDER OF SUCCESS IS YOU CAN'T

 Normal termination of Gaussian 09 at Wed Aug 26 09:18:03 2020.
