 Gaussian 09, Revision D.01,
 Gaussian 09:  ES64L-G09RevD.01 24-Apr-2013

 --------------------
 #p B2PLYPD3/Def2QZVP
 --------------------

 ---
 h2o
 ---
 Symbolic Z-matrix:
 Charge =  0 Multiplicity = 1

                         Standard orientation:
 ---------------------------------------------------------------------
 Center     Atomic      Atomic             Coordinates (Angstroms)
 Number     Number       Type             X           Y           Z
 ---------------------------------------------------------------------
      1          8           0        0.000000    0.119268    0.000000
      2          1           0        0.761353   -0.463870    0.000000
      3          1           0       -0.761353   -0.490271    0.000000
 ---------------------------------------------------------------------

 SCF Done:  E(RB2PLYPD3) =  -76.3345649749     A.U. after   10 cycles
 E2(B2PLYPD3) =    -0.9029634849D-01 E(B2PLYPD3) =    -0.76424861323380D+02

 The electronic state is 1-A'.
 Alpha  occ. eigenvalues --  -19.73296  -1.15343  -0.60749  -0.47498  -0.39915
 Alpha virt. eigenvalues --    0.04425   0.10141   0.27581   0.30430   0.30727
 Alpha virt. eigenvalues --    0.35668   0.43749   0.50038   0.56270   0.61885
 Alpha virt. eigenvalues --    0.65857   0.80989   0.93645   0.96092   1.03058

 Mulliken charges:
               1
     1  O   -0.447700
     2  H    0.220411
     3  H    0.227290
 Sum of Mulliken charges =   0.00000

 Dipole moment (field-independent basis, Debye):
    X=              0.0084    Y=             -1.9790    Z=              0.0000  Tot=              1.9791
 Quadrupole moment (field-independent basis, Debye-Ang):
   XX=             -4.3537   YY=             -6.3068   ZZ=             -7.6111
   XY=              0.0431   XZ=              0.0000   YZ=              0.0000

 1\1\GINC-NODE33\SP\RB2PLYPD3-FC\def2QZVP\H2O1\BOITTIER\26-Aug-2020\0\\
 #p B2PLYPD3/Def2QZVP\\h2o\\0,1\O,0,-5.326605,-0.765352,0.923175\H,0,-4
 .368927,-0.718382,0.904334\H,0,-5.609308,0.148052,0.730903\\Version=ES
 64L-G09RevD.01\State=1-A'\HF=-76.334565\MP2=-76.4248613\RMSD=4.189e-09
 \PG=CS [SG(H2O1)]\\@

 IT IS A PROFOUNDLY ERRONEOUS TRUISM ... THAT WE SHOULD CULTIVATE

 Normal termination of Gaussian 09 at Wed Aug 26 10:12:17 2020.
