 Gaussian 09, Revision D.01,
 Gaussian 09:  ES64L-G09RevD.01 24-Apr-2013

 --------------------
 #p B2PLYPD3/Def2QZVP
 --------------------

 ---
 h2o
 ---
 Symbolic Z-matrix:
 Charge =  0 Multiplicity = 1

                         Standard orientation:
 ---------------------------------------------------------------------
 Center     Atomic      Atomic             Coordinates (Angstroms)
 Number     Number       Type             X           Y           Z
 ---------------------------------------------------------------------
      1          8           0        0.000000    0.124884    0.000000
      2          1           0        0.751219   -0.478688    0.000000
      3          1           0       -0.751219   -0.520384    0.000000
 ---------------------------------------------------------------------

 SCF Done:  E(RB2PLYPD3) =  -76.3331676947     A.U. after   10 cycles
 E2(B2PLYPD3) =    -0.9074286312D-01 E(B2PLYPD3) =    -0.76423910557791D+02

 The electronic state is 1-A'.
 Alpha  occ. eigenvalues --  -19.73584  -1.15136  -0.59700  -0.47997  -0.39918
 Alpha virt. eigenvalues --    0.04240   0.10099   0.27707   0.30181   0.30439
 Alpha virt. eigenvalues --    0.35731   0.43515   0.49407   0.56646   0.60858
 Alpha virt. eigenvalues --    0.66156   0.80908   0.93709   0.96262   1.01783

 Mulliken charges:
               1
     1  O   -0.447221
     2  H    0.218386
     3  H    0.228836
 Sum of Mulliken charges =   0.00000

 Dipole moment (field-independent basis, Debye):
    X=              0.0148    Y=             -2.0363    Z=              0.0000  Tot=              2.0363
 Quadrupole moment (field-independent basis, Debye-Ang):
   XX=             -4.4816   YY=             -6.2099   ZZ=             -7.6272
   XY=              0.0649   XZ=              0.0000   YZ=              0.0000

 1\1\GINC-NODE30\SP\RB2PLYPD3-FC\def2QZVP\H2O1\BOITTIER\26-Aug-2020\0\\
 #p B2PLYPD3/Def2QZVP\\h2o\\0,1\O,0,-5.326605,-0.767516,0.9295\H,0,-4.3
 68927,-0.680313,0.867226\H,0,-5.609308,0.144614,0.667204\\Version=ES64
 L-G09RevD.01\State=1-A'\HF=-76.3331677\MP2=-76.4239106\RMSD=4.556e-09\
 PG=CS [SG(H2O1)]\\@

 BE CAREFUL NOT TO BECOME TOO GOOD OF A SONGBIRD OR

 Normal termination of Gaussian 09 at Wed Aug 26 08:54:21 2020.
