 Gaussian 09, Revision D.01,
 Gaussian 09:  ES64L-G09RevD.01 24-Apr-2013

 --------------------
 #p B2PLYPD3/Def2QZVP
 --------------------

 ---
 h2o
 ---
 Symbolic Z-matrix:
 Charge =  0 Multiplicity = 1

                         Standard orientation:
 ---------------------------------------------------------------------
 Center     Atomic      Atomic             Coordinates (Angstroms)
 Number     Number       Type             X           Y           Z
 ---------------------------------------------------------------------
      1          8           0        0.000000    0.127576    0.000000
      2          1           0        0.743835   -0.491106    0.000000
      3          1           0       -0.743835   -0.529506    0.000000
 ---------------------------------------------------------------------

 SCF Done:  E(RB2PLYPD3) =  -76.3324698683     A.U. after   10 cycles
 E2(B2PLYPD3) =    -0.9091721448D-01 E(B2PLYPD3) =    -0.76423387082752D+02

 The electronic state is 1-A'.
 Alpha  occ. eigenvalues --  -19.73703  -1.15124  -0.59234  -0.48296  -0.39938
 Alpha virt. eigenvalues --    0.04168   0.10096   0.27763   0.29962   0.30438
 Alpha virt. eigenvalues --    0.35814   0.43441   0.49144   0.56881   0.60343
 Alpha virt. eigenvalues --    0.66253   0.80898   0.93885   0.96316   1.01339

 Mulliken charges:
               1
     1  O   -0.445571
     2  H    0.218014
     3  H    0.227557
 Sum of Mulliken charges =   0.00000

 Dipole moment (field-independent basis, Debye):
    X=              0.0144    Y=             -2.0647    Z=              0.0000  Tot=              2.0647
 Quadrupole moment (field-independent basis, Debye-Ang):
   XX=             -4.5554   YY=             -6.1571   ZZ=             -7.6309
   XY=              0.0582   XZ=              0.0000   YZ=              0.0000

 1\1\GINC-NODE04\SP\RB2PLYPD3-FC\def2QZVP\H2O1\BOITTIER\26-Aug-2020\0\\
 #p B2PLYPD3/Def2QZVP\\h2o\\0,1\O,0,-5.326605,-0.768418,0.932303\H,0,-4
 .368927,-0.657979,0.850362\H,0,-5.609308,0.136708,0.639261\\Version=ES
 64L-G09RevD.01\State=1-A'\HF=-76.3324699\MP2=-76.4233871\RMSD=4.672e-0
 9\PG=CS [SG(H2O1)]\\@

 CHEMISTRY BEGAN BY SAYING IT WOULD CHANGE THE BASER

 Normal termination of Gaussian 09 at Wed Aug 26 08:45:55 2020.
