 Gaussian 09, Revision D.01,
 Gaussian 09:  ES64L-G09RevD.01 24-Apr-2013

 --------------------
 #p B2PLYPD3/Def2QZVP
 --------------------

 ---
 h2o
 ---
 Symbolic Z-matrix:
 Charge =  0 Multiplicity = 1

                         Standard orientation:
 ---------------------------------------------------------------------
 Center     Atomic      Atomic             Coordinates (Angstroms)
 Number     Number       Type             X           Y           Z
 ---------------------------------------------------------------------
      1          8           0        0.000000    0.117256    0.000000
      2          1           0        0.773684   -0.448005    0.000000
      3          1           0       -0.773684   -0.490040    0.000000
 ---------------------------------------------------------------------

 SCF Done:  E(RB2PLYPD3) =  -76.3341498624     A.U. after   10 cycles
 E2(B2PLYPD3) =    -0.9036289977D-01 E(B2PLYPD3) =    -0.76424512762147D+02

 The electronic state is 1-A'.
 Alpha  occ. eigenvalues --  -19.73275  -1.15050  -0.60918  -0.47097  -0.39838
 Alpha virt. eigenvalues --    0.04410   0.10075   0.27569   0.30445   0.30805
 Alpha virt. eigenvalues --    0.35222   0.43649   0.50352   0.55942   0.62404
 Alpha virt. eigenvalues --    0.65903   0.80761   0.93310   0.96206   1.03106

 Mulliken charges:
               1
     1  O   -0.454376
     2  H    0.221889
     3  H    0.232487
 Sum of Mulliken charges =   0.00000

 Dipole moment (field-independent basis, Debye):
    X=              0.0126    Y=             -1.9527    Z=              0.0000  Tot=              1.9528
 Quadrupole moment (field-independent basis, Debye-Ang):
   XX=             -4.2653   YY=             -6.3628   ZZ=             -7.6230
   XY=              0.0706   XZ=              0.0000   YZ=              0.0000

 1\1\GINC-NODE40\SP\RB2PLYPD3-FC\def2QZVP\H2O1\BOITTIER\26-Aug-2020\0\\
 #p B2PLYPD3/Def2QZVP\\h2o\\0,1\O,0,-5.326605,-0.764844,0.918117\H,0,-4
 .368927,-0.744646,0.941589\H,0,-5.609308,0.166187,0.774399\\Version=ES
 64L-G09RevD.01\State=1-A'\HF=-76.3341499\MP2=-76.4245128\RMSD=4.231e-0
 9\PG=CS [SG(H2O1)]\\@

 WE LEARN WISDOM FROM FAILURE MUCH MORE THAN FROM SUCCESS.

 Normal termination of Gaussian 09 at Wed Aug 26 10:40:41 2020.
