 Gaussian 09, Revision D.01,
 Gaussian 09:  ES64L-G09RevD.01 24-Apr-2013

 --------------------
 #p B2PLYPD3/Def2QZVP
 --------------------

 ---
 h2o
 ---
 Symbolic Z-matrix:
 Charge =  0 Multiplicity = 1

                         Standard orientation:
 ---------------------------------------------------------------------
 Center     Atomic      Atomic             Coordinates (Angstroms)
 Number     Number       Type             X           Y           Z
 ---------------------------------------------------------------------
      1          8           0        0.000000    0.115377    0.000000
      2          1           0        0.764547   -0.462198    0.000000
      3          1           0       -0.764547   -0.460822    0.000000
 ---------------------------------------------------------------------

 SCF Done:  E(RB2PLYPD3) =  -76.3351719881     A.U. after   10 cycles
 E2(B2PLYPD3) =    -0.8992670228D-01 E(B2PLYPD3) =    -0.76425098690354D+02

 The electronic state is 1-A'.
 Alpha  occ. eigenvalues --  -19.73063  -1.15631  -0.61554  -0.47234  -0.39943
 Alpha virt. eigenvalues --    0.04571   0.10195   0.27487   0.30414   0.31133
 Alpha virt. eigenvalues --    0.35733   0.43993   0.50511   0.56081   0.62572
 Alpha virt. eigenvalues --    0.65581   0.81099   0.93743   0.95943   1.04208

 Mulliken charges:
               1
     1  O   -0.445186
     2  H    0.222780
     3  H    0.222406
 Sum of Mulliken charges =   0.00000

 Dipole moment (field-independent basis, Debye):
    X=             -0.0004    Y=             -1.9405    Z=              0.0000  Tot=              1.9405
 Quadrupole moment (field-independent basis, Debye-Ang):
   XX=             -4.2846   YY=             -6.3631   ZZ=             -7.5938
   XY=             -0.0023   XZ=              0.0000   YZ=              0.0000

 1\1\GINC-NODE37\SP\RB2PLYPD3-FC\def2QZVP\H2O1\BOITTIER\26-Aug-2020\0\\
 #p B2PLYPD3/Def2QZVP\\h2o\\0,1\O,0,-5.326605,-0.763611,0.917625\H,0,-4
 .368927,-0.73968,0.937747\H,0,-5.609308,0.141493,0.785706\\Version=ES6
 4L-G09RevD.01\State=1-A'\HF=-76.335172\MP2=-76.4250987\RMSD=3.954e-09\
 PG=CS [SG(H2O1)]\\@

 OF ALL THE WONDERS OF THE UNIVERSE, THE GREATEST IS MAN.

 Normal termination of Gaussian 09 at Wed Aug 26 10:29:42 2020.
