 Gaussian 09, Revision D.01,
 Gaussian 09:  ES64L-G09RevD.01 24-Apr-2013

 --------------------
 #p B2PLYPD3/Def2QZVP
 --------------------

 ---
 h2o
 ---
 Symbolic Z-matrix:
 Charge =  0 Multiplicity = 1

                         Standard orientation:
 ---------------------------------------------------------------------
 Center     Atomic      Atomic             Coordinates (Angstroms)
 Number     Number       Type             X           Y           Z
 ---------------------------------------------------------------------
      1          8           0        0.000000    0.116334    0.000000
      2          1           0        0.745017   -0.488493    0.000000
      3          1           0       -0.745017   -0.442180    0.000000
 ---------------------------------------------------------------------

 SCF Done:  E(RB2PLYPD3) =  -76.3347377388     A.U. after   10 cycles
 E2(B2PLYPD3) =    -0.8957700453D-01 E(B2PLYPD3) =    -0.76424314743322D+02

 The electronic state is 1-A'.
 Alpha  occ. eigenvalues --  -19.72934  -1.16383  -0.61784  -0.47750  -0.40097
 Alpha virt. eigenvalues --    0.04661   0.10344   0.27430   0.30376   0.31152
 Alpha virt. eigenvalues --    0.36606   0.44388   0.50274   0.56503   0.62125
 Alpha virt. eigenvalues --    0.65300   0.81506   0.94208   0.95659   1.04593

 Mulliken charges:
               1
     1  O   -0.430363
     2  H    0.222056
     3  H    0.208307
 Sum of Mulliken charges =   0.00000

 Dipole moment (field-independent basis, Debye):
    X=             -0.0147    Y=             -1.9608    Z=              0.0000  Tot=              1.9609
 Quadrupole moment (field-independent basis, Debye-Ang):
   XX=             -4.3917   YY=             -6.2987   ZZ=             -7.5616
   XY=             -0.0748   XZ=              0.0000   YZ=              0.0000

 1\1\GINC-NODE02\SP\RB2PLYPD3-FC\def2QZVP\H2O1\BOITTIER\26-Aug-2020\0\\
 #p B2PLYPD3/Def2QZVP\\h2o\\0,1\O,0,-5.326605,-0.763538,0.922104\H,0,-4
 .368927,-0.706169,0.90139\H,0,-5.609308,0.106824,0.750239\\Version=ES6
 4L-G09RevD.01\State=1-A'\HF=-76.3347377\MP2=-76.4243147\RMSD=4.732e-09
 \PG=CS [SG(H2O1)]\\@

 IF NO USE IS MADE OF THE LABOR OF PAST AGES,

 Normal termination of Gaussian 09 at Wed Aug 26 09:59:30 2020.
