 Gaussian 09, Revision D.01,
 Gaussian 09:  ES64L-G09RevD.01 24-Apr-2013

 --------------------
 #p B2PLYPD3/Def2QZVP
 --------------------

 ---
 h2o
 ---
 Symbolic Z-matrix:
 Charge =  0 Multiplicity = 1

                         Standard orientation:
 ---------------------------------------------------------------------
 Center     Atomic      Atomic             Coordinates (Angstroms)
 Number     Number       Type             X           Y           Z
 ---------------------------------------------------------------------
      1          8           0        0.000000    0.112302    0.000000
      2          1           0        0.799074   -0.418648    0.000000
      3          1           0       -0.799074   -0.479767    0.000000
 ---------------------------------------------------------------------

 SCF Done:  E(RB2PLYPD3) =  -76.3327370343     A.U. after   10 cycles
 E2(B2PLYPD3) =    -0.9045739908D-01 E(B2PLYPD3) =    -0.76423194433403D+02

 The electronic state is 1-A'.
 Alpha  occ. eigenvalues --  -19.73181  -1.14509  -0.61352  -0.46241  -0.39681
 Alpha virt. eigenvalues --    0.04388   0.09949   0.27519   0.30476   0.31057
 Alpha virt. eigenvalues --    0.34309   0.43472   0.51216   0.55252   0.63621
 Alpha virt. eigenvalues --    0.65980   0.80141   0.92773   0.96488   1.03339

 Mulliken charges:
               1
     1  O   -0.468599
     2  H    0.227043
     3  H    0.241556
 Sum of Mulliken charges =   0.00000

 Dipole moment (field-independent basis, Debye):
    X=              0.0156    Y=             -1.8897    Z=              0.0000  Tot=              1.8898
 Quadrupole moment (field-independent basis, Debye-Ang):
   XX=             -4.0698   YY=             -6.4878   ZZ=             -7.6454
   XY=              0.1093   XZ=              0.0000   YZ=              0.0000

 1\1\GINC-NODE11\SP\RB2PLYPD3-FC\def2QZVP\H2O1\BOITTIER\26-Aug-2020\0\\
 #p B2PLYPD3/Def2QZVP\\h2o\\0,1\O,0,-5.326605,-0.761316,0.918851\H,0,-4
 .368927,-0.818431,0.91461\H,0,-5.609308,0.183531,0.790759\\Version=ES6
 4L-G09RevD.01\State=1-A'\HF=-76.332737\MP2=-76.4231944\RMSD=4.501e-09\
 PG=CS [SG(H2O1)]\\@

 HE THAT WALD REACHE THE SWEITE ROSE

 Normal termination of Gaussian 09 at Wed Aug 26 09:19:33 2020.
