 Gaussian 09, Revision D.01,
 Gaussian 09:  ES64L-G09RevD.01 24-Apr-2013

 --------------------
 #p B2PLYPD3/Def2QZVP
 --------------------

 ---
 h2o
 ---
 Symbolic Z-matrix:
 Charge =  0 Multiplicity = 1

                         Standard orientation:
 ---------------------------------------------------------------------
 Center     Atomic      Atomic             Coordinates (Angstroms)
 Number     Number       Type             X           Y           Z
 ---------------------------------------------------------------------
      1          8           0        0.000000    0.121077    0.000000
      2          1           0        0.797910   -0.410145    0.000000
      3          1           0       -0.797910   -0.558470    0.000000
 ---------------------------------------------------------------------

 SCF Done:  E(RB2PLYPD3) =  -76.3271803839     A.U. after   10 cycles
 E2(B2PLYPD3) =    -0.9144853602D-01 E(B2PLYPD3) =    -0.76418628919928D+02

 The electronic state is 1-A'.
 Alpha  occ. eigenvalues --  -19.73720  -1.13758  -0.59542  -0.46605  -0.39586
 Alpha virt. eigenvalues --    0.03913   0.09758   0.27705   0.29566   0.30515
 Alpha virt. eigenvalues --    0.34234   0.42987   0.50089   0.55425   0.62232
 Alpha virt. eigenvalues --    0.66575   0.79783   0.91547   0.96776   1.00812

 Mulliken charges:
               1
     1  O   -0.472669
     2  H    0.220764
     3  H    0.251905
 Sum of Mulliken charges =   0.00000

 Dipole moment (field-independent basis, Debye):
    X=              0.0443    Y=             -1.9712    Z=              0.0000  Tot=              1.9717
 Quadrupole moment (field-independent basis, Debye-Ang):
   XX=             -4.1962   YY=             -6.3627   ZZ=             -7.6941
   XY=              0.2534   XZ=              0.0000   YZ=              0.0000

 1\1\GINC-NODE10\SP\RB2PLYPD3-FC\def2QZVP\H2O1\BOITTIER\26-Aug-2020\0\\
 #p B2PLYPD3/Def2QZVP\\h2o\\0,1\O,0,-5.326605,-0.767463,0.917973\H,0,-4
 .368927,-0.765859,0.959292\H,0,-5.609308,0.229304,0.759927\\Version=ES
 64L-G09RevD.01\State=1-A'\HF=-76.3271804\MP2=-76.4186289\RMSD=6.361e-0
 9\PG=CS [SG(H2O1)]\\@

 LENDING MONEY TO FRIENDS CAUSES THEM TO LOSE THEIR MEMORIES.

 Normal termination of Gaussian 09 at Wed Aug 26 08:35:47 2020.
