 Gaussian 09, Revision D.01,
 Gaussian 09:  ES64L-G09RevD.01 24-Apr-2013

 --------------------
 #p B2PLYPD3/Def2QZVP
 --------------------

 ---
 h2o
 ---
 Symbolic Z-matrix:
 Charge =  0 Multiplicity = 1

                         Standard orientation:
 ---------------------------------------------------------------------
 Center     Atomic      Atomic             Coordinates (Angstroms)
 Number     Number       Type             X           Y           Z
 ---------------------------------------------------------------------
      1          8           0        0.000000    0.118772    0.000000
      2          1           0        0.766019   -0.458105    0.000000
      3          1           0       -0.766019   -0.492067    0.000000
 ---------------------------------------------------------------------

 SCF Done:  E(RB2PLYPD3) =  -76.3343669989     A.U. after   10 cycles
 E2(B2PLYPD3) =    -0.9035076686D-01 E(B2PLYPD3) =    -0.76424717765757D+02

 The electronic state is 1-A'.
 Alpha  occ. eigenvalues --  -19.73306  -1.15204  -0.60757  -0.47359  -0.39882
 Alpha virt. eigenvalues --    0.04408   0.10110   0.27584   0.30437   0.30727
 Alpha virt. eigenvalues --    0.35486   0.43691   0.50122   0.56154   0.62038
 Alpha virt. eigenvalues --    0.65897   0.80896   0.93500   0.96147   1.02994

 Mulliken charges:
               1
     1  O   -0.450495
     2  H    0.220895
     3  H    0.229600
 Sum of Mulliken charges =   0.00000

 Dipole moment (field-independent basis, Debye):
    X=              0.0106    Y=             -1.9716    Z=              0.0000  Tot=              1.9716
 Quadrupole moment (field-independent basis, Debye-Ang):
   XX=             -4.3240   YY=             -6.3247   ZZ=             -7.6172
   XY=              0.0559   XZ=              0.0000   YZ=              0.0000

 1\1\GINC-NODE32\SP\RB2PLYPD3-FC\def2QZVP\H2O1\BOITTIER\26-Aug-2020\0\\
 #p B2PLYPD3/Def2QZVP\\h2o\\0,1\O,0,-5.326605,-0.765796,0.91874\H,0,-4.
 368927,-0.722564,0.942332\H,0,-5.609308,0.159338,0.763447\\Version=ES6
 4L-G09RevD.01\State=1-A'\HF=-76.334367\MP2=-76.4247178\RMSD=4.208e-09\
 PG=CS [SG(H2O1)]\\@

 THERE IS MORE TO LIFE THAN INCREASING ITS SPEED.

 Normal termination of Gaussian 09 at Wed Aug 26 08:30:14 2020.
