 Gaussian 09, Revision D.01,
 Gaussian 09:  ES64L-G09RevD.01 24-Apr-2013

 --------------------
 #p B2PLYPD3/Def2QZVP
 --------------------

 ---
 h2o
 ---
 Symbolic Z-matrix:
 Charge =  0 Multiplicity = 1

                         Standard orientation:
 ---------------------------------------------------------------------
 Center     Atomic      Atomic             Coordinates (Angstroms)
 Number     Number       Type             X           Y           Z
 ---------------------------------------------------------------------
      1          8           0        0.000000    0.114015    0.000000
      2          1           0        0.755509   -0.476463    0.000000
      3          1           0       -0.755509   -0.435659    0.000000
 ---------------------------------------------------------------------

 SCF Done:  E(RB2PLYPD3) =  -76.3349575233     A.U. after   10 cycles
 E2(B2PLYPD3) =    -0.8956398560D-01 E(B2PLYPD3) =    -0.76424521508886D+02

 The electronic state is 1-A'.
 Alpha  occ. eigenvalues --  -19.72879  -1.16179  -0.62082  -0.47377  -0.40041
 Alpha virt. eigenvalues --    0.04687   0.10298   0.27412   0.30384   0.31313
 Alpha virt. eigenvalues --    0.36233   0.44335   0.50613   0.56208   0.62673
 Alpha virt. eigenvalues --    0.65294   0.81382   0.94012   0.95723   1.04898

 Mulliken charges:
               1
     1  O   -0.435477
     2  H    0.223669
     3  H    0.211808
 Sum of Mulliken charges =   0.00000

 Dipole moment (field-independent basis, Debye):
    X=             -0.0122    Y=             -1.9326    Z=              0.0000  Tot=              1.9326
 Quadrupole moment (field-independent basis, Debye-Ang):
   XX=             -4.3099   YY=             -6.3544   ZZ=             -7.5679
   XY=             -0.0678   XZ=              0.0000   YZ=              0.0000

 1\1\GINC-NODE33\SP\RB2PLYPD3-FC\def2QZVP\H2O1\BOITTIER\26-Aug-2020\0\\
 #p B2PLYPD3/Def2QZVP\\h2o\\0,1\O,0,-5.326605,-0.761622,0.923418\H,0,-4
 .368927,-0.742204,0.879435\H,0,-5.609308,0.112203,0.751823\\Version=ES
 64L-G09RevD.01\State=1-A'\HF=-76.3349575\MP2=-76.4245215\RMSD=4.471e-0
 9\PG=CS [SG(H2O1)]\\@

 EXPERIMENTALISTS THINK SILICON IS REALLY FUN TO USE

 Normal termination of Gaussian 09 at Wed Aug 26 08:58:51 2020.
