 Gaussian 09, Revision D.01,
 Gaussian 09:  ES64L-G09RevD.01 24-Apr-2013

 --------------------
 #p B2PLYPD3/Def2QZVP
 --------------------

 ---
 h2o
 ---
 Symbolic Z-matrix:
 Charge =  0 Multiplicity = 1

                         Standard orientation:
 ---------------------------------------------------------------------
 Center     Atomic      Atomic             Coordinates (Angstroms)
 Number     Number       Type             X           Y           Z
 ---------------------------------------------------------------------
      1          8           0        0.000000    0.118772    0.000000
      2          1           0        0.747765   -0.483741    0.000000
      3          1           0       -0.747765   -0.466437    0.000000
 ---------------------------------------------------------------------

 SCF Done:  E(RB2PLYPD3) =  -76.3350401860     A.U. after   10 cycles
 E2(B2PLYPD3) =    -0.8991803361D-01 E(B2PLYPD3) =    -0.76424958219648D+02

 The electronic state is 1-A'.
 Alpha  occ. eigenvalues --  -19.73133  -1.15976  -0.61157  -0.47811  -0.40037
 Alpha virt. eigenvalues --    0.04546   0.10273   0.27514   0.30397   0.30914
 Alpha virt. eigenvalues --    0.36329   0.44092   0.50018   0.56543   0.61758
 Alpha virt. eigenvalues --    0.65569   0.81326   0.94111   0.95828   1.03818

 Mulliken charges:
               1
     1  O   -0.436746
     2  H    0.220811
     3  H    0.215935
 Sum of Mulliken charges =   0.00000

 Dipole moment (field-independent basis, Debye):
    X=             -0.0057    Y=             -1.9824    Z=              0.0000  Tot=              1.9824
 Quadrupole moment (field-independent basis, Debye-Ang):
   XX=             -4.4123   YY=             -6.2778   ZZ=             -7.5819
   XY=             -0.0277   XZ=              0.0000   YZ=              0.0000

 1\1\GINC-NODE24\SP\RB2PLYPD3-FC\def2QZVP\H2O1\BOITTIER\26-Aug-2020\0\\
 #p B2PLYPD3/Def2QZVP\\h2o\\0,1\O,0,-5.326605,-0.765065,0.922888\H,0,-4
 .368927,-0.696568,0.904586\H,0,-5.609308,0.121657,0.734673\\Version=ES
 64L-G09RevD.01\State=1-A'\HF=-76.3350402\MP2=-76.4249582\RMSD=4.322e-0
 9\PG=CS [SG(H2O1)]\\@

 THE VALUE OF PHILOSOPHY IS, IN FACT, TO BE SOUGHT LARGELY IN ITS

 Normal termination of Gaussian 09 at Wed Aug 26 10:20:47 2020.
