 Gaussian 09, Revision D.01,
 Gaussian 09:  ES64L-G09RevD.01 24-Apr-2013

 --------------------
 #p B2PLYPD3/Def2QZVP
 --------------------

 ---
 h2o
 ---
 Symbolic Z-matrix:
 Charge =  0 Multiplicity = 1

                         Standard orientation:
 ---------------------------------------------------------------------
 Center     Atomic      Atomic             Coordinates (Angstroms)
 Number     Number       Type             X           Y           Z
 ---------------------------------------------------------------------
      1          8           0        0.000000    0.110128    0.000000
      2          1           0        0.777270   -0.455144    0.000000
      3          1           0       -0.777270   -0.425880    0.000000
 ---------------------------------------------------------------------

 SCF Done:  E(RB2PLYPD3) =  -76.3347978585     A.U. after   10 cycles
 E2(B2PLYPD3) =    -0.8967656756D-01 E(B2PLYPD3) =    -0.76424474426038D+02

 The electronic state is 1-A'.
 Alpha  occ. eigenvalues --  -19.72833  -1.15639  -0.62415  -0.46652  -0.39903
 Alpha virt. eigenvalues --    0.04682   0.10182   0.27402   0.30410   0.31559
 Alpha virt. eigenvalues --    0.35355   0.44131   0.51293   0.55630   0.63677
 Alpha virt. eigenvalues --    0.65386   0.80935   0.93616   0.95978   1.05259

 Mulliken charges:
               1
     1  O   -0.448558
     2  H    0.228282
     3  H    0.220275
 Sum of Mulliken charges =   0.00000

 Dipole moment (field-independent basis, Debye):
    X=             -0.0077    Y=             -1.8818    Z=              0.0000  Tot=              1.8818
 Quadrupole moment (field-independent basis, Debye-Ang):
   XX=             -4.1510   YY=             -6.4587   ZZ=             -7.5888
   XY=             -0.0513   XZ=              0.0000   YZ=              0.0000

 1\1\GINC-NODE17\SP\RB2PLYPD3-FC\def2QZVP\H2O1\BOITTIER\26-Aug-2020\0\\
 #p B2PLYPD3/Def2QZVP\\h2o\\0,1\O,0,-5.326605,-0.760295,0.909261\H,0,-4
 .368927,-0.791056,0.984011\H,0,-5.609308,0.139814,0.872709\\Version=ES
 64L-G09RevD.01\State=1-A'\HF=-76.3347979\MP2=-76.4244744\RMSD=4.019e-0
 9\PG=CS [SG(H2O1)]\\@

 GETTING A SIMPLE ANSWER FROM A PROFESSOR IS LIKE

 Normal termination of Gaussian 09 at Wed Aug 26 09:15:52 2020.
