 Gaussian 09, Revision D.01,
 Gaussian 09:  ES64L-G09RevD.01 24-Apr-2013

 --------------------
 #p B2PLYPD3/Def2QZVP
 --------------------

 ---
 h2o
 ---
 Symbolic Z-matrix:
 Charge =  0 Multiplicity = 1

                         Standard orientation:
 ---------------------------------------------------------------------
 Center     Atomic      Atomic             Coordinates (Angstroms)
 Number     Number       Type             X           Y           Z
 ---------------------------------------------------------------------
      1          8           0        0.000000    0.118790    0.000000
      2          1           0        0.750917   -0.479218    0.000000
      3          1           0       -0.750917   -0.471102    0.000000
 ---------------------------------------------------------------------

 SCF Done:  E(RB2PLYPD3) =  -76.3350611447     A.U. after   10 cycles
 E2(B2PLYPD3) =    -0.8999313657D-01 E(B2PLYPD3) =    -0.76425054281296D+02

 The electronic state is 1-A'.
 Alpha  occ. eigenvalues --  -19.73165  -1.15837  -0.61085  -0.47735  -0.40010
 Alpha virt. eigenvalues --    0.04525   0.10245   0.27528   0.30404   0.30889
 Alpha virt. eigenvalues --    0.36180   0.44017   0.50032   0.56479   0.61802
 Alpha virt. eigenvalues --    0.65629   0.81258   0.94021   0.95882   1.03687

 Mulliken charges:
               1
     1  O   -0.439252
     2  H    0.220751
     3  H    0.218502
 Sum of Mulliken charges =   0.00000

 Dipole moment (field-independent basis, Debye):
    X=             -0.0026    Y=             -1.9808    Z=              0.0000  Tot=              1.9808
 Quadrupole moment (field-independent basis, Debye-Ang):
   XX=             -4.3975   YY=             -6.2860   ZZ=             -7.5881
   XY=             -0.0131   XZ=              0.0000   YZ=              0.0000

 1\1\GINC-NODE39\SP\RB2PLYPD3-FC\def2QZVP\H2O1\BOITTIER\26-Aug-2020\0\\
 #p B2PLYPD3/Def2QZVP\\h2o\\0,1\O,0,-5.326605,-0.765349,0.921549\H,0,-4
 .368927,-0.699603,0.917009\H,0,-5.609308,0.129227,0.743613\\Version=ES
 64L-G09RevD.01\State=1-A'\HF=-76.3350611\MP2=-76.4250543\RMSD=4.228e-0
 9\PG=CS [SG(H2O1)]\\@

 Luck is a matter of preparation meeting opportunity.

 Normal termination of Gaussian 09 at Wed Aug 26 09:58:47 2020.
