 Gaussian 09, Revision D.01,
 Gaussian 09:  ES64L-G09RevD.01 24-Apr-2013

 --------------------
 #p B2PLYPD3/Def2QZVP
 --------------------

 ---
 h2o
 ---
 Symbolic Z-matrix:
 Charge =  0 Multiplicity = 1

                         Standard orientation:
 ---------------------------------------------------------------------
 Center     Atomic      Atomic             Coordinates (Angstroms)
 Number     Number       Type             X           Y           Z
 ---------------------------------------------------------------------
      1          8           0        0.000000    0.114698    0.000000
      2          1           0        0.743418   -0.491304    0.000000
      3          1           0       -0.743418   -0.426281    0.000000
 ---------------------------------------------------------------------

 SCF Done:  E(RB2PLYPD3) =  -76.3341374484     A.U. after   10 cycles
 E2(B2PLYPD3) =    -0.8936067110D-01 E(B2PLYPD3) =    -0.76423498119510D+02

 The electronic state is 1-A'.
 Alpha  occ. eigenvalues --  -19.72802  -1.16650  -0.62205  -0.47697  -0.40136
 Alpha virt. eigenvalues --    0.04731   0.10387   0.27374   0.30362   0.31291
 Alpha virt. eigenvalues --    0.36765   0.44590   0.50454   0.56463   0.62383
 Alpha virt. eigenvalues --    0.65125   0.81615   0.94234   0.95566   1.05013

 Mulliken charges:
               1
     1  O   -0.425808
     2  H    0.222881
     3  H    0.202927
 Sum of Mulliken charges =   0.00000

 Dipole moment (field-independent basis, Debye):
    X=             -0.0202    Y=             -1.9459    Z=              0.0000  Tot=              1.9460
 Quadrupole moment (field-independent basis, Debye-Ang):
   XX=             -4.3768   YY=             -6.3124   ZZ=             -7.5485
   XY=             -0.1057   XZ=              0.0000   YZ=              0.0000

 1\1\GINC-NODE33\SP\RB2PLYPD3-FC\def2QZVP\H2O1\BOITTIER\26-Aug-2020\0\\
 #p B2PLYPD3/Def2QZVP\\h2o\\0,1\O,0,-5.326605,-0.762699,0.920536\H,0,-4
 .368927,-0.711519,0.908656\H,0,-5.609308,0.098744,0.767818\\Version=ES
 64L-G09RevD.01\State=1-A'\HF=-76.3341374\MP2=-76.4234981\RMSD=5.172e-0
 9\PG=CS [SG(H2O1)]\\@

 IF YOU DON'T HAVE THE LAW - ARGUE THE FACTS.

 Normal termination of Gaussian 09 at Wed Aug 26 08:31:22 2020.
