 Gaussian 09, Revision D.01,
 Gaussian 09:  ES64L-G09RevD.01 24-Apr-2013

 --------------------
 #p B2PLYPD3/Def2QZVP
 --------------------

 ---
 h2o
 ---
 Symbolic Z-matrix:
 Charge =  0 Multiplicity = 1

                         Standard orientation:
 ---------------------------------------------------------------------
 Center     Atomic      Atomic             Coordinates (Angstroms)
 Number     Number       Type             X           Y           Z
 ---------------------------------------------------------------------
      1          8           0        0.000000    0.116341    0.000000
      2          1           0        0.744360   -0.489446    0.000000
      3          1           0       -0.744360   -0.441284    0.000000
 ---------------------------------------------------------------------

 SCF Done:  E(RB2PLYPD3) =  -76.3346842055     A.U. after   10 cycles
 E2(B2PLYPD3) =    -0.8956290442D-01 E(B2PLYPD3) =    -0.76424247109909D+02

 The electronic state is 1-A'.
 Alpha  occ. eigenvalues --  -19.72928  -1.16412  -0.61797  -0.47766  -0.40103
 Alpha virt. eigenvalues --    0.04664   0.10350   0.27427   0.30375   0.31154
 Alpha virt. eigenvalues --    0.36636   0.44405   0.50269   0.56516   0.62114
 Alpha virt. eigenvalues --    0.65288   0.81518   0.94221   0.95650   1.04608

 Mulliken charges:
               1
     1  O   -0.429798
     2  H    0.222072
     3  H    0.207726
 Sum of Mulliken charges =   0.00000

 Dipole moment (field-independent basis, Debye):
    X=             -0.0153    Y=             -1.9612    Z=              0.0000  Tot=              1.9613
 Quadrupole moment (field-independent basis, Debye-Ang):
   XX=             -4.3949   YY=             -6.2967   ZZ=             -7.5604
   XY=             -0.0777   XZ=              0.0000   YZ=              0.0000

 1\1\GINC-NODE13\SP\RB2PLYPD3-FC\def2QZVP\H2O1\BOITTIER\26-Aug-2020\0\\
 #p B2PLYPD3/Def2QZVP\\h2o\\0,1\O,0,-5.326605,-0.763496,0.922328\H,0,-4
 .368927,-0.7054,0.899345\H,0,-5.609308,0.105384,0.748708\\Version=ES64
 L-G09RevD.01\State=1-A'\HF=-76.3346842\MP2=-76.4242471\RMSD=4.778e-09\
 PG=CS [SG(H2O1)]\\@

 I SUPPOSE A BABY LLAMA HAS A MMAMA AND A PPOPA.

 Normal termination of Gaussian 09 at Wed Aug 26 12:06:46 2020.
