 Gaussian 09, Revision D.01,
 Gaussian 09:  ES64L-G09RevD.01 24-Apr-2013

 --------------------
 #p B2PLYPD3/Def2QZVP
 --------------------

 ---
 h2o
 ---
 Symbolic Z-matrix:
 Charge =  0 Multiplicity = 1

                         Standard orientation:
 ---------------------------------------------------------------------
 Center     Atomic      Atomic             Coordinates (Angstroms)
 Number     Number       Type             X           Y           Z
 ---------------------------------------------------------------------
      1          8           0        0.000000    0.111918    0.000000
      2          1           0        0.715727   -0.531271    0.000000
      3          1           0       -0.715727   -0.364076    0.000000
 ---------------------------------------------------------------------

 SCF Done:  E(RB2PLYPD3) =  -76.3245355130     A.U. after   10 cycles
 E2(B2PLYPD3) =    -0.8847958964D-01 E(B2PLYPD3) =    -0.76413015102594D+02

 The electronic state is 1-A'.
 Alpha  occ. eigenvalues --  -19.72285  -1.18362  -0.63504  -0.48119  -0.40419
 Alpha virt. eigenvalues --    0.04918   0.10642   0.27116   0.30281   0.31410
 Alpha virt. eigenvalues --    0.37978   0.45741   0.50651   0.56750   0.62524
 Alpha virt. eigenvalues --    0.64382   0.82178   0.94118   0.95365   1.05514

 Mulliken charges:
               1
     1  O   -0.388379
     2  H    0.225254
     3  H    0.163125
 Sum of Mulliken charges =   0.00000

 Dipole moment (field-independent basis, Debye):
    X=             -0.0530    Y=             -1.9323    Z=              0.0000  Tot=              1.9331
 Quadrupole moment (field-independent basis, Debye-Ang):
   XX=             -4.4661   YY=             -6.2537   ZZ=             -7.4791
   XY=             -0.2641   XZ=              0.0000   YZ=              0.0000

 1\1\GINC-NODE39\SP\RB2PLYPD3-FC\def2QZVP\H2O1\BOITTIER\26-Aug-2020\0\\
 #p B2PLYPD3/Def2QZVP\\h2o\\0,1\O,0,-5.326605,-0.759825,0.924496\H,0,-4
 .368927,-0.692463,0.85912\H,0,-5.609308,0.033714,0.753582\\Version=ES6
 4L-G09RevD.01\State=1-A'\HF=-76.3245355\MP2=-76.4130151\RMSD=6.755e-09
 \PG=CS [SG(H2O1)]\\@

 There are more things in heaven and earth, Horatio,

 Normal termination of Gaussian 09 at Wed Aug 26 09:21:06 2020.
