 Gaussian 09, Revision D.01,
 Gaussian 09:  ES64L-G09RevD.01 24-Apr-2013

 --------------------
 #p B2PLYPD3/Def2QZVP
 --------------------

 ---
 h2o
 ---
 Symbolic Z-matrix:
 Charge =  0 Multiplicity = 1

                         Standard orientation:
 ---------------------------------------------------------------------
 Center     Atomic      Atomic             Coordinates (Angstroms)
 Number     Number       Type             X           Y           Z
 ---------------------------------------------------------------------
      1          8           0        0.000000    0.113098    0.000000
      2          1           0        0.788173   -0.431958    0.000000
      3          1           0       -0.788173   -0.472823    0.000000
 ---------------------------------------------------------------------

 SCF Done:  E(RB2PLYPD3) =  -76.3339092498     A.U. after   10 cycles
 E2(B2PLYPD3) =    -0.9026155557D-01 E(B2PLYPD3) =    -0.76424170805369D+02

 The electronic state is 1-A'.
 Alpha  occ. eigenvalues --  -19.73134  -1.14876  -0.61471  -0.46546  -0.39767
 Alpha virt. eigenvalues --    0.04464   0.10031   0.27510   0.30455   0.31131
 Alpha virt. eigenvalues --    0.34743   0.43647   0.50998   0.55510   0.63319
 Alpha virt. eigenvalues --    0.65832   0.80491   0.93106   0.96299   1.03766

 Mulliken charges:
               1
     1  O   -0.461031
     2  H    0.225439
     3  H    0.235592
 Sum of Mulliken charges =   0.00000

 Dipole moment (field-independent basis, Debye):
    X=              0.0109    Y=             -1.9043    Z=              0.0000  Tot=              1.9043
 Quadrupole moment (field-independent basis, Debye-Ang):
   XX=             -4.1361   YY=             -6.4513   ZZ=             -7.6276
   XY=              0.0717   XZ=              0.0000   YZ=              0.0000

 1\1\GINC-NODE33\SP\RB2PLYPD3-FC\def2QZVP\H2O1\BOITTIER\26-Aug-2020\0\\
 #p B2PLYPD3/Def2QZVP\\h2o\\0,1\O,0,-5.326605,-0.762048,0.917519\H,0,-4
 .368927,-0.793863,0.929463\H,0,-5.609308,0.17068,0.796616\\Version=ES6
 4L-G09RevD.01\State=1-A'\HF=-76.3339092\MP2=-76.4241708\RMSD=4.094e-09
 \PG=CS [SG(H2O1)]\\@

 TIME IS NATURE'S WAY OF MAKING SURE EVERYTHING

 Normal termination of Gaussian 09 at Wed Aug 26 11:45:53 2020.
