 Gaussian 09, Revision D.01,
 Gaussian 09:  ES64L-G09RevD.01 24-Apr-2013

 --------------------
 #p B2PLYPD3/Def2QZVP
 --------------------

 ---
 h2o
 ---
 Symbolic Z-matrix:
 Charge =  0 Multiplicity = 1

                         Standard orientation:
 ---------------------------------------------------------------------
 Center     Atomic      Atomic             Coordinates (Angstroms)
 Number     Number       Type             X           Y           Z
 ---------------------------------------------------------------------
      1          8           0        0.000000    0.118021    0.000000
      2          1           0        0.750836   -0.482769    0.000000
      3          1           0       -0.750836   -0.461401    0.000000
 ---------------------------------------------------------------------

 SCF Done:  E(RB2PLYPD3) =  -76.3350735260     A.U. after   10 cycles
 E2(B2PLYPD3) =    -0.8990262498D-01 E(B2PLYPD3) =    -0.76424976151022D+02

 The electronic state is 1-A'.
 Alpha  occ. eigenvalues --  -19.73111  -1.15929  -0.61264  -0.47698  -0.40022
 Alpha virt. eigenvalues --    0.04557   0.10261   0.27505   0.30399   0.30963
 Alpha virt. eigenvalues --    0.36233   0.44089   0.50117   0.56452   0.61928
 Alpha virt. eigenvalues --    0.65558   0.81298   0.94037   0.95841   1.03913

 Mulliken charges:
               1
     1  O   -0.438000
     2  H    0.221997
     3  H    0.216003
 Sum of Mulliken charges =   0.00000

 Dipole moment (field-independent basis, Debye):
    X=             -0.0069    Y=             -1.9736    Z=              0.0000  Tot=              1.9736
 Quadrupole moment (field-independent basis, Debye-Ang):
   XX=             -4.3872   YY=             -6.2948   ZZ=             -7.5832
   XY=             -0.0345   XZ=              0.0000   YZ=              0.0000

 1\1\GINC-NODE17\SP\RB2PLYPD3-FC\def2QZVP\H2O1\BOITTIER\26-Aug-2020\0\\
 #p B2PLYPD3/Def2QZVP\\h2o\\0,1\O,0,-5.326605,-0.763189,0.927966\H,0,-4
 .368927,-0.719406,0.852869\H,0,-5.609308,0.114477,0.706005\\Version=ES
 64L-G09RevD.01\State=1-A'\HF=-76.3350735\MP2=-76.4249762\RMSD=4.293e-0
 9\PG=CS [SG(H2O1)]\\@

0EVERYBODY IS IGNORANT, ONLY ON DIFFERENT SUBJECTS.

 Normal termination of Gaussian 09 at Wed Aug 26 08:29:37 2020.
