 Gaussian 09, Revision D.01,
 Gaussian 09:  ES64L-G09RevD.01 24-Apr-2013

 --------------------
 #p B2PLYPD3/Def2QZVP
 --------------------

 ---
 h2o
 ---
 Symbolic Z-matrix:
 Charge =  0 Multiplicity = 1

                         Standard orientation:
 ---------------------------------------------------------------------
 Center     Atomic      Atomic             Coordinates (Angstroms)
 Number     Number       Type             X           Y           Z
 ---------------------------------------------------------------------
      1          8           0        0.000000    0.118186    0.000000
      2          1           0        0.773564   -0.447284    0.000000
      3          1           0       -0.773564   -0.498203    0.000000
 ---------------------------------------------------------------------

 SCF Done:  E(RB2PLYPD3) =  -76.3337951652     A.U. after   10 cycles
 E2(B2PLYPD3) =    -0.9046815404D-01 E(B2PLYPD3) =    -0.76424263319280D+02

 The electronic state is 1-A'.
 Alpha  occ. eigenvalues --  -19.73335  -1.14959  -0.60715  -0.47141  -0.39826
 Alpha virt. eigenvalues --    0.04366   0.10055   0.27593   0.30450   0.30683
 Alpha virt. eigenvalues --    0.35184   0.43584   0.50241   0.55968   0.62253
 Alpha virt. eigenvalues --    0.65977   0.80718   0.93236   0.96253   1.02792

 Mulliken charges:
               1
     1  O   -0.455218
     2  H    0.221275
     3  H    0.233943
 Sum of Mulliken charges =   0.00000

 Dipole moment (field-independent basis, Debye):
    X=              0.0155    Y=             -1.9615    Z=              0.0000  Tot=              1.9615
 Quadrupole moment (field-independent basis, Debye-Ang):
   XX=             -4.2787   YY=             -6.3504   ZZ=             -7.6284
   XY=              0.0851   XZ=              0.0000   YZ=              0.0000

 1\1\GINC-NODE14\SP\RB2PLYPD3-FC\def2QZVP\H2O1\BOITTIER\26-Aug-2020\0\\
 #p B2PLYPD3/Def2QZVP\\h2o\\0,1\O,0,-5.326605,-0.765366,0.918976\H,0,-4
 .368927,-0.73989,0.937974\H,0,-5.609308,0.169787,0.764368\\Version=ES6
 4L-G09RevD.01\State=1-A'\HF=-76.3337952\MP2=-76.4242633\RMSD=4.381e-09
 \PG=CS [SG(H2O1)]\\@

 It is also a good rule not to put too much confidence in

 Normal termination of Gaussian 09 at Wed Aug 26 12:30:21 2020.
