 Gaussian 09, Revision D.01,
 Gaussian 09:  ES64L-G09RevD.01 24-Apr-2013

 --------------------
 #p B2PLYPD3/Def2QZVP
 --------------------

 ---
 h2o
 ---
 Symbolic Z-matrix:
 Charge =  0 Multiplicity = 1

                         Standard orientation:
 ---------------------------------------------------------------------
 Center     Atomic      Atomic             Coordinates (Angstroms)
 Number     Number       Type             X           Y           Z
 ---------------------------------------------------------------------
      1          8           0        0.000000    0.118598    0.000000
      2          1           0        0.746597   -0.485481    0.000000
      3          1           0       -0.746597   -0.463305    0.000000
 ---------------------------------------------------------------------

 SCF Done:  E(RB2PLYPD3) =  -76.3350190817     A.U. after   10 cycles
 E2(B2PLYPD3) =    -0.8987094424D-01 E(B2PLYPD3) =    -0.76424890025961D+02

 The electronic state is 1-A'.
 Alpha  occ. eigenvalues --  -19.73109  -1.16047  -0.61222  -0.47831  -0.40049
 Alpha virt. eigenvalues --    0.04561   0.10286   0.27504   0.30394   0.30938
 Alpha virt. eigenvalues --    0.36394   0.44136   0.50031   0.56560   0.61770
 Alpha virt. eigenvalues --    0.65532   0.81359   0.94146   0.95799   1.03914

 Mulliken charges:
               1
     1  O   -0.435538
     2  H    0.220921
     3  H    0.214617
 Sum of Mulliken charges =   0.00000

 Dipole moment (field-independent basis, Debye):
    X=             -0.0073    Y=             -1.9814    Z=              0.0000  Tot=              1.9814
 Quadrupole moment (field-independent basis, Debye-Ang):
   XX=             -4.4155   YY=             -6.2767   ZZ=             -7.5786
   XY=             -0.0355   XZ=              0.0000   YZ=              0.0000

 1\1\GINC-NODE12\SP\RB2PLYPD3-FC\def2QZVP\H2O1\BOITTIER\26-Aug-2020\0\\
 #p B2PLYPD3/Def2QZVP\\h2o\\0,1\O,0,-5.326605,-0.765124,0.922017\H,0,-4
 .368927,-0.693939,0.911834\H,0,-5.609308,0.119975,0.741194\\Version=ES
 64L-G09RevD.01\State=1-A'\HF=-76.3350191\MP2=-76.42489\RMSD=4.375e-09\
 PG=CS [SG(H2O1)]\\@

 ALMOST ALL THE CHEMICAL PROCESSES WHICH OCCUR IN NATURE,

 Normal termination of Gaussian 09 at Wed Aug 26 09:49:58 2020.
