 Gaussian 09, Revision D.01,
 Gaussian 09:  ES64L-G09RevD.01 24-Apr-2013

 --------------------
 #p B2PLYPD3/Def2QZVP
 --------------------

 ---
 h2o
 ---
 Symbolic Z-matrix:
 Charge =  0 Multiplicity = 1

                         Standard orientation:
 ---------------------------------------------------------------------
 Center     Atomic      Atomic             Coordinates (Angstroms)
 Number     Number       Type             X           Y           Z
 ---------------------------------------------------------------------
      1          8           0        0.000000    0.115845    0.000000
      2          1           0        0.776176   -0.445318    0.000000
      3          1           0       -0.776176   -0.481441    0.000000
 ---------------------------------------------------------------------

 SCF Done:  E(RB2PLYPD3) =  -76.3343544937     A.U. after   10 cycles
 E2(B2PLYPD3) =    -0.9026383606D-01 E(B2PLYPD3) =    -0.76424618329754D+02

 The electronic state is 1-A'.
 Alpha  occ. eigenvalues --  -19.73204  -1.15093  -0.61170  -0.46971  -0.39836
 Alpha virt. eigenvalues --    0.04453   0.10082   0.27541   0.30443   0.30949
 Alpha virt. eigenvalues --    0.35174   0.43701   0.50543   0.55848   0.62674
 Alpha virt. eigenvalues --    0.65832   0.80754   0.93323   0.96184   1.03462

 Mulliken charges:
               1
     1  O   -0.454726
     2  H    0.222772
     3  H    0.231953
 Sum of Mulliken charges =   0.00000

 Dipole moment (field-independent basis, Debye):
    X=              0.0105    Y=             -1.9379    Z=              0.0000  Tot=              1.9380
 Quadrupole moment (field-independent basis, Debye-Ang):
   XX=             -4.2336   YY=             -6.3869   ZZ=             -7.6196
   XY=              0.0614   XZ=              0.0000   YZ=              0.0000

 1\1\GINC-NODE27\SP\RB2PLYPD3-FC\def2QZVP\H2O1\BOITTIER\26-Aug-2020\0\\
 #p B2PLYPD3/Def2QZVP\\h2o\\0,1\O,0,-5.326605,-0.763815,0.918575\H,0,-4
 .368927,-0.758077,0.931691\H,0,-5.609308,0.163156,0.777143\\Version=ES
 64L-G09RevD.01\State=1-A'\HF=-76.3343545\MP2=-76.4246183\RMSD=4.112e-0
 9\PG=CS [SG(H2O1)]\\@

 WE ARE REACHING THE STAGE WHERE THE PROBLEMS WE MUST SOLVE ARE

 Normal termination of Gaussian 09 at Wed Aug 26 10:03:53 2020.
