 Gaussian 09, Revision D.01,
 Gaussian 09:  ES64L-G09RevD.01 24-Apr-2013

 --------------------
 #p B2PLYPD3/Def2QZVP
 --------------------

 ---
 h2o
 ---
 Symbolic Z-matrix:
 Charge =  0 Multiplicity = 1

                         Standard orientation:
 ---------------------------------------------------------------------
 Center     Atomic      Atomic             Coordinates (Angstroms)
 Number     Number       Type             X           Y           Z
 ---------------------------------------------------------------------
      1          8           0        0.000000    0.119538    0.000000
      2          1           0        0.785866   -0.428916    0.000000
      3          1           0       -0.785866   -0.527386    0.000000
 ---------------------------------------------------------------------

 SCF Done:  E(RB2PLYPD3) =  -76.3311336171     A.U. after   10 cycles
 E2(B2PLYPD3) =    -0.9094136607D-01 E(B2PLYPD3) =    -0.76422074983160D+02

 The electronic state is 1-A'.
 Alpha  occ. eigenvalues --  -19.73528  -1.14344  -0.60140  -0.46876  -0.39705
 Alpha virt. eigenvalues --    0.04164   0.09910   0.27657   0.30213   0.30484
 Alpha virt. eigenvalues --    0.34645   0.43269   0.50174   0.55707   0.62247
 Alpha virt. eigenvalues --    0.66285   0.80274   0.92499   0.96535   1.01717

 Mulliken charges:
               1
     1  O   -0.464553
     2  H    0.221011
     3  H    0.243541
 Sum of Mulliken charges =   0.00000

 Dipole moment (field-independent basis, Debye):
    X=              0.0297    Y=             -1.9658    Z=              0.0000  Tot=              1.9661
 Quadrupole moment (field-independent basis, Debye-Ang):
   XX=             -4.2359   YY=             -6.3602   ZZ=             -7.6609
   XY=              0.1665   XZ=              0.0000   YZ=              0.0000

 1\1\GINC-NODE01\SP\RB2PLYPD3-FC\def2QZVP\H2O1\BOITTIER\26-Aug-2020\0\\
 #p B2PLYPD3/Def2QZVP\\h2o\\0,1\O,0,-5.326605,-0.766393,0.918192\H,0,-4
 .368927,-0.75297,0.950741\H,0,-5.609308,0.199298,0.764519\\Version=ES6
 4L-G09RevD.01\State=1-A'\HF=-76.3311336\MP2=-76.422075\RMSD=5.270e-09\
 PG=CS [SG(H2O1)]\\@

 Some scientists claim that hydrogen, because it is so

 Normal termination of Gaussian 09 at Wed Aug 26 12:20:48 2020.
