 Gaussian 09, Revision D.01,
 Gaussian 09:  ES64L-G09RevD.01 24-Apr-2013

 --------------------
 #p B2PLYPD3/Def2QZVP
 --------------------

 ---
 h2o
 ---
 Symbolic Z-matrix:
 Charge =  0 Multiplicity = 1

                         Standard orientation:
 ---------------------------------------------------------------------
 Center     Atomic      Atomic             Coordinates (Angstroms)
 Number     Number       Type             X           Y           Z
 ---------------------------------------------------------------------
      1          8           0        0.000000    0.117282    0.000000
      2          1           0        0.766972   -0.456908    0.000000
      3          1           0       -0.766972   -0.481352    0.000000
 ---------------------------------------------------------------------

 SCF Done:  E(RB2PLYPD3) =  -76.3347233797     A.U. after   10 cycles
 E2(B2PLYPD3) =    -0.9020101699D-01 E(B2PLYPD3) =    -0.76424924396728D+02

 The electronic state is 1-A'.
 Alpha  occ. eigenvalues --  -19.73215  -1.15324  -0.61068  -0.47267  -0.39895
 Alpha virt. eigenvalues --    0.04468   0.10134   0.27547   0.30431   0.30894
 Alpha virt. eigenvalues --    0.35523   0.43786   0.50301   0.56090   0.62294
 Alpha virt. eigenvalues --    0.65787   0.80945   0.93561   0.96085   1.03446

 Mulliken charges:
               1
     1  O   -0.449474
     2  H    0.221548
     3  H    0.227926
 Sum of Mulliken charges =   0.00000

 Dipole moment (field-independent basis, Debye):
    X=              0.0075    Y=             -1.9571    Z=              0.0000  Tot=              1.9571
 Quadrupole moment (field-independent basis, Debye-Ang):
   XX=             -4.2988   YY=             -6.3458   ZZ=             -7.6100
   XY=              0.0406   XZ=              0.0000   YZ=              0.0000

 1\1\GINC-NODE40\SP\RB2PLYPD3-FC\def2QZVP\H2O1\BOITTIER\26-Aug-2020\0\\
 #p B2PLYPD3/Def2QZVP\\h2o\\0,1\O,0,-5.326605,-0.764423,0.920973\H,0,-4
 .368927,-0.736658,0.916222\H,0,-5.609308,0.151477,0.754194\\Version=ES
 64L-G09RevD.01\State=1-A'\HF=-76.3347234\MP2=-76.4249244\RMSD=4.075e-0
 9\PG=CS [SG(H2O1)]\\@

 The earth never tires,

 Normal termination of Gaussian 09 at Wed Aug 26 09:08:54 2020.
