 Gaussian 09, Revision D.01,
 Gaussian 09:  ES64L-G09RevD.01 24-Apr-2013

 --------------------
 #p B2PLYPD3/Def2QZVP
 --------------------

 ---
 h2o
 ---
 Symbolic Z-matrix:
 Charge =  0 Multiplicity = 1

                         Standard orientation:
 ---------------------------------------------------------------------
 Center     Atomic      Atomic             Coordinates (Angstroms)
 Number     Number       Type             X           Y           Z
 ---------------------------------------------------------------------
      1          8           0        0.000000    0.110643    0.000000
      2          1           0        0.751025   -0.484173    0.000000
      3          1           0       -0.751025   -0.400971    0.000000
 ---------------------------------------------------------------------

 SCF Done:  E(RB2PLYPD3) =  -76.3332885575     A.U. after   10 cycles
 E2(B2PLYPD3) =    -0.8910872030D-01 E(B2PLYPD3) =    -0.76422397277850D+02

 The electronic state is 1-A'.
 Alpha  occ. eigenvalues --  -19.72596  -1.16771  -0.62977  -0.47283  -0.40129
 Alpha virt. eigenvalues --    0.04834   0.10390   0.27296   0.30351   0.31583
 Alpha virt. eigenvalues --    0.36584   0.44774   0.51009   0.56139   0.63209
 Alpha virt. eigenvalues --    0.64920   0.81617   0.94103   0.95537   1.05606

 Mulliken charges:
               1
     1  O   -0.424825
     2  H    0.225406
     3  H    0.199419
 Sum of Mulliken charges =   0.00000

 Dipole moment (field-independent basis, Debye):
    X=             -0.0237    Y=             -1.9018    Z=              0.0000  Tot=              1.9019
 Quadrupole moment (field-independent basis, Debye-Ang):
   XX=             -4.2860   YY=             -6.3782   ZZ=             -7.5393
   XY=             -0.1398   XZ=              0.0000   YZ=              0.0000

 1\1\GINC-NODE40\SP\RB2PLYPD3-FC\def2QZVP\H2O1\BOITTIER\26-Aug-2020\0\\
 #p B2PLYPD3/Def2QZVP\\h2o\\0,1\O,0,-5.326605,-0.760542,0.915324\H,0,-4
 .368927,-0.745377,0.936944\H,0,-5.609308,0.098101,0.822597\\Version=ES
 64L-G09RevD.01\State=1-A'\HF=-76.3332886\MP2=-76.4223973\RMSD=5.610e-0
 9\PG=CS [SG(H2O1)]\\@

                                                                                    A

 Normal termination of Gaussian 09 at Wed Aug 26 08:36:27 2020.
