 Gaussian 09, Revision D.01,
 Gaussian 09:  ES64L-G09RevD.01 24-Apr-2013

 --------------------
 #p B2PLYPD3/Def2QZVP
 --------------------

 ---
 h2o
 ---
 Symbolic Z-matrix:
 Charge =  0 Multiplicity = 1

                         Standard orientation:
 ---------------------------------------------------------------------
 Center     Atomic      Atomic             Coordinates (Angstroms)
 Number     Number       Type             X           Y           Z
 ---------------------------------------------------------------------
      1          8           0        0.000000    0.113440    0.000000
      2          1           0        0.758482   -0.473711    0.000000
      3          1           0       -0.758482   -0.433810    0.000000
 ---------------------------------------------------------------------

 SCF Done:  E(RB2PLYPD3) =  -76.3349754008     A.U. after   10 cycles
 E2(B2PLYPD3) =    -0.8957189558D-01 E(B2PLYPD3) =    -0.76424547296359D+02

 The electronic state is 1-A'.
 Alpha  occ. eigenvalues --  -19.72870  -1.16111  -0.62143  -0.47275  -0.40023
 Alpha virt. eigenvalues --    0.04690   0.10283   0.27409   0.30388   0.31349
 Alpha virt. eigenvalues --    0.36119   0.44312   0.50705   0.56127   0.62816
 Alpha virt. eigenvalues --    0.65300   0.81335   0.93954   0.95750   1.04955

 Mulliken charges:
               1
     1  O   -0.437113
     2  H    0.224313
     3  H    0.212800
 Sum of Mulliken charges =   0.00000

 Dipole moment (field-independent basis, Debye):
    X=             -0.0117    Y=             -1.9253    Z=              0.0000  Tot=              1.9253
 Quadrupole moment (field-independent basis, Debye-Ang):
   XX=             -4.2877   YY=             -6.3691   ZZ=             -7.5704
   XY=             -0.0668   XZ=              0.0000   YZ=              0.0000

 1\1\GINC-NODE06\SP\RB2PLYPD3-FC\def2QZVP\H2O1\BOITTIER\26-Aug-2020\0\\
 #p B2PLYPD3/Def2QZVP\\h2o\\0,1\O,0,-5.326605,-0.762593,0.91377\H,0,-4.
 368927,-0.738727,0.961979\H,0,-5.609308,0.124263,0.822436\\Version=ES6
 4L-G09RevD.01\State=1-A'\HF=-76.3349754\MP2=-76.4245473\RMSD=4.415e-09
 \PG=CS [SG(H2O1)]\\@

 EXPERIENCE IS A WONDERFUL THING.  IT ENABLES

 Normal termination of Gaussian 09 at Wed Aug 26 08:47:05 2020.
