 Gaussian 09, Revision D.01,
 Gaussian 09:  ES64L-G09RevD.01 24-Apr-2013

 --------------------
 #p B2PLYPD3/Def2QZVP
 --------------------

 ---
 h2o
 ---
 Symbolic Z-matrix:
 Charge =  0 Multiplicity = 1

                         Standard orientation:
 ---------------------------------------------------------------------
 Center     Atomic      Atomic             Coordinates (Angstroms)
 Number     Number       Type             X           Y           Z
 ---------------------------------------------------------------------
      1          8           0        0.000000    0.114827    0.000000
      2          1           0        0.760526   -0.467723    0.000000
      3          1           0       -0.760526   -0.450894    0.000000
 ---------------------------------------------------------------------

 SCF Done:  E(RB2PLYPD3) =  -76.3352284123     A.U. after   10 cycles
 E2(B2PLYPD3) =    -0.8976986029D-01 E(B2PLYPD3) =    -0.76424998272628D+02

 The electronic state is 1-A'.
 Alpha  occ. eigenvalues --  -19.72986  -1.15865  -0.61775  -0.47303  -0.39985
 Alpha virt. eigenvalues --    0.04623   0.10241   0.27456   0.30401   0.31218
 Alpha virt. eigenvalues --    0.35953   0.44135   0.50549   0.56143   0.62605
 Alpha virt. eigenvalues --    0.65459   0.81227   0.93878   0.95843   1.04540

 Mulliken charges:
               1
     1  O   -0.441113
     2  H    0.222910
     3  H    0.218202
 Sum of Mulliken charges =   0.00000

 Dipole moment (field-independent basis, Debye):
    X=             -0.0050    Y=             -1.9376    Z=              0.0000  Tot=              1.9376
 Quadrupole moment (field-independent basis, Debye-Ang):
   XX=             -4.2966   YY=             -6.3589   ZZ=             -7.5826
   XY=             -0.0281   XZ=              0.0000   YZ=              0.0000

 1\1\GINC-NODE27\SP\RB2PLYPD3-FC\def2QZVP\H2O1\BOITTIER\26-Aug-2020\0\\
 #p B2PLYPD3/Def2QZVP\\h2o\\0,1\O,0,-5.326605,-0.763008,0.919252\H,0,-4
 .368927,-0.738204,0.921071\H,0,-5.609308,0.13037,0.776437\\Version=ES6
 4L-G09RevD.01\State=1-A'\HF=-76.3352284\MP2=-76.4249983\RMSD=4.076e-09
 \PG=CS [SG(H2O1)]\\@

 REFRAIN FROM ILLUSIONS, INSIST ON WORK AND NOT WORDS,

 Normal termination of Gaussian 09 at Wed Aug 26 10:05:46 2020.
