 Gaussian 09, Revision D.01,
 Gaussian 09:  ES64L-G09RevD.01 24-Apr-2013

 --------------------
 #p B2PLYPD3/Def2QZVP
 --------------------

 ---
 h2o
 ---
 Symbolic Z-matrix:
 Charge =  0 Multiplicity = 1

                         Standard orientation:
 ---------------------------------------------------------------------
 Center     Atomic      Atomic             Coordinates (Angstroms)
 Number     Number       Type             X           Y           Z
 ---------------------------------------------------------------------
      1          8           0        0.000000    0.115397    0.000000
      2          1           0        0.751584   -0.480676    0.000000
      3          1           0       -0.751584   -0.442503    0.000000
 ---------------------------------------------------------------------

 SCF Done:  E(RB2PLYPD3) =  -76.3349880181     A.U. after   10 cycles
 E2(B2PLYPD3) =    -0.8962370630D-01 E(B2PLYPD3) =    -0.76424611724396D+02

 The electronic state is 1-A'.
 Alpha  occ. eigenvalues --  -19.72936  -1.16197  -0.61854  -0.47545  -0.40054
 Alpha virt. eigenvalues --    0.04658   0.10306   0.27433   0.30385   0.31208
 Alpha virt. eigenvalues --    0.36349   0.44307   0.50421   0.56339   0.62378
 Alpha virt. eigenvalues --    0.65341   0.81411   0.94076   0.95719   1.04650

 Mulliken charges:
               1
     1  O   -0.434411
     2  H    0.222756
     3  H    0.211655
 Sum of Mulliken charges =   0.00000

 Dipole moment (field-independent basis, Debye):
    X=             -0.0117    Y=             -1.9481    Z=              0.0000  Tot=              1.9482
 Quadrupole moment (field-independent basis, Debye-Ang):
   XX=             -4.3475   YY=             -6.3277   ZZ=             -7.5686
   XY=             -0.0626   XZ=              0.0000   YZ=              0.0000

 1\1\GINC-NODE17\SP\RB2PLYPD3-FC\def2QZVP\H2O1\BOITTIER\26-Aug-2020\0\\
 #p B2PLYPD3/Def2QZVP\\h2o\\0,1\O,0,-5.326605,-0.762497,0.923832\H,0,-4
 .368927,-0.727312,0.881432\H,0,-5.609308,0.111309,0.743071\\Version=ES
 64L-G09RevD.01\State=1-A'\HF=-76.334988\MP2=-76.4246117\RMSD=4.478e-09
 \PG=CS [SG(H2O1)]\\@

 HIGGLEDY-PIGGLEDY

 Normal termination of Gaussian 09 at Wed Aug 26 12:52:42 2020.
