 Gaussian 09, Revision D.01,
 Gaussian 09:  ES64L-G09RevD.01 24-Apr-2013

 --------------------
 #p B2PLYPD3/Def2QZVP
 --------------------

 ---
 h2o
 ---
 Symbolic Z-matrix:
 Charge =  0 Multiplicity = 1

                         Standard orientation:
 ---------------------------------------------------------------------
 Center     Atomic      Atomic             Coordinates (Angstroms)
 Number     Number       Type             X           Y           Z
 ---------------------------------------------------------------------
      1          8           0        0.000000    0.111162    0.000000
      2          1           0        0.739611   -0.498559    0.000000
      3          1           0       -0.739611   -0.390737    0.000000
 ---------------------------------------------------------------------

 SCF Done:  E(RB2PLYPD3) =  -76.3315332801     A.U. after   10 cycles
 E2(B2PLYPD3) =    -0.8890604077D-01 E(B2PLYPD3) =    -0.76420439320884D+02

 The electronic state is 1-A'.
 Alpha  occ. eigenvalues --  -19.72508  -1.17254  -0.63134  -0.47568  -0.40222
 Alpha virt. eigenvalues --    0.04870   0.10472   0.27248   0.30329   0.31538
 Alpha virt. eigenvalues --    0.37074   0.45054   0.50866   0.56358   0.62959
 Alpha virt. eigenvalues --    0.64749   0.81837   0.94200   0.95426   1.05607

 Mulliken charges:
               1
     1  O   -0.414142
     2  H    0.224852
     3  H    0.189290
 Sum of Mulliken charges =   0.00000

 Dipole moment (field-independent basis, Debye):
    X=             -0.0319    Y=             -1.9130    Z=              0.0000  Tot=              1.9133
 Quadrupole moment (field-independent basis, Debye-Ang):
   XX=             -4.3469   YY=             -6.3382   ZZ=             -7.5201
   XY=             -0.1775   XZ=              0.0000   YZ=              0.0000

 1\1\GINC-NODE07\SP\RB2PLYPD3-FC\def2QZVP\H2O1\BOITTIER\26-Aug-2020\0\\
 #p B2PLYPD3/Def2QZVP\\h2o\\0,1\O,0,-5.326605,-0.760832,0.916148\H,0,-4
 .368927,-0.723592,0.931965\H,0,-5.609308,0.080943,0.814065\\Version=ES
 64L-G09RevD.01\State=1-A'\HF=-76.3315333\MP2=-76.4204393\RMSD=6.287e-0
 9\PG=CS [SG(H2O1)]\\@

 WE THE UNWILLING

 Normal termination of Gaussian 09 at Wed Aug 26 08:35:55 2020.
