 Gaussian 09, Revision D.01,
 Gaussian 09:  ES64L-G09RevD.01 24-Apr-2013

 --------------------
 #p B2PLYPD3/Def2QZVP
 --------------------

 ---
 h2o
 ---
 Symbolic Z-matrix:
 Charge =  0 Multiplicity = 1

                         Standard orientation:
 ---------------------------------------------------------------------
 Center     Atomic      Atomic             Coordinates (Angstroms)
 Number     Number       Type             X           Y           Z
 ---------------------------------------------------------------------
      1          8           0        0.000000    0.115126    0.000000
      2          1           0        0.771768   -0.451985    0.000000
      3          1           0       -0.771768   -0.469027    0.000000
 ---------------------------------------------------------------------

 SCF Done:  E(RB2PLYPD3) =  -76.3348812288     A.U. after   10 cycles
 E2(B2PLYPD3) =    -0.9007417406D-01 E(B2PLYPD3) =    -0.76424955402901D+02

 The electronic state is 1-A'.
 Alpha  occ. eigenvalues --  -19.73115  -1.15351  -0.61437  -0.47046  -0.39884
 Alpha virt. eigenvalues --    0.04524   0.10137   0.27508   0.30429   0.31091
 Alpha virt. eigenvalues --    0.35407   0.43851   0.50596   0.55922   0.62724
 Alpha virt. eigenvalues --    0.65693   0.80914   0.93528   0.96066   1.03954

 Mulliken charges:
               1
     1  O   -0.450563
     2  H    0.223043
     3  H    0.227520
 Sum of Mulliken charges =   0.00000

 Dipole moment (field-independent basis, Debye):
    X=              0.0050    Y=             -1.9338    Z=              0.0000  Tot=              1.9338
 Quadrupole moment (field-independent basis, Debye-Ang):
   XX=             -4.2456   YY=             -6.3848   ZZ=             -7.6065
   XY=              0.0289   XZ=              0.0000   YZ=              0.0000

 1\1\GINC-NODE39\SP\RB2PLYPD3-FC\def2QZVP\H2O1\BOITTIER\26-Aug-2020\0\\
 #p B2PLYPD3/Def2QZVP\\h2o\\0,1\O,0,-5.326605,-0.763036,0.920377\H,0,-4
 .368927,-0.757346,0.91254\H,0,-5.609308,0.149973,0.767553\\Version=ES6
 4L-G09RevD.01\State=1-A'\HF=-76.3348812\MP2=-76.4249554\RMSD=3.928e-09
 \PG=CS [SG(H2O1)]\\@

 OLD HORSE! OLD HORSE! WHAT BROUGHT YOU HERE?

 Normal termination of Gaussian 09 at Wed Aug 26 09:51:35 2020.
