 Gaussian 09, Revision D.01,
 Gaussian 09:  ES64L-G09RevD.01 24-Apr-2013

 --------------------
 #p B2PLYPD3/Def2QZVP
 --------------------

 ---
 h2o
 ---
 Symbolic Z-matrix:
 Charge =  0 Multiplicity = 1

                         Standard orientation:
 ---------------------------------------------------------------------
 Center     Atomic      Atomic             Coordinates (Angstroms)
 Number     Number       Type             X           Y           Z
 ---------------------------------------------------------------------
      1          8           0        0.000000    0.118648    0.000000
      2          1           0        0.770923   -0.454242    0.000000
      3          1           0       -0.770923   -0.494942    0.000000
 ---------------------------------------------------------------------

 SCF Done:  E(RB2PLYPD3) =  -76.3340158433     A.U. after   10 cycles
 E2(B2PLYPD3) =    -0.9045546364D-01 E(B2PLYPD3) =    -0.76424471306986D+02

 The electronic state is 1-A'.
 Alpha  occ. eigenvalues --  -19.73342  -1.15016  -0.60674  -0.47231  -0.39843
 Alpha virt. eigenvalues --    0.04372   0.10069   0.27598   0.30447   0.30680
 Alpha virt. eigenvalues --    0.35272   0.43598   0.50168   0.56044   0.62133
 Alpha virt. eigenvalues --    0.65973   0.80772   0.93329   0.96224   1.02809

 Mulliken charges:
               1
     1  O   -0.453911
     2  H    0.221860
     3  H    0.232051
 Sum of Mulliken charges =   0.00000

 Dipole moment (field-independent basis, Debye):
    X=              0.0126    Y=             -1.9675    Z=              0.0000  Tot=              1.9675
 Quadrupole moment (field-independent basis, Debye-Ang):
   XX=             -4.2982   YY=             -6.3386   ZZ=             -7.6259
   XY=              0.0676   XZ=              0.0000   YZ=              0.0000

 1\1\GINC-NODE34\SP\RB2PLYPD3-FC\def2QZVP\H2O1\BOITTIER\26-Aug-2020\0\\
 #p B2PLYPD3/Def2QZVP\\h2o\\0,1\O,0,-5.326605,-0.766114,0.914581\H,0,-4
 .368927,-0.728226,0.977374\H,0,-5.609308,0.170098,0.794574\\Version=ES
 64L-G09RevD.01\State=1-A'\HF=-76.3340158\MP2=-76.4244713\RMSD=4.241e-0
 9\PG=CS [SG(H2O1)]\\@

 THOSE WHO ARE UNABLE TO LEARN FROM PAST MEETINGS

 Normal termination of Gaussian 09 at Wed Aug 26 11:26:46 2020.
