 Gaussian 09, Revision D.01,
 Gaussian 09:  ES64L-G09RevD.01 24-Apr-2013

 --------------------
 #p B2PLYPD3/Def2QZVP
 --------------------

 ---
 h2o
 ---
 Symbolic Z-matrix:
 Charge =  0 Multiplicity = 1

                         Standard orientation:
 ---------------------------------------------------------------------
 Center     Atomic      Atomic             Coordinates (Angstroms)
 Number     Number       Type             X           Y           Z
 ---------------------------------------------------------------------
      1          8           0        0.000000    0.114805    0.000000
      2          1           0        0.739462   -0.497066    0.000000
      3          1           0       -0.739462   -0.421377    0.000000
 ---------------------------------------------------------------------

 SCF Done:  E(RB2PLYPD3) =  -76.3336234502     A.U. after   10 cycles
 E2(B2PLYPD3) =    -0.8928415614D-01 E(B2PLYPD3) =    -0.76422907606352D+02

 The electronic state is 1-A'.
 Alpha  occ. eigenvalues --  -19.72767  -1.16822  -0.62270  -0.47793  -0.40168
 Alpha virt. eigenvalues --    0.04746   0.10417   0.27356   0.30354   0.31285
 Alpha virt. eigenvalues --    0.36939   0.44692   0.50419   0.56538   0.62311
 Alpha virt. eigenvalues --    0.65058   0.81685   0.94284   0.95523   1.05046

 Mulliken charges:
               1
     1  O   -0.422268
     2  H    0.222978
     3  H    0.199290
 Sum of Mulliken charges =   0.00000

 Dipole moment (field-independent basis, Debye):
    X=             -0.0238    Y=             -1.9490    Z=              0.0000  Tot=              1.9492
 Quadrupole moment (field-independent basis, Debye-Ang):
   XX=             -4.3969   YY=             -6.2996   ZZ=             -7.5416
   XY=             -0.1221   XZ=              0.0000   YZ=              0.0000

 1\1\GINC-NODE35\SP\RB2PLYPD3-FC\def2QZVP\H2O1\BOITTIER\26-Aug-2020\0\\
 #p B2PLYPD3/Def2QZVP\\h2o\\0,1\O,0,-5.326605,-0.762356,0.922617\H,0,-4
 .368927,-0.70779,0.889974\H,0,-5.609308,0.089536,0.753342\\Version=ES6
 4L-G09RevD.01\State=1-A'\HF=-76.3336235\MP2=-76.4229076\RMSD=5.478e-09
 \PG=CS [SG(H2O1)]\\@

 YOU SHOULDN'T LET PEOPLE DRIVE YOU CRAZY

 Normal termination of Gaussian 09 at Wed Aug 26 07:29:56 2020.
