 Gaussian 09, Revision D.01,
 Gaussian 09:  ES64L-G09RevD.01 24-Apr-2013

 --------------------
 #p B2PLYPD3/Def2QZVP
 --------------------

 ---
 h2o
 ---
 Symbolic Z-matrix:
 Charge =  0 Multiplicity = 1

                         Standard orientation:
 ---------------------------------------------------------------------
 Center     Atomic      Atomic             Coordinates (Angstroms)
 Number     Number       Type             X           Y           Z
 ---------------------------------------------------------------------
      1          8           0        0.000000    0.118336    0.000000
      2          1           0        0.761454   -0.466407    0.000000
      3          1           0       -0.761454   -0.480280    0.000000
 ---------------------------------------------------------------------

 SCF Done:  E(RB2PLYPD3) =  -76.3348414459     A.U. after   10 cycles
 E2(B2PLYPD3) =    -0.9018912516D-01 E(B2PLYPD3) =    -0.76425030571045D+02

 The electronic state is 1-A'.
 Alpha  occ. eigenvalues --  -19.73234  -1.15440  -0.60957  -0.47454  -0.39927
 Alpha virt. eigenvalues --    0.04467   0.10161   0.27556   0.30425   0.30840
 Alpha virt. eigenvalues --    0.35718   0.43820   0.50143   0.56242   0.62036
 Alpha virt. eigenvalues --    0.65780   0.81036   0.93701   0.96040   1.03372

 Mulliken charges:
               1
     1  O   -0.446666
     2  H    0.221500
     3  H    0.225166
 Sum of Mulliken charges =   0.00000

 Dipole moment (field-independent basis, Debye):
    X=              0.0044    Y=             -1.9703    Z=              0.0000  Tot=              1.9703
 Quadrupole moment (field-independent basis, Debye-Ang):
   XX=             -4.3403   YY=             -6.3189   ZZ=             -7.6056
   XY=              0.0227   XZ=              0.0000   YZ=              0.0000

 1\1\GINC-NODE14\SP\RB2PLYPD3-FC\def2QZVP\H2O1\BOITTIER\26-Aug-2020\0\\
 #p B2PLYPD3/Def2QZVP\\h2o\\0,1\O,0,-5.326605,-0.765766,0.916382\H,0,-4
 .368927,-0.714583,0.960759\H,0,-5.609308,0.150879,0.78224\\Version=ES6
 4L-G09RevD.01\State=1-A'\HF=-76.3348414\MP2=-76.4250306\RMSD=4.078e-09
 \PG=CS [SG(H2O1)]\\@

 THAT'S WHAT MAKES US A GREAT COUNTRY.

 Normal termination of Gaussian 09 at Wed Aug 26 12:29:49 2020.
