 Gaussian 09, Revision D.01,
 Gaussian 09:  ES64L-G09RevD.01 24-Apr-2013

 --------------------
 #p B2PLYPD3/Def2QZVP
 --------------------

 ---
 h2o
 ---
 Symbolic Z-matrix:
 Charge =  0 Multiplicity = 1

                         Standard orientation:
 ---------------------------------------------------------------------
 Center     Atomic      Atomic             Coordinates (Angstroms)
 Number     Number       Type             X           Y           Z
 ---------------------------------------------------------------------
      1          8           0        0.000000    0.124265    0.000000
      2          1           0        0.749233   -0.484416    0.000000
      3          1           0       -0.749233   -0.509705    0.000000
 ---------------------------------------------------------------------

 SCF Done:  E(RB2PLYPD3) =  -76.3336892415     A.U. after   10 cycles
 E2(B2PLYPD3) =    -0.9061737011D-01 E(B2PLYPD3) =    -0.76424306611652D+02

 The electronic state is 1-A'.
 Alpha  occ. eigenvalues --  -19.73525  -1.15284  -0.59875  -0.48025  -0.39943
 Alpha virt. eigenvalues --    0.04289   0.10133   0.27683   0.30297   0.30432
 Alpha virt. eigenvalues --    0.35862   0.43596   0.49461   0.56680   0.60916
 Alpha virt. eigenvalues --    0.66073   0.80989   0.93853   0.96185   1.02063

 Mulliken charges:
               1
     1  O   -0.445282
     2  H    0.219406
     3  H    0.225876
 Sum of Mulliken charges =   0.00000

 Dipole moment (field-independent basis, Debye):
    X=              0.0089    Y=             -2.0320    Z=              0.0000  Tot=              2.0320
 Quadrupole moment (field-independent basis, Debye-Ang):
   XX=             -4.4824   YY=             -6.2134   ZZ=             -7.6194
   XY=              0.0394   XZ=              0.0000   YZ=              0.0000

 1\1\GINC-NODE10\SP\RB2PLYPD3-FC\def2QZVP\H2O1\BOITTIER\26-Aug-2020\0\\
 #p B2PLYPD3/Def2QZVP\\h2o\\0,1\O,0,-5.326605,-0.766184,0.932067\H,0,-4
 .368927,-0.688918,0.838658\H,0,-5.609308,0.131913,0.654995\\Version=ES
 64L-G09RevD.01\State=1-A'\HF=-76.3336892\MP2=-76.4243066\RMSD=4.432e-0
 9\PG=CS [SG(H2O1)]\\@

 The arm of the moral universe is long, but it bends toward justice.

 Normal termination of Gaussian 09 at Wed Aug 26 08:41:54 2020.
