 Gaussian 09, Revision D.01,
 Gaussian 09:  ES64L-G09RevD.01 24-Apr-2013

 --------------------
 #p B2PLYPD3/Def2QZVP
 --------------------

 ---
 h2o
 ---
 Symbolic Z-matrix:
 Charge =  0 Multiplicity = 1

                         Standard orientation:
 ---------------------------------------------------------------------
 Center     Atomic      Atomic             Coordinates (Angstroms)
 Number     Number       Type             X           Y           Z
 ---------------------------------------------------------------------
      1          8           0        0.000000    0.116779    0.000000
      2          1           0        0.728590   -0.511995    0.000000
      3          1           0       -0.728590   -0.422236    0.000000
 ---------------------------------------------------------------------

 SCF Done:  E(RB2PLYPD3) =  -76.3326368231     A.U. after   10 cycles
 E2(B2PLYPD3) =    -0.8926341626D-01 E(B2PLYPD3) =    -0.76421900239322D+02

 The electronic state is 1-A'.
 Alpha  occ. eigenvalues --  -19.72792  -1.17093  -0.62036  -0.48152  -0.40230
 Alpha virt. eigenvalues --    0.04720   0.10472   0.27358   0.30343   0.31136
 Alpha virt. eigenvalues --    0.37315   0.44808   0.50143   0.56814   0.61829
 Alpha virt. eigenvalues --    0.65023   0.81774   0.94427   0.95484   1.04813

 Mulliken charges:
               1
     1  O   -0.416060
     2  H    0.222480
     3  H    0.193581
 Sum of Mulliken charges =   0.00000

 Dipole moment (field-independent basis, Debye):
    X=             -0.0298    Y=             -1.9738    Z=              0.0000  Tot=              1.9740
 Quadrupole moment (field-independent basis, Debye-Ang):
   XX=             -4.4744   YY=             -6.2459   ZZ=             -7.5331
   XY=             -0.1408   XZ=              0.0000   YZ=              0.0000

 1\1\GINC-NODE04\SP\RB2PLYPD3-FC\def2QZVP\H2O1\BOITTIER\26-Aug-2020\0\\
 #p B2PLYPD3/Def2QZVP\\h2o\\0,1\O,0,-5.326605,-0.763243,0.924684\H,0,-4
 .368927,-0.679893,0.878791\H,0,-5.609308,0.075832,0.73126\\Version=ES6
 4L-G09RevD.01\State=1-A'\HF=-76.3326368\MP2=-76.4219002\RMSD=5.910e-09
 \PG=CS [SG(H2O1)]\\@

 You can't act like a skunk without someone's getting wind of it.

 Normal termination of Gaussian 09 at Wed Aug 26 08:29:47 2020.
