 Gaussian 09, Revision D.01,
 Gaussian 09:  ES64L-G09RevD.01 24-Apr-2013

 --------------------
 #p B2PLYPD3/Def2QZVP
 --------------------

 ---
 h2o
 ---
 Symbolic Z-matrix:
 Charge =  0 Multiplicity = 1

                         Standard orientation:
 ---------------------------------------------------------------------
 Center     Atomic      Atomic             Coordinates (Angstroms)
 Number     Number       Type             X           Y           Z
 ---------------------------------------------------------------------
      1          8           0        0.000000    0.114971    0.000000
      2          1           0        0.773211   -0.450104    0.000000
      3          1           0       -0.773211   -0.469660    0.000000
 ---------------------------------------------------------------------

 SCF Done:  E(RB2PLYPD3) =  -76.3348159322     A.U. after   10 cycles
 E2(B2PLYPD3) =    -0.9009231370D-01 E(B2PLYPD3) =    -0.76424908245931D+02

 The electronic state is 1-A'.
 Alpha  occ. eigenvalues --  -19.73118  -1.15307  -0.61436  -0.47003  -0.39873
 Alpha virt. eigenvalues --    0.04518   0.10127   0.27509   0.30431   0.31093
 Alpha virt. eigenvalues --    0.35347   0.43831   0.50627   0.55886   0.62773
 Alpha virt. eigenvalues --    0.65706   0.80880   0.93489   0.96086   1.03935

 Mulliken charges:
               1
     1  O   -0.451498
     2  H    0.223193
     3  H    0.228305
 Sum of Mulliken charges =   0.00000

 Dipole moment (field-independent basis, Debye):
    X=              0.0056    Y=             -1.9314    Z=              0.0000  Tot=              1.9315
 Quadrupole moment (field-independent basis, Debye-Ang):
   XX=             -4.2364   YY=             -6.3904   ZZ=             -7.6085
   XY=              0.0332   XZ=              0.0000   YZ=              0.0000

 1\1\GINC-NODE17\SP\RB2PLYPD3-FC\def2QZVP\H2O1\BOITTIER\26-Aug-2020\0\\
 #p B2PLYPD3/Def2QZVP\\h2o\\0,1\O,0,-5.326605,-0.763098,0.91934\H,0,-4.
 368927,-0.75927,0.92117\H,0,-5.609308,0.152881,0.775428\\Version=ES64L
 -G09RevD.01\State=1-A'\HF=-76.3348159\MP2=-76.4249082\RMSD=3.932e-09\P
 G=CS [SG(H2O1)]\\@

 You never know when you're making a memory.

 Normal termination of Gaussian 09 at Wed Aug 26 09:50:08 2020.
