 Gaussian 09, Revision D.01,
 Gaussian 09:  ES64L-G09RevD.01 24-Apr-2013

 --------------------
 #p B2PLYPD3/Def2QZVP
 --------------------

 ---
 h2o
 ---
 Symbolic Z-matrix:
 Charge =  0 Multiplicity = 1

                         Standard orientation:
 ---------------------------------------------------------------------
 Center     Atomic      Atomic             Coordinates (Angstroms)
 Number     Number       Type             X           Y           Z
 ---------------------------------------------------------------------
      1          8           0        0.000000    0.115896    0.000000
      2          1           0        0.756375   -0.473761    0.000000
      3          1           0       -0.756375   -0.453407    0.000000
 ---------------------------------------------------------------------

 SCF Done:  E(RB2PLYPD3) =  -76.3351981863     A.U. after   10 cycles
 E2(B2PLYPD3) =    -0.8979049947D-01 E(B2PLYPD3) =    -0.76424988685740D+02

 The electronic state is 1-A'.
 Alpha  occ. eigenvalues --  -19.73018  -1.15928  -0.61628  -0.47457  -0.40006
 Alpha virt. eigenvalues --    0.04608   0.10256   0.27468   0.30399   0.31138
 Alpha virt. eigenvalues --    0.36095   0.44143   0.50393   0.56265   0.62363
 Alpha virt. eigenvalues --    0.65475   0.81278   0.93952   0.95823   1.04361

 Mulliken charges:
               1
     1  O   -0.439277
     2  H    0.222503
     3  H    0.216774
 Sum of Mulliken charges =   0.00000

 Dipole moment (field-independent basis, Debye):
    X=             -0.0062    Y=             -1.9502    Z=              0.0000  Tot=              1.9502
 Quadrupole moment (field-independent basis, Debye-Ang):
   XX=             -4.3313   YY=             -6.3351   ZZ=             -7.5809
   XY=             -0.0335   XZ=              0.0000   YZ=              0.0000

 1\1\GINC-NODE03\SP\RB2PLYPD3-FC\def2QZVP\H2O1\BOITTIER\26-Aug-2020\0\\
 #p B2PLYPD3/Def2QZVP\\h2o\\0,1\O,0,-5.326605,-0.762813,0.923987\H,0,-4
 .368927,-0.732688,0.882236\H,0,-5.609308,0.12174,0.739995\\Version=ES6
 4L-G09RevD.01\State=1-A'\HF=-76.3351982\MP2=-76.4249887\RMSD=4.177e-09
 \PG=CS [SG(H2O1)]\\@

 POCKETA-POCKETA

 Normal termination of Gaussian 09 at Wed Aug 26 09:21:47 2020.
