 Gaussian 09, Revision D.01,
 Gaussian 09:  ES64L-G09RevD.01 24-Apr-2013

 --------------------
 #p B2PLYPD3/Def2QZVP
 --------------------

 ---
 h2o
 ---
 Symbolic Z-matrix:
 Charge =  0 Multiplicity = 1

                         Standard orientation:
 ---------------------------------------------------------------------
 Center     Atomic      Atomic             Coordinates (Angstroms)
 Number     Number       Type             X           Y           Z
 ---------------------------------------------------------------------
      1          8           0        0.000000    0.115277    0.000000
      2          1           0        0.769635   -0.454842    0.000000
      3          1           0       -0.769635   -0.467374    0.000000
 ---------------------------------------------------------------------

 SCF Done:  E(RB2PLYPD3) =  -76.3349799829     A.U. after   10 cycles
 E2(B2PLYPD3) =    -0.9003873430D-01 E(B2PLYPD3) =    -0.76425018717219D+02

 The electronic state is 1-A'.
 Alpha  occ. eigenvalues --  -19.73105  -1.15425  -0.61455  -0.47105  -0.39900
 Alpha virt. eigenvalues --    0.04535   0.10152   0.27504   0.30425   0.31097
 Alpha virt. eigenvalues --    0.35499   0.43886   0.50561   0.55971   0.62666
 Alpha virt. eigenvalues --    0.65666   0.80967   0.93590   0.96033   1.04008

 Mulliken charges:
               1
     1  O   -0.449084
     2  H    0.222881
     3  H    0.226203
 Sum of Mulliken charges =   0.00000

 Dipole moment (field-independent basis, Debye):
    X=              0.0037    Y=             -1.9365    Z=              0.0000  Tot=              1.9365
 Quadrupole moment (field-independent basis, Debye-Ang):
   XX=             -4.2582   YY=             -6.3775   ZZ=             -7.6032
   XY=              0.0211   XZ=              0.0000   YZ=              0.0000

 1\1\GINC-NODE13\SP\RB2PLYPD3-FC\def2QZVP\H2O1\BOITTIER\26-Aug-2020\0\\
 #p B2PLYPD3/Def2QZVP\\h2o\\0,1\O,0,-5.326605,-0.763064,0.920806\H,0,-4
 .368927,-0.753421,0.909269\H,0,-5.609308,0.146492,0.763941\\Version=ES
 64L-G09RevD.01\State=1-A'\HF=-76.33498\MP2=-76.4250187\RMSD=3.923e-09\
 PG=CS [SG(H2O1)]\\@

 WHEN YOU'VE SEEN ONE NUCLEAR WAR YOU'VE SEEN THEM ALL.

 Normal termination of Gaussian 09 at Wed Aug 26 10:00:54 2020.
