 Gaussian 09, Revision D.01,
 Gaussian 09:  ES64L-G09RevD.01 24-Apr-2013

 --------------------
 #p B2PLYPD3/Def2QZVP
 --------------------

 ---
 h2o
 ---
 Symbolic Z-matrix:
 Charge =  0 Multiplicity = 1

                         Standard orientation:
 ---------------------------------------------------------------------
 Center     Atomic      Atomic             Coordinates (Angstroms)
 Number     Number       Type             X           Y           Z
 ---------------------------------------------------------------------
      1          8           0        0.000000    0.120046    0.000000
      2          1           0        0.718451   -0.526692    0.000000
      3          1           0       -0.718451   -0.433673    0.000000
 ---------------------------------------------------------------------

 SCF Done:  E(RB2PLYPD3) =  -76.3320403310     A.U. after   10 cycles
 E2(B2PLYPD3) =    -0.8942094054D-01 E(B2PLYPD3) =    -0.76421461271537D+02

 The electronic state is 1-A'.
 Alpha  occ. eigenvalues --  -19.72921  -1.17159  -0.61453  -0.48565  -0.40263
 Alpha virt. eigenvalues --    0.04634   0.10496   0.27408   0.30343   0.30885
 Alpha virt. eigenvalues --    0.37538   0.44767   0.49777   0.57130   0.61162
 Alpha virt. eigenvalues --    0.65111   0.81745   0.94605   0.95513   1.04322

 Mulliken charges:
               1
     1  O   -0.413696
     2  H    0.221859
     3  H    0.191838
 Sum of Mulliken charges =   0.00000

 Dipole moment (field-independent basis, Debye):
    X=             -0.0331    Y=             -2.0101    Z=              0.0000  Tot=              2.0103
 Quadrupole moment (field-independent basis, Debye-Ang):
   XX=             -4.5663   YY=             -6.1799   ZZ=             -7.5351
   XY=             -0.1409   XZ=              0.0000   YZ=              0.0000

 1\1\GINC-NODE36\SP\RB2PLYPD3-FC\def2QZVP\H2O1\BOITTIER\26-Aug-2020\0\\
 #p B2PLYPD3/Def2QZVP\\h2o\\0,1\O,0,-5.326605,-0.765154,0.926071\H,0,-4
 .368927,-0.642257,0.879276\H,0,-5.609308,0.068764,0.708274\\Version=ES
 64L-G09RevD.01\State=1-A'\HF=-76.3320403\MP2=-76.4214613\RMSD=6.075e-0
 9\PG=CS [SG(H2O1)]\\@

 IF AT FIRST YOU DON'T SUCCEED, TRY, TRY AGAIN.

 Normal termination of Gaussian 09 at Wed Aug 26 08:33:44 2020.
