 Gaussian 09, Revision D.01,
 Gaussian 09:  ES64L-G09RevD.01 24-Apr-2013

 --------------------
 #p B2PLYPD3/Def2QZVP
 --------------------

 ---
 h2o
 ---
 Symbolic Z-matrix:
 Charge =  0 Multiplicity = 1

                         Standard orientation:
 ---------------------------------------------------------------------
 Center     Atomic      Atomic             Coordinates (Angstroms)
 Number     Number       Type             X           Y           Z
 ---------------------------------------------------------------------
      1          8           0        0.000000    0.116075    0.000000
      2          1           0        0.743351   -0.491194    0.000000
      3          1           0       -0.743351   -0.437403    0.000000
 ---------------------------------------------------------------------

 SCF Done:  E(RB2PLYPD3) =  -76.3345241158     A.U. after   10 cycles
 E2(B2PLYPD3) =    -0.8951049555D-01 E(B2PLYPD3) =    -0.76424034611344D+02

 The electronic state is 1-A'.
 Alpha  occ. eigenvalues --  -19.72899  -1.16490  -0.61883  -0.47775  -0.40115
 Alpha virt. eigenvalues --    0.04679   0.10363   0.27414   0.30371   0.31178
 Alpha virt. eigenvalues --    0.36697   0.44458   0.50294   0.56523   0.62146
 Alpha virt. eigenvalues --    0.65245   0.81551   0.94238   0.95624   1.04695

 Mulliken charges:
               1
     1  O   -0.428399
     2  H    0.222287
     3  H    0.206112
 Sum of Mulliken charges =   0.00000

 Dipole moment (field-independent basis, Debye):
    X=             -0.0171    Y=             -1.9592    Z=              0.0000  Tot=              1.9593
 Quadrupole moment (field-independent basis, Debye-Ang):
   XX=             -4.3960   YY=             -6.2969   ZZ=             -7.5568
   XY=             -0.0867   XZ=              0.0000   YZ=              0.0000

 1\1\GINC-NODE08\SP\RB2PLYPD3-FC\def2QZVP\H2O1\BOITTIER\26-Aug-2020\0\\
 #p B2PLYPD3/Def2QZVP\\h2o\\0,1\O,0,-5.326605,-0.763133,0.923135\H,0,-4
 .368927,-0.707039,0.890701\H,0,-5.609308,0.101209,0.744529\\Version=ES
 64L-G09RevD.01\State=1-A'\HF=-76.3345241\MP2=-76.4240346\RMSD=4.909e-0
 9\PG=CS [SG(H2O1)]\\@

 THE PROBLEM WITH THE LADDER OF SUCCESS IS YOU CAN'T

 Normal termination of Gaussian 09 at Wed Aug 26 08:42:19 2020.
