 Gaussian 09, Revision D.01,
 Gaussian 09:  ES64L-G09RevD.01 24-Apr-2013

 --------------------
 #p B2PLYPD3/Def2QZVP
 --------------------

 ---
 h2o
 ---
 Symbolic Z-matrix:
 Charge =  0 Multiplicity = 1

                         Standard orientation:
 ---------------------------------------------------------------------
 Center     Atomic      Atomic             Coordinates (Angstroms)
 Number     Number       Type             X           Y           Z
 ---------------------------------------------------------------------
      1          8           0        0.000000    0.115819    0.000000
      2          1           0        0.747387   -0.485744    0.000000
      3          1           0       -0.747387   -0.440811    0.000000
 ---------------------------------------------------------------------

 SCF Done:  E(RB2PLYPD3) =  -76.3348086192     A.U. after   10 cycles
 E2(B2PLYPD3) =    -0.8957378438D-01 E(B2PLYPD3) =    -0.76424382403556D+02

 The electronic state is 1-A'.
 Alpha  occ. eigenvalues --  -19.72922  -1.16337  -0.61852  -0.47667  -0.40084
 Alpha virt. eigenvalues --    0.04667   0.10334   0.27426   0.30378   0.31188
 Alpha virt. eigenvalues --    0.36523   0.44376   0.50346   0.56437   0.62246
 Alpha virt. eigenvalues --    0.65299   0.81481   0.94162   0.95672   1.04659

 Mulliken charges:
               1
     1  O   -0.431503
     2  H    0.222389
     3  H    0.209114
 Sum of Mulliken charges =   0.00000

 Dipole moment (field-independent basis, Debye):
    X=             -0.0141    Y=             -1.9546    Z=              0.0000  Tot=              1.9546
 Quadrupole moment (field-independent basis, Debye-Ang):
   XX=             -4.3734   YY=             -6.3112   ZZ=             -7.5630
   XY=             -0.0730   XZ=              0.0000   YZ=              0.0000

 1\1\GINC-NODE35\SP\RB2PLYPD3-FC\def2QZVP\H2O1\BOITTIER\26-Aug-2020\0\\
 #p B2PLYPD3/Def2QZVP\\h2o\\0,1\O,0,-5.326605,-0.76297,0.923074\H,0,-4.
 368927,-0.71563,0.890265\H,0,-5.609308,0.107192,0.746096\\Version=ES64
 L-G09RevD.01\State=1-A'\HF=-76.3348086\MP2=-76.4243824\RMSD=4.665e-09\
 PG=CS [SG(H2O1)]\\@

 THE VALUE OF PHILOSOPHY IS, IN FACT, TO BE SOUGHT LARGELY IN ITS

 Normal termination of Gaussian 09 at Wed Aug 26 09:27:14 2020.
