 Gaussian 09, Revision D.01,
 Gaussian 09:  ES64L-G09RevD.01 24-Apr-2013

 --------------------
 #p B2PLYPD3/Def2QZVP
 --------------------

 ---
 h2o
 ---
 Symbolic Z-matrix:
 Charge =  0 Multiplicity = 1

                         Standard orientation:
 ---------------------------------------------------------------------
 Center     Atomic      Atomic             Coordinates (Angstroms)
 Number     Number       Type             X           Y           Z
 ---------------------------------------------------------------------
      1          8           0        0.000000    0.117786    0.000000
      2          1           0        0.771970   -0.449959    0.000000
      3          1           0       -0.771970   -0.492332    0.000000
 ---------------------------------------------------------------------

 SCF Done:  E(RB2PLYPD3) =  -76.3341347238     A.U. after   10 cycles
 E2(B2PLYPD3) =    -0.9038190831D-01 E(B2PLYPD3) =    -0.76424516632120D+02

 The electronic state is 1-A'.
 Alpha  occ. eigenvalues --  -19.73294  -1.15065  -0.60840  -0.47164  -0.39845
 Alpha virt. eigenvalues --    0.04401   0.10078   0.27577   0.30444   0.30763
 Alpha virt. eigenvalues --    0.35272   0.43645   0.50277   0.55994   0.62291
 Alpha virt. eigenvalues --    0.65917   0.80783   0.93336   0.96202   1.03015

 Mulliken charges:
               1
     1  O   -0.453690
     2  H    0.221499
     3  H    0.232191
 Sum of Mulliken charges =   0.00000

 Dipole moment (field-independent basis, Debye):
    X=              0.0129    Y=             -1.9587    Z=              0.0000  Tot=              1.9588
 Quadrupole moment (field-independent basis, Debye-Ang):
   XX=             -4.2811   YY=             -6.3518   ZZ=             -7.6228
   XY=              0.0708   XZ=              0.0000   YZ=              0.0000

 1\1\GINC-NODE08\SP\RB2PLYPD3-FC\def2QZVP\H2O1\BOITTIER\26-Aug-2020\0\\
 #p B2PLYPD3/Def2QZVP\\h2o\\0,1\O,0,-5.326605,-0.765144,0.918595\H,0,-4
 .368927,-0.738984,0.939607\H,0,-5.609308,0.165339,0.768721\\Version=ES
 64L-G09RevD.01\State=1-A'\HF=-76.3341347\MP2=-76.4245166\RMSD=4.255e-0
 9\PG=CS [SG(H2O1)]\\@

 KNIGHT- SIRE, I'VE JUST RETURNED FROM THE FRONT

 Normal termination of Gaussian 09 at Wed Aug 26 08:49:15 2020.
