 Gaussian 09, Revision D.01,
 Gaussian 09:  ES64L-G09RevD.01 24-Apr-2013

 --------------------
 #p B2PLYPD3/Def2QZVP
 --------------------

 ---
 h2o
 ---
 Symbolic Z-matrix:
 Charge =  0 Multiplicity = 1

                         Standard orientation:
 ---------------------------------------------------------------------
 Center     Atomic      Atomic             Coordinates (Angstroms)
 Number     Number       Type             X           Y           Z
 ---------------------------------------------------------------------
      1          8           0        0.000000    0.110134    0.000000
      2          1           0        0.788695   -0.436853    0.000000
      3          1           0       -0.788695   -0.444217    0.000000
 ---------------------------------------------------------------------

 SCF Done:  E(RB2PLYPD3) =  -76.3344340642     A.U. after   10 cycles
 E2(B2PLYPD3) =    -0.8996003841D-01 E(B2PLYPD3) =    -0.76424394102648D+02

 The electronic state is 1-A'.
 Alpha  occ. eigenvalues --  -19.72946  -1.15145  -0.62105  -0.46387  -0.39801
 Alpha virt. eigenvalues --    0.04589   0.10083   0.27443   0.30438   0.31491
 Alpha virt. eigenvalues --    0.34808   0.43854   0.51401   0.55406   0.63839
 Alpha virt. eigenvalues --    0.65616   0.80572   0.93318   0.96208   1.04897

 Mulliken charges:
               1
     1  O   -0.458399
     2  H    0.228250
     3  H    0.230149
 Sum of Mulliken charges =   0.00000

 Dipole moment (field-independent basis, Debye):
    X=              0.0019    Y=             -1.8751    Z=              0.0000  Tot=              1.8751
 Quadrupole moment (field-independent basis, Debye-Ang):
   XX=             -4.0937   YY=             -6.4894   ZZ=             -7.6119
   XY=              0.0131   XZ=              0.0000   YZ=              0.0000

 1\1\GINC-NODE09\SP\RB2PLYPD3-FC\def2QZVP\H2O1\BOITTIER\26-Aug-2020\0\\
 #p B2PLYPD3/Def2QZVP\\h2o\\0,1\O,0,-5.326605,-0.760317,0.913094\H,0,-4
 .368927,-0.809493,0.953948\H,0,-5.609308,0.158607,0.842372\\Version=ES
 64L-G09RevD.01\State=1-A'\HF=-76.3344341\MP2=-76.4243941\RMSD=3.684e-0
 9\PG=CS [SG(H2O1)]\\@

 THERE ARE TWO THINGS THAT EVERYBODY THINKS THEY CAN DO BETTER THAN

 Normal termination of Gaussian 09 at Wed Aug 26 08:41:31 2020.
