 Gaussian 09, Revision D.01,
 Gaussian 09:  ES64L-G09RevD.01 24-Apr-2013

 --------------------
 #p B2PLYPD3/Def2QZVP
 --------------------

 ---
 h2o
 ---
 Symbolic Z-matrix:
 Charge =  0 Multiplicity = 1

                         Standard orientation:
 ---------------------------------------------------------------------
 Center     Atomic      Atomic             Coordinates (Angstroms)
 Number     Number       Type             X           Y           Z
 ---------------------------------------------------------------------
      1          8           0        0.000000    0.119963    0.000000
      2          1           0        0.753041   -0.475972    0.000000
      3          1           0       -0.753041   -0.483735    0.000000
 ---------------------------------------------------------------------

 SCF Done:  E(RB2PLYPD3) =  -76.3348311292     A.U. after   10 cycles
 E2(B2PLYPD3) =    -0.9018098554D-01 E(B2PLYPD3) =    -0.76425012114770D+02

 The electronic state is 1-A'.
 Alpha  occ. eigenvalues --  -19.73266  -1.15613  -0.60771  -0.47739  -0.39975
 Alpha virt. eigenvalues --    0.04458   0.10200   0.27571   0.30416   0.30744
 Alpha virt. eigenvalues --    0.36005   0.43869   0.49916   0.56472   0.61645
 Alpha virt. eigenvalues --    0.65770   0.81148   0.93910   0.95986   1.03224

 Mulliken charges:
               1
     1  O   -0.442510
     2  H    0.220210
     3  H    0.222299
 Sum of Mulliken charges =   0.00000

 Dipole moment (field-independent basis, Debye):
    X=              0.0026    Y=             -1.9905    Z=              0.0000  Tot=              1.9905
 Quadrupole moment (field-independent basis, Debye-Ang):
   XX=             -4.4036   YY=             -6.2771   ZZ=             -7.5995
   XY=              0.0124   XZ=              0.0000   YZ=              0.0000

 1\1\GINC-NODE29\SP\RB2PLYPD3-FC\def2QZVP\H2O1\BOITTIER\26-Aug-2020\0\\
 #p B2PLYPD3/Def2QZVP\\h2o\\0,1\O,0,-5.326605,-0.765438,0.924845\H,0,-4
 .368927,-0.702607,0.891453\H,0,-5.609308,0.133664,0.716957\\Version=ES
 64L-G09RevD.01\State=1-A'\HF=-76.3348311\MP2=-76.4250121\RMSD=4.209e-0
 9\PG=CS [SG(H2O1)]\\@

 ROSE IS A RED

 Normal termination of Gaussian 09 at Wed Aug 26 11:10:56 2020.
