 Gaussian 09, Revision D.01,
 Gaussian 09:  ES64L-G09RevD.01 24-Apr-2013

 --------------------
 #p B2PLYPD3/Def2QZVP
 --------------------

 ---
 h2o
 ---
 Symbolic Z-matrix:
 Charge =  0 Multiplicity = 1

                         Standard orientation:
 ---------------------------------------------------------------------
 Center     Atomic      Atomic             Coordinates (Angstroms)
 Number     Number       Type             X           Y           Z
 ---------------------------------------------------------------------
      1          8           0        0.000000    0.115714    0.000000
      2          1           0        0.757865   -0.471559    0.000000
      3          1           0       -0.757865   -0.454154    0.000000
 ---------------------------------------------------------------------

 SCF Done:  E(RB2PLYPD3) =  -76.3352161578     A.U. after   10 cycles
 E2(B2PLYPD3) =    -0.8980523979D-01 E(B2PLYPD3) =    -0.76425021397568D+02

 The electronic state is 1-A'.
 Alpha  occ. eigenvalues --  -19.73021  -1.15883  -0.61635  -0.47412  -0.39996
 Alpha virt. eigenvalues --    0.04605   0.10246   0.27470   0.30401   0.31147
 Alpha virt. eigenvalues --    0.36034   0.44122   0.50424   0.56228   0.62416
 Alpha virt. eigenvalues --    0.65487   0.81251   0.93919   0.95840   1.04364

 Mulliken charges:
               1
     1  O   -0.440235
     2  H    0.222554
     3  H    0.217680
 Sum of Mulliken charges =   0.00000

 Dipole moment (field-independent basis, Debye):
    X=             -0.0053    Y=             -1.9476    Z=              0.0000  Tot=              1.9476
 Quadrupole moment (field-independent basis, Debye-Ang):
   XX=             -4.3216   YY=             -6.3413   ZZ=             -7.5827
   XY=             -0.0288   XZ=              0.0000   YZ=              0.0000

 1\1\GINC-NODE24\SP\RB2PLYPD3-FC\def2QZVP\H2O1\BOITTIER\26-Aug-2020\0\\
 #p B2PLYPD3/Def2QZVP\\h2o\\0,1\O,0,-5.326605,-0.762821,0.923421\H,0,-4
 .368927,-0.735213,0.886806\H,0,-5.609308,0.1244,0.744459\\Version=ES64
 L-G09RevD.01\State=1-A'\HF=-76.3352162\MP2=-76.4250214\RMSD=4.127e-09\
 PG=CS [SG(H2O1)]\\@

 THERE ARE PEOPLE SO ADDICTED TO EXAGERATING THEY

 Normal termination of Gaussian 09 at Wed Aug 26 09:59:58 2020.
