 Gaussian 09, Revision D.01,
 Gaussian 09:  ES64L-G09RevD.01 24-Apr-2013

 --------------------
 #p B2PLYPD3/Def2QZVP
 --------------------

 ---
 h2o
 ---
 Symbolic Z-matrix:
 Charge =  0 Multiplicity = 1

                         Standard orientation:
 ---------------------------------------------------------------------
 Center     Atomic      Atomic             Coordinates (Angstroms)
 Number     Number       Type             X           Y           Z
 ---------------------------------------------------------------------
      1          8           0        0.000000    0.114179    0.000000
      2          1           0        0.744385   -0.490311    0.000000
      3          1           0       -0.744385   -0.423118    0.000000
 ---------------------------------------------------------------------

 SCF Done:  E(RB2PLYPD3) =  -76.3340613531     A.U. after   10 cycles
 E2(B2PLYPD3) =    -0.8932639917D-01 E(B2PLYPD3) =    -0.76423387752281D+02

 The electronic state is 1-A'.
 Alpha  occ. eigenvalues --  -19.72775  -1.16667  -0.62306  -0.47645  -0.40135
 Alpha virt. eigenvalues --    0.04745   0.10388   0.27363   0.30360   0.31330
 Alpha virt. eigenvalues --    0.36746   0.44615   0.50521   0.56423   0.62486
 Alpha virt. eigenvalues --    0.65097   0.81619   0.94216   0.95560   1.05103

 Mulliken charges:
               1
     1  O   -0.425671
     2  H    0.223172
     3  H    0.202499
 Sum of Mulliken charges =   0.00000

 Dipole moment (field-independent basis, Debye):
    X=             -0.0206    Y=             -1.9403    Z=              0.0000  Tot=              1.9404
 Quadrupole moment (field-independent basis, Debye-Ang):
   XX=             -4.3652   YY=             -6.3209   ZZ=             -7.5472
   XY=             -0.1097   XZ=              0.0000   YZ=              0.0000

 1\1\GINC-NODE32\SP\RB2PLYPD3-FC\def2QZVP\H2O1\BOITTIER\26-Aug-2020\0\\
 #p B2PLYPD3/Def2QZVP\\h2o\\0,1\O,0,-5.326605,-0.762242,0.921044\H,0,-4
 .368927,-0.717509,0.90185\H,0,-5.609308,0.097426,0.766622\\Version=ES6
 4L-G09RevD.01\State=1-A'\HF=-76.3340614\MP2=-76.4233878\RMSD=5.215e-09
 \PG=CS [SG(H2O1)]\\@

 WE TEND TO MEET ANY NEW SITUATION BY REORGANIZING. IT CAN BE A

 Normal termination of Gaussian 09 at Wed Aug 26 11:37:31 2020.
