 Gaussian 09, Revision D.01,
 Gaussian 09:  ES64L-G09RevD.01 24-Apr-2013

 --------------------
 #p B2PLYPD3/Def2QZVP
 --------------------

 ---
 h2o
 ---
 Symbolic Z-matrix:
 Charge =  0 Multiplicity = 1

                         Standard orientation:
 ---------------------------------------------------------------------
 Center     Atomic      Atomic             Coordinates (Angstroms)
 Number     Number       Type             X           Y           Z
 ---------------------------------------------------------------------
      1          8           0        0.000000    0.116816    0.000000
      2          1           0        0.752628   -0.478113    0.000000
      3          1           0       -0.752628   -0.456413    0.000000
 ---------------------------------------------------------------------

 SCF Done:  E(RB2PLYPD3) =  -76.3351554811     A.U. after   10 cycles
 E2(B2PLYPD3) =    -0.8980621510D-01 E(B2PLYPD3) =    -0.76424961696155D+02

 The electronic state is 1-A'.
 Alpha  occ. eigenvalues --  -19.73045  -1.15988  -0.61502  -0.47595  -0.40025
 Alpha virt. eigenvalues --    0.04596   0.10270   0.27478   0.30396   0.31073
 Alpha virt. eigenvalues --    0.36221   0.44151   0.50263   0.56374   0.62153
 Alpha virt. eigenvalues --    0.65486   0.81320   0.94026   0.95805   1.04222

 Mulliken charges:
               1
     1  O   -0.437621
     2  H    0.221882
     3  H    0.215739
 Sum of Mulliken charges =   0.00000

 Dipole moment (field-independent basis, Debye):
    X=             -0.0068    Y=             -1.9611    Z=              0.0000  Tot=              1.9612
 Quadrupole moment (field-independent basis, Debye-Ang):
   XX=             -4.3620   YY=             -6.3141   ZZ=             -7.5792
   XY=             -0.0354   XZ=              0.0000   YZ=              0.0000

 1\1\GINC-NODE32\SP\RB2PLYPD3-FC\def2QZVP\H2O1\BOITTIER\26-Aug-2020\0\\
 #p B2PLYPD3/Def2QZVP\\h2o\\0,1\O,0,-5.326605,-0.763484,0.923873\H,0,-4
 .368927,-0.719948,0.887178\H,0,-5.609308,0.119738,0.736691\\Version=ES
 64L-G09RevD.01\State=1-A'\HF=-76.3351555\MP2=-76.4249617\RMSD=4.256e-0
 9\PG=CS [SG(H2O1)]\\@

 My opinions may have changed, but not the fact that I am right.

 Normal termination of Gaussian 09 at Wed Aug 26 09:51:56 2020.
