 Gaussian 09, Revision D.01,
 Gaussian 09:  ES64L-G09RevD.01 24-Apr-2013

 --------------------
 #p B2PLYPD3/Def2QZVP
 --------------------

 ---
 h2o
 ---
 Symbolic Z-matrix:
 Charge =  0 Multiplicity = 1

                         Standard orientation:
 ---------------------------------------------------------------------
 Center     Atomic      Atomic             Coordinates (Angstroms)
 Number     Number       Type             X           Y           Z
 ---------------------------------------------------------------------
      1          8           0        0.000000    0.114919    0.000000
      2          1           0        0.726900   -0.515295    0.000000
      3          1           0       -0.726900   -0.404057    0.000000
 ---------------------------------------------------------------------

 SCF Done:  E(RB2PLYPD3) =  -76.3311255388     A.U. after   10 cycles
 E2(B2PLYPD3) =    -0.8902396171D-01 E(B2PLYPD3) =    -0.76420149500548D+02

 The electronic state is 1-A'.
 Alpha  occ. eigenvalues --  -19.72637  -1.17411  -0.62522  -0.48078  -0.40274
 Alpha virt. eigenvalues --    0.04790   0.10516   0.27288   0.30327   0.31262
 Alpha virt. eigenvalues --    0.37471   0.45060   0.50342   0.56750   0.62129
 Alpha virt. eigenvalues --    0.64827   0.81890   0.94352   0.95424   1.05141

 Mulliken charges:
               1
     1  O   -0.409850
     2  H    0.223524
     3  H    0.186326
 Sum of Mulliken charges =   0.00000

 Dipole moment (field-independent basis, Debye):
    X=             -0.0360    Y=             -1.9566    Z=              0.0000  Tot=              1.9569
 Quadrupole moment (field-independent basis, Debye-Ang):
   XX=             -4.4565   YY=             -6.2602   ZZ=             -7.5184
   XY=             -0.1759   XZ=              0.0000   YZ=              0.0000

 1\1\GINC-NODE21\SP\RB2PLYPD3-FC\def2QZVP\H2O1\BOITTIER\26-Aug-2020\0\\
 #p B2PLYPD3/Def2QZVP\\h2o\\0,1\O,0,-5.326605,-0.761818,0.925096\H,0,-4
 .368927,-0.691077,0.866768\H,0,-5.609308,0.064211,0.736749\\Version=ES
 64L-G09RevD.01\State=1-A'\HF=-76.3311255\MP2=-76.4201495\RMSD=6.354e-0
 9\PG=CS [SG(H2O1)]\\@

 CHILDREN YOU ARE VERY LITTLE,

 Normal termination of Gaussian 09 at Wed Aug 26 12:02:07 2020.
