 Gaussian 09, Revision D.01,
 Gaussian 09:  ES64L-G09RevD.01 24-Apr-2013

 --------------------
 #p B2PLYPD3/Def2QZVP
 --------------------

 ---
 h2o
 ---
 Symbolic Z-matrix:
 Charge =  0 Multiplicity = 1

                         Standard orientation:
 ---------------------------------------------------------------------
 Center     Atomic      Atomic             Coordinates (Angstroms)
 Number     Number       Type             X           Y           Z
 ---------------------------------------------------------------------
      1          8           0        0.000000    0.117730    0.000000
      2          1           0        0.773347   -0.447898    0.000000
      3          1           0       -0.773347   -0.493945    0.000000
 ---------------------------------------------------------------------

 SCF Done:  E(RB2PLYPD3) =  -76.3340026742     A.U. after   10 cycles
 E2(B2PLYPD3) =    -0.9040964144D-01 E(B2PLYPD3) =    -0.76424412315661D+02

 The electronic state is 1-A'.
 Alpha  occ. eigenvalues --  -19.73303  -1.15015  -0.60821  -0.47127  -0.39834
 Alpha virt. eigenvalues --    0.04390   0.10067   0.27580   0.30447   0.30747
 Alpha virt. eigenvalues --    0.35215   0.43621   0.50293   0.55962   0.62322
 Alpha virt. eigenvalues --    0.65936   0.80747   0.93283   0.96225   1.02958

 Mulliken charges:
               1
     1  O   -0.454612
     2  H    0.221532
     3  H    0.233080
 Sum of Mulliken charges =   0.00000

 Dipole moment (field-independent basis, Debye):
    X=              0.0139    Y=             -1.9574    Z=              0.0000  Tot=              1.9574
 Quadrupole moment (field-independent basis, Debye-Ang):
   XX=             -4.2735   YY=             -6.3558   ZZ=             -7.6252
   XY=              0.0771   XZ=              0.0000   YZ=              0.0000

 1\1\GINC-NODE21\SP\RB2PLYPD3-FC\def2QZVP\H2O1\BOITTIER\26-Aug-2020\0\\
 #p B2PLYPD3/Def2QZVP\\h2o\\0,1\O,0,-5.326605,-0.765069,0.918872\H,0,-4
 .368927,-0.742112,0.936978\H,0,-5.609308,0.167258,0.767021\\Version=ES
 64L-G09RevD.01\State=1-A'\HF=-76.3340027\MP2=-76.4244123\RMSD=4.301e-0
 9\PG=CS [SG(H2O1)]\\@

 YOU KNOW YOU'RE A TEACHER WHEN YOU SAY 2, WRITE 3, AND MEAN 4.

 Normal termination of Gaussian 09 at Wed Aug 26 10:01:25 2020.
