 Gaussian 09, Revision D.01,
 Gaussian 09:  ES64L-G09RevD.01 24-Apr-2013

 --------------------
 #p B2PLYPD3/Def2QZVP
 --------------------

 ---
 h2o
 ---
 Symbolic Z-matrix:
 Charge =  0 Multiplicity = 1

                         Standard orientation:
 ---------------------------------------------------------------------
 Center     Atomic      Atomic             Coordinates (Angstroms)
 Number     Number       Type             X           Y           Z
 ---------------------------------------------------------------------
      1          8           0        0.000000    0.118533    0.000000
      2          1           0        0.772720   -0.447919    0.000000
      3          1           0       -0.772720   -0.500345    0.000000
 ---------------------------------------------------------------------

 SCF Done:  E(RB2PLYPD3) =  -76.3337370289     A.U. after   10 cycles
 E2(B2PLYPD3) =    -0.9048804703D-01 E(B2PLYPD3) =    -0.76424225075957D+02

 The electronic state is 1-A'.
 Alpha  occ. eigenvalues --  -19.73350  -1.14958  -0.60658  -0.47177  -0.39829
 Alpha virt. eigenvalues --    0.04357   0.10055   0.27599   0.30450   0.30648
 Alpha virt. eigenvalues --    0.35205   0.43577   0.50195   0.55996   0.62184
 Alpha virt. eigenvalues --    0.65991   0.80724   0.93239   0.96256   1.02717

 Mulliken charges:
               1
     1  O   -0.454957
     2  H    0.220964
     3  H    0.233994
 Sum of Mulliken charges =   0.00000

 Dipole moment (field-independent basis, Debye):
    X=              0.0161    Y=             -1.9652    Z=              0.0000  Tot=              1.9653
 Quadrupole moment (field-independent basis, Debye-Ang):
   XX=             -4.2877   YY=             -6.3439   ZZ=             -7.6289
   XY=              0.0874   XZ=              0.0000   YZ=              0.0000

 1\1\GINC-NODE15\SP\RB2PLYPD3-FC\def2QZVP\H2O1\BOITTIER\26-Aug-2020\0\\
 #p B2PLYPD3/Def2QZVP\\h2o\\0,1\O,0,-5.326605,-0.765416,0.920213\H,0,-4
 .368927,-0.738039,0.928452\H,0,-5.609308,0.168734,0.754234\\Version=ES
 64L-G09RevD.01\State=1-A'\HF=-76.333737\MP2=-76.4242251\RMSD=4.415e-09
 \PG=CS [SG(H2O1)]\\@

 CHEMISTRY BEGAN BY SAYING IT WOULD CHANGE THE BASER

 Normal termination of Gaussian 09 at Wed Aug 26 11:54:31 2020.
