 Gaussian 09, Revision D.01,
 Gaussian 09:  ES64L-G09RevD.01 24-Apr-2013

 --------------------
 #p B2PLYPD3/Def2QZVP
 --------------------

 ---
 h2o
 ---
 Symbolic Z-matrix:
 Charge =  0 Multiplicity = 1

                         Standard orientation:
 ---------------------------------------------------------------------
 Center     Atomic      Atomic             Coordinates (Angstroms)
 Number     Number       Type             X           Y           Z
 ---------------------------------------------------------------------
      1          8           0        0.000000    0.118578    0.000000
      2          1           0        0.774705   -0.445133    0.000000
      3          1           0       -0.774705   -0.503495    0.000000
 ---------------------------------------------------------------------

 SCF Done:  E(RB2PLYPD3) =  -76.3334705414     A.U. after   10 cycles
 E2(B2PLYPD3) =    -0.9054292000D-01 E(B2PLYPD3) =    -0.76424013461383D+02

 The electronic state is 1-A'.
 Alpha  occ. eigenvalues --  -19.73371  -1.14874  -0.60603  -0.47128  -0.39811
 Alpha virt. eigenvalues --    0.04336   0.10036   0.27606   0.30455   0.30607
 Alpha virt. eigenvalues --    0.35118   0.43535   0.50203   0.55951   0.62210
 Alpha virt. eigenvalues --    0.66028   0.80665   0.93149   0.96294   1.02596

 Mulliken charges:
               1
     1  O   -0.456378
     2  H    0.221015
     3  H    0.235363
 Sum of Mulliken charges =   0.00000

 Dipole moment (field-independent basis, Debye):
    X=              0.0178    Y=             -1.9644    Z=              0.0000  Tot=              1.9644
 Quadrupole moment (field-independent basis, Debye-Ang):
   XX=             -4.2785   YY=             -6.3480   ZZ=             -7.6330
   XY=              0.0975   XZ=              0.0000   YZ=              0.0000

 1\1\GINC-NODE36\SP\RB2PLYPD3-FC\def2QZVP\H2O1\BOITTIER\26-Aug-2020\0\\
 #p B2PLYPD3/Def2QZVP\\h2o\\0,1\O,0,-5.326605,-0.765522,0.919743\H,0,-4
 .368927,-0.74062,0.932869\H,0,-5.609308,0.173014,0.757346\\Version=ES6
 4L-G09RevD.01\State=1-A'\HF=-76.3334705\MP2=-76.4240135\RMSD=4.503e-09
 \PG=CS [SG(H2O1)]\\@

 NOTHING WILL BE ATTEMPTED IF ALL POSSIBLE OBJECTIONS

 Normal termination of Gaussian 09 at Wed Aug 26 10:21:34 2020.
