 Gaussian 09, Revision D.01,
 Gaussian 09:  ES64L-G09RevD.01 24-Apr-2013

 --------------------
 #p B2PLYPD3/Def2QZVP
 --------------------

 ---
 h2o
 ---
 Symbolic Z-matrix:
 Charge =  0 Multiplicity = 1

                         Standard orientation:
 ---------------------------------------------------------------------
 Center     Atomic      Atomic             Coordinates (Angstroms)
 Number     Number       Type             X           Y           Z
 ---------------------------------------------------------------------
      1          8           0        0.000000    0.119232    0.000000
      2          1           0        0.762942   -0.463739    0.000000
      3          1           0       -0.762942   -0.490121    0.000000
 ---------------------------------------------------------------------

 SCF Done:  E(RB2PLYPD3) =  -76.3344990984     A.U. after   10 cycles
 E2(B2PLYPD3) =    -0.9033001558D-01 E(B2PLYPD3) =    -0.76424829114033D+02

 The electronic state is 1-A'.
 Alpha  occ. eigenvalues --  -19.73309  -1.15281  -0.60722  -0.47458  -0.39902
 Alpha virt. eigenvalues --    0.04414   0.10128   0.27586   0.30433   0.30716
 Alpha virt. eigenvalues --    0.35597   0.43717   0.50051   0.56236   0.61915
 Alpha virt. eigenvalues --    0.65883   0.80952   0.93595   0.96116   1.03003

 Mulliken charges:
               1
     1  O   -0.448838
     2  H    0.221008
     3  H    0.227829
 Sum of Mulliken charges =   0.00000

 Dipole moment (field-independent basis, Debye):
    X=              0.0084    Y=             -1.9778    Z=              0.0000  Tot=              1.9778
 Quadrupole moment (field-independent basis, Debye-Ang):
   XX=             -4.3455   YY=             -6.3114   ZZ=             -7.6140
   XY=              0.0431   XZ=              0.0000   YZ=              0.0000

 1\1\GINC-NODE03\SP\RB2PLYPD3-FC\def2QZVP\H2O1\BOITTIER\26-Aug-2020\0\\
 #p B2PLYPD3/Def2QZVP\\h2o\\0,1\O,0,-5.326605,-0.766323,0.916912\H,0,-4
 .368927,-0.712168,0.960002\H,0,-5.609308,0.157381,0.774637\\Version=ES
 64L-G09RevD.01\State=1-A'\HF=-76.3344991\MP2=-76.4248291\RMSD=4.167e-0
 9\PG=CS [SG(H2O1)]\\@

 THERE IS AN OLD, OLD RECIPE IN MAINE FOR STEWING COOT. PLACE THE

 Normal termination of Gaussian 09 at Wed Aug 26 12:08:13 2020.
