 Gaussian 09, Revision D.01,
 Gaussian 09:  ES64L-G09RevD.01 24-Apr-2013

 --------------------
 #p B2PLYPD3/Def2QZVP
 --------------------

 ---
 h2o
 ---
 Symbolic Z-matrix:
 Charge =  0 Multiplicity = 1

                         Standard orientation:
 ---------------------------------------------------------------------
 Center     Atomic      Atomic             Coordinates (Angstroms)
 Number     Number       Type             X           Y           Z
 ---------------------------------------------------------------------
      1          8           0        0.000000    0.119790    0.000000
      2          1           0        0.736965   -0.499374    0.000000
      3          1           0       -0.736965   -0.458945    0.000000
 ---------------------------------------------------------------------

 SCF Done:  E(RB2PLYPD3) =  -76.3345699884     A.U. after   10 cycles
 E2(B2PLYPD3) =    -0.8979213007D-01 E(B2PLYPD3) =    -0.76424362118470D+02

 The electronic state is 1-A'.
 Alpha  occ. eigenvalues --  -19.73097  -1.16333  -0.61146  -0.48122  -0.40112
 Alpha virt. eigenvalues --    0.04567   0.10345   0.27497   0.30381   0.30876
 Alpha virt. eigenvalues --    0.36758   0.44265   0.49863   0.56793   0.61439
 Alpha virt. eigenvalues --    0.65456   0.81479   0.94362   0.95714   1.03904

 Mulliken charges:
               1
     1  O   -0.429663
     2  H    0.220764
     3  H    0.208898
 Sum of Mulliken charges =   0.00000

 Dipole moment (field-independent basis, Debye):
    X=             -0.0138    Y=             -1.9980    Z=              0.0000  Tot=              1.9980
 Quadrupole moment (field-independent basis, Debye-Ang):
   XX=             -4.4775   YY=             -6.2363   ZZ=             -7.5679
   XY=             -0.0632   XZ=              0.0000   YZ=              0.0000

 1\1\GINC-NODE20\SP\RB2PLYPD3-FC\def2QZVP\H2O1\BOITTIER\26-Aug-2020\0\\
 #p B2PLYPD3/Def2QZVP\\h2o\\0,1\O,0,-5.326605,-0.765399,0.924478\H,0,-4
 .368927,-0.673781,0.8938\H,0,-5.609308,0.104216,0.719782\\Version=ES64
 L-G09RevD.01\State=1-A'\HF=-76.33457\MP2=-76.4243621\RMSD=4.792e-09\PG
 =CS [SG(H2O1)]\\@

      HUMANKIND PERIODICALLY GOES THROUGH A SPEEDUP OF ITS AFFAIRS,

 Normal termination of Gaussian 09 at Wed Aug 26 11:25:03 2020.
