 Gaussian 09, Revision D.01,
 Gaussian 09:  ES64L-G09RevD.01 24-Apr-2013

 --------------------
 #p B2PLYPD3/Def2QZVP
 --------------------

 ---
 h2o
 ---
 Symbolic Z-matrix:
 Charge =  0 Multiplicity = 1

                         Standard orientation:
 ---------------------------------------------------------------------
 Center     Atomic      Atomic             Coordinates (Angstroms)
 Number     Number       Type             X           Y           Z
 ---------------------------------------------------------------------
      1          8           0        0.000000    0.114415    0.000000
      2          1           0        0.739147   -0.504072    0.000000
      3          1           0       -0.739147   -0.411247    0.000000
 ---------------------------------------------------------------------

 SCF Done:  E(RB2PLYPD3) =  -76.3329396979     A.U. after   10 cycles
 E2(B2PLYPD3) =    -0.8924016673D-01 E(B2PLYPD3) =    -0.76422179864667D+02

 The electronic state is 1-A'.
 Alpha  occ. eigenvalues --  -19.72733  -1.16891  -0.62369  -0.47765  -0.40176
 Alpha virt. eigenvalues --    0.04751   0.10426   0.27339   0.30350   0.31273
 Alpha virt. eigenvalues --    0.36964   0.44760   0.50468   0.56509   0.62387
 Alpha virt. eigenvalues --    0.65011   0.81699   0.94208   0.95534   1.04959

 Mulliken charges:
               1
     1  O   -0.420707
     2  H    0.224991
     3  H    0.195716
 Sum of Mulliken charges =   0.00000

 Dipole moment (field-independent basis, Debye):
    X=             -0.0290    Y=             -1.9452    Z=              0.0000  Tot=              1.9454
 Quadrupole moment (field-independent basis, Debye-Ang):
   XX=             -4.3929   YY=             -6.3013   ZZ=             -7.5389
   XY=             -0.1501   XZ=              0.0000   YZ=              0.0000

 1\1\GINC-NODE32\SP\RB2PLYPD3-FC\def2QZVP\H2O1\BOITTIER\26-Aug-2020\0\\
 #p B2PLYPD3/Def2QZVP\\h2o\\0,1\O,0,-5.326605,-0.760215,0.929037\H,0,-4
 .368927,-0.727271,0.825925\H,0,-5.609308,0.074759,0.715598\\Version=ES
 64L-G09RevD.01\State=1-A'\HF=-76.3329397\MP2=-76.4221799\RMSD=5.840e-0
 9\PG=CS [SG(H2O1)]\\@

 THE MOST SERIOUS THREAT TO THE SURVIVAL OF MANKIND IS NOT NOW

 Normal termination of Gaussian 09 at Wed Aug 26 09:16:10 2020.
