 Gaussian 09, Revision D.01,
 Gaussian 09:  ES64L-G09RevD.01 24-Apr-2013

 --------------------
 #p B2PLYPD3/Def2QZVP
 --------------------

 ---
 h2o
 ---
 Symbolic Z-matrix:
 Charge =  0 Multiplicity = 1

                         Standard orientation:
 ---------------------------------------------------------------------
 Center     Atomic      Atomic             Coordinates (Angstroms)
 Number     Number       Type             X           Y           Z
 ---------------------------------------------------------------------
      1          8           0        0.000000    0.123816    0.000000
      2          1           0        0.717081   -0.530348    0.000000
      3          1           0       -0.717081   -0.460184    0.000000
 ---------------------------------------------------------------------

 SCF Done:  E(RB2PLYPD3) =  -76.3327758085     A.U. after   10 cycles
 E2(B2PLYPD3) =    -0.8984675280D-01 E(B2PLYPD3) =    -0.76422622561309D+02

 The electronic state is 1-A'.
 Alpha  occ. eigenvalues --  -19.73183  -1.16732  -0.60571  -0.48794  -0.40212
 Alpha virt. eigenvalues --    0.04491   0.10430   0.27528   0.30364   0.30577
 Alpha virt. eigenvalues --    0.37302   0.44400   0.49441   0.57311   0.60543
 Alpha virt. eigenvalues --    0.65417   0.81551   0.94746   0.95659   1.03480

 Mulliken charges:
               1
     1  O   -0.420453
     2  H    0.220932
     3  H    0.199520
 Sum of Mulliken charges =   0.00000

 Dipole moment (field-independent basis, Debye):
    X=             -0.0264    Y=             -2.0459    Z=              0.0000  Tot=              2.0461
 Quadrupole moment (field-independent basis, Debye-Ang):
   XX=             -4.6260   YY=             -6.1332   ZZ=             -7.5574
   XY=             -0.1038   XZ=              0.0000   YZ=              0.0000

 1\1\GINC-NODE34\SP\RB2PLYPD3-FC\def2QZVP\H2O1\BOITTIER\26-Aug-2020\0\\
 #p B2PLYPD3/Def2QZVP\\h2o\\0,1\O,0,-5.326605,-0.767857,0.925683\H,0,-4
 .368927,-0.61207,0.898865\H,0,-5.609308,0.081828,0.694652\\Version=ES6
 4L-G09RevD.01\State=1-A'\HF=-76.3327758\MP2=-76.4226226\RMSD=5.659e-09
 \PG=CS [SG(H2O1)]\\@

 ROSE IS A RED

 Normal termination of Gaussian 09 at Wed Aug 26 08:54:27 2020.
