 Gaussian 09, Revision D.01,
 Gaussian 09:  ES64L-G09RevD.01 24-Apr-2013

 --------------------
 #p B2PLYPD3/Def2QZVP
 --------------------

 ---
 h2o
 ---
 Symbolic Z-matrix:
 Charge =  0 Multiplicity = 1

                         Standard orientation:
 ---------------------------------------------------------------------
 Center     Atomic      Atomic             Coordinates (Angstroms)
 Number     Number       Type             X           Y           Z
 ---------------------------------------------------------------------
      1          8           0        0.000000    0.116082    0.000000
      2          1           0        0.766991   -0.457777    0.000000
      3          1           0       -0.766991   -0.470879    0.000000
 ---------------------------------------------------------------------

 SCF Done:  E(RB2PLYPD3) =  -76.3349843222     A.U. after   10 cycles
 E2(B2PLYPD3) =    -0.9006472138D-01 E(B2PLYPD3) =    -0.76425049043605D+02

 The electronic state is 1-A'.
 Alpha  occ. eigenvalues --  -19.73134  -1.15451  -0.61337  -0.47209  -0.39912
 Alpha virt. eigenvalues --    0.04522   0.10159   0.27515   0.30423   0.31033
 Alpha virt. eigenvalues --    0.35583   0.43881   0.50444   0.56053   0.62491
 Alpha virt. eigenvalues --    0.65686   0.81002   0.93631   0.96023   1.03858

 Mulliken charges:
               1
     1  O   -0.448031
     2  H    0.222276
     3  H    0.225755
 Sum of Mulliken charges =   0.00000

 Dipole moment (field-independent basis, Debye):
    X=              0.0039    Y=             -1.9458    Z=              0.0000  Tot=              1.9458
 Quadrupole moment (field-independent basis, Debye-Ang):
   XX=             -4.2822   YY=             -6.3608   ZZ=             -7.6028
   XY=              0.0219   XZ=              0.0000   YZ=              0.0000

 1\1\GINC-NODE13\SP\RB2PLYPD3-FC\def2QZVP\H2O1\BOITTIER\26-Aug-2020\0\\
 #p B2PLYPD3/Def2QZVP\\h2o\\0,1\O,0,-5.326605,-0.763659,0.9206\H,0,-4.3
 68927,-0.743514,0.914495\H,0,-5.609308,0.146109,0.761854\\Version=ES64
 L-G09RevD.01\State=1-A'\HF=-76.3349843\MP2=-76.425049\RMSD=3.969e-09\P
 G=CS [SG(H2O1)]\\@

 ALL MEN WHO EXPLORE

 Normal termination of Gaussian 09 at Wed Aug 26 08:32:41 2020.
