 Gaussian 09, Revision D.01,
 Gaussian 09:  ES64L-G09RevD.01 24-Apr-2013

 --------------------
 #p B2PLYPD3/Def2QZVP
 --------------------

 ---
 h2o
 ---
 Symbolic Z-matrix:
 Charge =  0 Multiplicity = 1

                         Standard orientation:
 ---------------------------------------------------------------------
 Center     Atomic      Atomic             Coordinates (Angstroms)
 Number     Number       Type             X           Y           Z
 ---------------------------------------------------------------------
      1          8           0        0.000000    0.115301    0.000000
      2          1           0        0.767088   -0.458521    0.000000
      3          1           0       -0.767088   -0.463884    0.000000
 ---------------------------------------------------------------------

 SCF Done:  E(RB2PLYPD3) =  -76.3350963043     A.U. after   10 cycles
 E2(B2PLYPD3) =    -0.8997945565D-01 E(B2PLYPD3) =    -0.76425075759948D+02

 The electronic state is 1-A'.
 Alpha  occ. eigenvalues --  -19.73082  -1.15531  -0.61511  -0.47168  -0.39922
 Alpha virt. eigenvalues --    0.04555   0.10174   0.27495   0.30419   0.31119
 Alpha virt. eigenvalues --    0.35617   0.43942   0.50539   0.56026   0.62623
 Alpha virt. eigenvalues --    0.65622   0.81035   0.93670   0.95986   1.04121

 Mulliken charges:
               1
     1  O   -0.447109
     2  H    0.222835
     3  H    0.224275
 Sum of Mulliken charges =   0.00000

 Dipole moment (field-independent basis, Debye):
    X=              0.0016    Y=             -1.9383    Z=              0.0000  Tot=              1.9383
 Quadrupole moment (field-independent basis, Debye-Ang):
   XX=             -4.2711   YY=             -6.3706   ZZ=             -7.5983
   XY=              0.0090   XZ=              0.0000   YZ=              0.0000

 1\1\GINC-NODE26\SP\RB2PLYPD3-FC\def2QZVP\H2O1\BOITTIER\26-Aug-2020\0\\
 #p B2PLYPD3/Def2QZVP\\h2o\\0,1\O,0,-5.326605,-0.763491,0.918168\H,0,-4
 .368927,-0.745169,0.932759\H,0,-5.609308,0.145062,0.782193\\Version=ES
 64L-G09RevD.01\State=1-A'\HF=-76.3350963\MP2=-76.4250758\RMSD=3.925e-0
 9\PG=CS [SG(H2O1)]\\@

 LIFE IS A CONTINUAL STRUGGLE AGAINST THE TENDENCY TO PRODUCE ENTROPY.

 Normal termination of Gaussian 09 at Wed Aug 26 10:32:51 2020.
