 Gaussian 09, Revision D.01,
 Gaussian 09:  ES64L-G09RevD.01 24-Apr-2013

 --------------------
 #p B2PLYPD3/Def2QZVP
 --------------------

 ---
 h2o
 ---
 Symbolic Z-matrix:
 Charge =  0 Multiplicity = 1

                         Standard orientation:
 ---------------------------------------------------------------------
 Center     Atomic      Atomic             Coordinates (Angstroms)
 Number     Number       Type             X           Y           Z
 ---------------------------------------------------------------------
      1          8           0        0.000000    0.116455    0.000000
      2          1           0        0.738817   -0.503164    0.000000
      3          1           0       -0.738817   -0.428474    0.000000
 ---------------------------------------------------------------------

 SCF Done:  E(RB2PLYPD3) =  -76.3338079819     A.U. after   10 cycles
 E2(B2PLYPD3) =    -0.8945473136D-01 E(B2PLYPD3) =    -0.76423262713252D+02

 The electronic state is 1-A'.
 Alpha  occ. eigenvalues --  -19.72876  -1.16658  -0.61893  -0.47893  -0.40147
 Alpha virt. eigenvalues --    0.04680   0.10394   0.27400   0.30363   0.31126
 Alpha virt. eigenvalues --    0.36879   0.44560   0.50230   0.56610   0.62029
 Alpha virt. eigenvalues --    0.65186   0.81612   0.94257   0.95600   1.04594

 Mulliken charges:
               1
     1  O   -0.424735
     2  H    0.223806
     3  H    0.200928
 Sum of Mulliken charges =   0.00000

 Dipole moment (field-independent basis, Debye):
    X=             -0.0241    Y=             -1.9652    Z=              0.0000  Tot=              1.9653
 Quadrupole moment (field-independent basis, Debye-Ang):
   XX=             -4.4224   YY=             -6.2785   ZZ=             -7.5507
   XY=             -0.1194   XZ=              0.0000   YZ=              0.0000

 1\1\GINC-NODE06\SP\RB2PLYPD3-FC\def2QZVP\H2O1\BOITTIER\26-Aug-2020\0\\
 #p B2PLYPD3/Def2QZVP\\h2o\\0,1\O,0,-5.326605,-0.761432,0.929779\H,0,-4
 .368927,-0.714879,0.827482\H,0,-5.609308,0.08183,0.702211\\Version=ES6
 4L-G09RevD.01\State=1-A'\HF=-76.333808\MP2=-76.4232627\RMSD=5.404e-09\
 PG=CS [SG(H2O1)]\\@

 THAT'S WHAT MAKES US A GREAT COUNTRY.

 Normal termination of Gaussian 09 at Wed Aug 26 09:01:52 2020.
