 Gaussian 09, Revision D.01,
 Gaussian 09:  ES64L-G09RevD.01 24-Apr-2013

 --------------------
 #p B2PLYPD3/Def2QZVP
 --------------------

 ---
 h2o
 ---
 Symbolic Z-matrix:
 Charge =  0 Multiplicity = 1

                         Standard orientation:
 ---------------------------------------------------------------------
 Center     Atomic      Atomic             Coordinates (Angstroms)
 Number     Number       Type             X           Y           Z
 ---------------------------------------------------------------------
      1          8           0        0.000000    0.114430    0.000000
      2          1           0        0.765105   -0.462140    0.000000
      3          1           0       -0.765105   -0.453300    0.000000
 ---------------------------------------------------------------------

 SCF Done:  E(RB2PLYPD3) =  -76.3352074788     A.U. after   10 cycles
 E2(B2PLYPD3) =    -0.8983552447D-01 E(B2PLYPD3) =    -0.76425043003253D+02

 The electronic state is 1-A'.
 Alpha  occ. eigenvalues --  -19.73004  -1.15710  -0.61756  -0.47172  -0.39951
 Alpha virt. eigenvalues --    0.04606   0.10209   0.27464   0.30409   0.31226
 Alpha virt. eigenvalues --    0.35754   0.44060   0.50631   0.56036   0.62741
 Alpha virt. eigenvalues --    0.65511   0.81126   0.93768   0.95908   1.04490

 Mulliken charges:
               1
     1  O   -0.444324
     2  H    0.223376
     3  H    0.220948
 Sum of Mulliken charges =   0.00000

 Dipole moment (field-independent basis, Debye):
    X=             -0.0026    Y=             -1.9311    Z=              0.0000  Tot=              1.9311
 Quadrupole moment (field-independent basis, Debye-Ang):
   XX=             -4.2689   YY=             -6.3759   ZZ=             -7.5892
   XY=             -0.0149   XZ=              0.0000   YZ=              0.0000

 1\1\GINC-NODE10\SP\RB2PLYPD3-FC\def2QZVP\H2O1\BOITTIER\26-Aug-2020\0\\
 #p B2PLYPD3/Def2QZVP\\h2o\\0,1\O,0,-5.326605,-0.763,0.917251\H,0,-4.36
 8927,-0.746188,0.936982\H,0,-5.609308,0.138225,0.792448\\Version=ES64L
 -G09RevD.01\State=1-A'\HF=-76.3352075\MP2=-76.425043\RMSD=3.956e-09\PG
 =CS [SG(H2O1)]\\@

 FROM AN ANONYMOUS WRITER, ON PERSPECTIVE:

 Normal termination of Gaussian 09 at Wed Aug 26 09:37:27 2020.
