 Gaussian 09, Revision D.01,
 Gaussian 09:  ES64L-G09RevD.01 24-Apr-2013

 --------------------
 #p B2PLYPD3/Def2QZVP
 --------------------

 ---
 h2o
 ---
 Symbolic Z-matrix:
 Charge =  0 Multiplicity = 1

                         Standard orientation:
 ---------------------------------------------------------------------
 Center     Atomic      Atomic             Coordinates (Angstroms)
 Number     Number       Type             X           Y           Z
 ---------------------------------------------------------------------
      1          8           0        0.000000    0.126095    0.000000
      2          1           0        0.748982   -0.484474    0.000000
      3          1           0       -0.748982   -0.524289    0.000000
 ---------------------------------------------------------------------

 SCF Done:  E(RB2PLYPD3) =  -76.3328269387     A.U. after   10 cycles
 E2(B2PLYPD3) =    -0.9084436299D-01 E(B2PLYPD3) =    -0.76423671301672D+02

 The electronic state is 1-A'.
 Alpha  occ. eigenvalues --  -19.73647  -1.15088  -0.59472  -0.48105  -0.39919
 Alpha virt. eigenvalues --    0.04201   0.10088   0.27736   0.30071   0.30441
 Alpha virt. eigenvalues --    0.35726   0.43459   0.49286   0.56729   0.60640
 Alpha virt. eigenvalues --    0.66220   0.80885   0.93748   0.96301   1.01539

 Mulliken charges:
               1
     1  O   -0.447185
     2  H    0.218649
     3  H    0.228536
 Sum of Mulliken charges =   0.00000

 Dipole moment (field-independent basis, Debye):
    X=              0.0144    Y=             -2.0485    Z=              0.0000  Tot=              2.0485
 Quadrupole moment (field-independent basis, Debye-Ang):
   XX=             -4.5096   YY=             -6.1890   ZZ=             -7.6308
   XY=              0.0613   XZ=              0.0000   YZ=              0.0000

 1\1\GINC-NODE09\SP\RB2PLYPD3-FC\def2QZVP\H2O1\BOITTIER\26-Aug-2020\0\\
 #p B2PLYPD3/Def2QZVP\\h2o\\0,1\O,0,-5.326605,-0.767174,0.932863\H,0,-4
 .368927,-0.679423,0.83841\H,0,-5.609308,0.138251,0.64259\\Version=ES64
 L-G09RevD.01\State=1-A'\HF=-76.3328269\MP2=-76.4236713\RMSD=4.583e-09\
 PG=CS [SG(H2O1)]\\@

 WE HAVE LEARNED THAT NOTHING IS SIMPLE AND

 Normal termination of Gaussian 09 at Wed Aug 26 08:41:26 2020.
