 Gaussian 09, Revision D.01,
 Gaussian 09:  ES64L-G09RevD.01 24-Apr-2013

 --------------------
 #p B2PLYPD3/Def2QZVP
 --------------------

 ---
 h2o
 ---
 Symbolic Z-matrix:
 Charge =  0 Multiplicity = 1

                         Standard orientation:
 ---------------------------------------------------------------------
 Center     Atomic      Atomic             Coordinates (Angstroms)
 Number     Number       Type             X           Y           Z
 ---------------------------------------------------------------------
      1          8           0        0.000000    0.114592    0.000000
      2          1           0        0.744184   -0.490292    0.000000
      3          1           0       -0.744184   -0.426446    0.000000
 ---------------------------------------------------------------------

 SCF Done:  E(RB2PLYPD3) =  -76.3341924730     A.U. after   10 cycles
 E2(B2PLYPD3) =    -0.8936645792D-01 E(B2PLYPD3) =    -0.76423558930973D+02

 The electronic state is 1-A'.
 Alpha  occ. eigenvalues --  -19.72802  -1.16627  -0.62213  -0.47673  -0.40131
 Alpha virt. eigenvalues --    0.04731   0.10382   0.27374   0.30363   0.31298
 Alpha virt. eigenvalues --    0.36735   0.44579   0.50471   0.56445   0.62411
 Alpha virt. eigenvalues --    0.65130   0.81604   0.94223   0.95572   1.05023

 Mulliken charges:
               1
     1  O   -0.426313
     2  H    0.222929
     3  H    0.203385
 Sum of Mulliken charges =   0.00000

 Dipole moment (field-independent basis, Debye):
    X=             -0.0198    Y=             -1.9444    Z=              0.0000  Tot=              1.9445
 Quadrupole moment (field-independent basis, Debye-Ang):
   XX=             -4.3717   YY=             -6.3158   ZZ=             -7.5494
   XY=             -0.1039   XZ=              0.0000   YZ=              0.0000

 1\1\GINC-NODE10\SP\RB2PLYPD3-FC\def2QZVP\H2O1\BOITTIER\26-Aug-2020\0\\
 #p B2PLYPD3/Def2QZVP\\h2o\\0,1\O,0,-5.326605,-0.762701,0.920103\H,0,-4
 .368927,-0.712857,0.912123\H,0,-5.609308,0.100118,0.771257\\Version=ES
 64L-G09RevD.01\State=1-A'\HF=-76.3341925\MP2=-76.4235589\RMSD=5.134e-0
 9\PG=CS [SG(H2O1)]\\@

 FORGIVE MY NONSENSE AS I ALSO FORGIVE THOSE WHO THINK THEY TALK SENSE

 Normal termination of Gaussian 09 at Wed Aug 26 08:32:49 2020.
