 Gaussian 09, Revision D.01,
 Gaussian 09:  ES64L-G09RevD.01 24-Apr-2013

 --------------------
 #p B2PLYPD3/Def2QZVP
 --------------------

 ---
 h2o
 ---
 Symbolic Z-matrix:
 Charge =  0 Multiplicity = 1

                         Standard orientation:
 ---------------------------------------------------------------------
 Center     Atomic      Atomic             Coordinates (Angstroms)
 Number     Number       Type             X           Y           Z
 ---------------------------------------------------------------------
      1          8           0        0.000000    0.114277    0.000000
      2          1           0        0.802224   -0.411167    0.000000
      3          1           0       -0.802224   -0.503050    0.000000
 ---------------------------------------------------------------------

 SCF Done:  E(RB2PLYPD3) =  -76.3312079909     A.U. after   10 cycles
 E2(B2PLYPD3) =    -0.9075997262D-01 E(B2PLYPD3) =    -0.76421967963483D+02

 The electronic state is 1-A'.
 Alpha  occ. eigenvalues --  -19.73333  -1.14203  -0.60849  -0.46246  -0.39629
 Alpha virt. eigenvalues --    0.04251   0.09878   0.27566   0.30494   0.30662
 Alpha virt. eigenvalues --    0.34173   0.43285   0.50987   0.55225   0.63345
 Alpha virt. eigenvalues --    0.66179   0.79950   0.92397   0.96609   1.02415

 Mulliken charges:
               1
     1  O   -0.472190
     2  H    0.225649
     3  H    0.246541
 Sum of Mulliken charges =   0.00000

 Dipole moment (field-independent basis, Debye):
    X=              0.0241    Y=             -1.9064    Z=              0.0000  Tot=              1.9065
 Quadrupole moment (field-independent basis, Debye-Ang):
   XX=             -4.0805   YY=             -6.4684   ZZ=             -7.6631
   XY=              0.1634   XZ=              0.0000   YZ=              0.0000

 1\1\GINC-NODE31\SP\RB2PLYPD3-FC\def2QZVP\H2O1\BOITTIER\26-Aug-2020\0\\
 #p B2PLYPD3/Def2QZVP\\h2o\\0,1\O,0,-5.326605,-0.762797,0.918125\H,0,-4
 .368927,-0.811559,0.929523\H,0,-5.609308,0.200357,0.787476\\Version=ES
 64L-G09RevD.01\State=1-A'\HF=-76.331208\MP2=-76.421968\RMSD=5.251e-09\
 PG=CS [SG(H2O1)]\\@

 SUCCESS IS COUNTED SWEETEST

 Normal termination of Gaussian 09 at Wed Aug 26 09:14:15 2020.
