 Gaussian 09, Revision D.01,
 Gaussian 09:  ES64L-G09RevD.01 24-Apr-2013

 --------------------
 #p B2PLYPD3/Def2QZVP
 --------------------

 ---
 h2o
 ---
 Symbolic Z-matrix:
 Charge =  0 Multiplicity = 1

                         Standard orientation:
 ---------------------------------------------------------------------
 Center     Atomic      Atomic             Coordinates (Angstroms)
 Number     Number       Type             X           Y           Z
 ---------------------------------------------------------------------
      1          8           0        0.000000    0.113983    0.000000
      2          1           0        0.713352   -0.537200    0.000000
      3          1           0       -0.713352   -0.374666    0.000000
 ---------------------------------------------------------------------

 SCF Done:  E(RB2PLYPD3) =  -76.3255041006     A.U. after   10 cycles
 E2(B2PLYPD3) =    -0.8864759967D-01 E(B2PLYPD3) =    -0.76414151700237D+02

 The electronic state is 1-A'.
 Alpha  occ. eigenvalues --  -19.72409  -1.18221  -0.63044  -0.48296  -0.40405
 Alpha virt. eigenvalues --    0.04849   0.10633   0.27164   0.30291   0.31251
 Alpha virt. eigenvalues --    0.37997   0.45624   0.50396   0.56884   0.62141
 Alpha virt. eigenvalues --    0.64496   0.82108   0.94185   0.95385   1.05219

 Mulliken charges:
               1
     1  O   -0.391477
     2  H    0.225418
     3  H    0.166060
 Sum of Mulliken charges =   0.00000

 Dipole moment (field-independent basis, Debye):
    X=             -0.0534    Y=             -1.9538    Z=              0.0000  Tot=              1.9545
 Quadrupole moment (field-independent basis, Debye-Ang):
   XX=             -4.5046   YY=             -6.2250   ZZ=             -7.4875
   XY=             -0.2528   XZ=              0.0000   YZ=              0.0000

 1\1\GINC-NODE17\SP\RB2PLYPD3-FC\def2QZVP\H2O1\BOITTIER\26-Aug-2020\0\\
 #p B2PLYPD3/Def2QZVP\\h2o\\0,1\O,0,-5.326605,-0.760031,0.928614\H,0,-4
 .368927,-0.685386,0.827661\H,0,-5.609308,0.02993,0.719595\\Version=ES6
 4L-G09RevD.01\State=1-A'\HF=-76.3255041\MP2=-76.4141517\RMSD=6.759e-09
 \PG=CS [SG(H2O1)]\\@

 FROM THE ASHES OF OUR DESPAIR GROW THE FLOWERS OF TOMORROW.

 Normal termination of Gaussian 09 at Wed Aug 26 08:54:28 2020.
