 Gaussian 09, Revision D.01,
 Gaussian 09:  ES64L-G09RevD.01 24-Apr-2013

 --------------------
 #p B2PLYPD3/Def2QZVP
 --------------------

 ---
 h2o
 ---
 Symbolic Z-matrix:
 Charge =  0 Multiplicity = 1

                         Standard orientation:
 ---------------------------------------------------------------------
 Center     Atomic      Atomic             Coordinates (Angstroms)
 Number     Number       Type             X           Y           Z
 ---------------------------------------------------------------------
      1          8           0        0.000000    0.118646    0.000000
      2          1           0        0.755190   -0.473133    0.000000
      3          1           0       -0.755190   -0.476039    0.000000
 ---------------------------------------------------------------------

 SCF Done:  E(RB2PLYPD3) =  -76.3350174483     A.U. after   10 cycles
 E2(B2PLYPD3) =    -0.9007652280D-01 E(B2PLYPD3) =    -0.76425093971077D+02

 The electronic state is 1-A'.
 Alpha  occ. eigenvalues --  -19.73196  -1.15670  -0.61025  -0.47623  -0.39976
 Alpha virt. eigenvalues --    0.04501   0.10210   0.27541   0.30413   0.30867
 Alpha virt. eigenvalues --    0.35990   0.43932   0.50071   0.56385   0.61890
 Alpha virt. eigenvalues --    0.65694   0.81169   0.93894   0.95948   1.03551

 Mulliken charges:
               1
     1  O   -0.442340
     2  H    0.220775
     3  H    0.221565
 Sum of Mulliken charges =   0.00000

 Dipole moment (field-independent basis, Debye):
    X=              0.0009    Y=             -1.9769    Z=              0.0000  Tot=              1.9769
 Quadrupole moment (field-independent basis, Debye-Ang):
   XX=             -4.3750   YY=             -6.2989   ZZ=             -7.5954
   XY=              0.0047   XZ=              0.0000   YZ=              0.0000

 1\1\GINC-NODE09\SP\RB2PLYPD3-FC\def2QZVP\H2O1\BOITTIER\26-Aug-2020\0\\
 #p B2PLYPD3/Def2QZVP\\h2o\\0,1\O,0,-5.326605,-0.764899,0.923267\H,0,-4
 .368927,-0.711434,0.900705\H,0,-5.609308,0.133865,0.732833\\Version=ES
 64L-G09RevD.01\State=1-A'\HF=-76.3350174\MP2=-76.425094\RMSD=4.142e-09
 \PG=CS [SG(H2O1)]\\@

 ALMOST ANYTHING IS EASIER TO GET INTO THAN OUT OF.

 Normal termination of Gaussian 09 at Wed Aug 26 10:51:22 2020.
