 Gaussian 09, Revision D.01,
 Gaussian 09:  ES64L-G09RevD.01 24-Apr-2013

 --------------------
 #p B2PLYPD3/Def2QZVP
 --------------------

 ---
 h2o
 ---
 Symbolic Z-matrix:
 Charge =  0 Multiplicity = 1

                         Standard orientation:
 ---------------------------------------------------------------------
 Center     Atomic      Atomic             Coordinates (Angstroms)
 Number     Number       Type             X           Y           Z
 ---------------------------------------------------------------------
      1          8           0        0.000000    0.114737    0.000000
      2          1           0        0.766538   -0.459534    0.000000
      3          1           0       -0.766538   -0.458361    0.000000
 ---------------------------------------------------------------------

 SCF Done:  E(RB2PLYPD3) =  -76.3351668142     A.U. after   10 cycles
 E2(B2PLYPD3) =    -0.8990371386D-01 E(B2PLYPD3) =    -0.76425070528086D+02

 The electronic state is 1-A'.
 Alpha  occ. eigenvalues --  -19.73039  -1.15615  -0.61652  -0.47154  -0.39934
 Alpha virt. eigenvalues --    0.04583   0.10190   0.27478   0.30414   0.31184
 Alpha virt. eigenvalues --    0.35671   0.44001   0.50604   0.56018   0.62710
 Alpha virt. eigenvalues --    0.65563   0.81075   0.93713   0.95949   1.04333

 Mulliken charges:
               1
     1  O   -0.445920
     2  H    0.223119
     3  H    0.222801
 Sum of Mulliken charges =   0.00000

 Dipole moment (field-independent basis, Debye):
    X=             -0.0003    Y=             -1.9332    Z=              0.0000  Tot=              1.9332
 Quadrupole moment (field-independent basis, Debye-Ang):
   XX=             -4.2661   YY=             -6.3760   ZZ=             -7.5939
   XY=             -0.0020   XZ=              0.0000   YZ=              0.0000

 1\1\GINC-NODE20\SP\RB2PLYPD3-FC\def2QZVP\H2O1\BOITTIER\26-Aug-2020\0\\
 #p B2PLYPD3/Def2QZVP\\h2o\\0,1\O,0,-5.326605,-0.762782,0.920267\H,0,-4
 .368927,-0.750597,0.911751\H,0,-5.609308,0.139154,0.76989\\Version=ES6
 4L-G09RevD.01\State=1-A'\HF=-76.3351668\MP2=-76.4250705\RMSD=3.920e-09
 \PG=CS [SG(H2O1)]\\@

 THE TEST OF A FIRST RATE INTELLIGENCE IS THE ABILITY TO HOLD TWO OPPOSED

 Normal termination of Gaussian 09 at Wed Aug 26 09:51:46 2020.
