 Gaussian 09, Revision D.01,
 Gaussian 09:  ES64L-G09RevD.01 24-Apr-2013

 --------------------
 #p B2PLYPD3/Def2QZVP
 --------------------

 ---
 h2o
 ---
 Symbolic Z-matrix:
 Charge =  0 Multiplicity = 1

                         Standard orientation:
 ---------------------------------------------------------------------
 Center     Atomic      Atomic             Coordinates (Angstroms)
 Number     Number       Type             X           Y           Z
 ---------------------------------------------------------------------
      1          8           0        0.000000    0.111302    0.000000
      2          1           0        0.817405   -0.396941    0.000000
      3          1           0       -0.817405   -0.493473    0.000000
 ---------------------------------------------------------------------

 SCF Done:  E(RB2PLYPD3) =  -76.3299130940     A.U. after   10 cycles
 E2(B2PLYPD3) =    -0.9084083445D-01 E(B2PLYPD3) =    -0.76420753928442D+02

 The electronic state is 1-A'.
 Alpha  occ. eigenvalues --  -19.73278  -1.13874  -0.61054  -0.45745  -0.39530
 Alpha virt. eigenvalues --    0.04219   0.09801   0.27520   0.30514   0.30790
 Alpha virt. eigenvalues --    0.33675   0.43160   0.51565   0.54825   0.64065
 Alpha virt. eigenvalues --    0.66278   0.79466   0.92147   0.96812   1.02414

 Mulliken charges:
               1
     1  O   -0.481439
     2  H    0.230146
     3  H    0.251292
 Sum of Mulliken charges =   0.00000

 Dipole moment (field-independent basis, Debye):
    X=              0.0228    Y=             -1.8680    Z=              0.0000  Tot=              1.8681
 Quadrupole moment (field-independent basis, Debye-Ang):
   XX=             -3.9613   YY=             -6.5433   ZZ=             -7.6777
   XY=              0.1779   XZ=              0.0000   YZ=              0.0000

 1\1\GINC-NODE14\SP\RB2PLYPD3-FC\def2QZVP\H2O1\BOITTIER\26-Aug-2020\0\\
 #p B2PLYPD3/Def2QZVP\\h2o\\0,1\O,0,-5.326605,-0.761091,0.914179\H,0,-4
 .368927,-0.850455,0.950629\H,0,-5.609308,0.211955,0.829543\\Version=ES
 64L-G09RevD.01\State=1-A'\HF=-76.3299131\MP2=-76.4207539\RMSD=5.525e-0
 9\PG=CS [SG(H2O1)]\\@

 ERWIN WITH HIS PSI CAN DO

 Normal termination of Gaussian 09 at Wed Aug 26 09:11:44 2020.
