 Gaussian 09, Revision D.01,
 Gaussian 09:  ES64L-G09RevD.01 24-Apr-2013

 --------------------
 #p B2PLYPD3/Def2QZVP
 --------------------

 ---
 h2o
 ---
 Symbolic Z-matrix:
 Charge =  0 Multiplicity = 1

                         Standard orientation:
 ---------------------------------------------------------------------
 Center     Atomic      Atomic             Coordinates (Angstroms)
 Number     Number       Type             X           Y           Z
 ---------------------------------------------------------------------
      1          8           0        0.000000    0.113574    0.000000
      2          1           0        0.773321   -0.451529    0.000000
      3          1           0       -0.773321   -0.457065    0.000000
 ---------------------------------------------------------------------

 SCF Done:  E(RB2PLYPD3) =  -76.3350136263     A.U. after   10 cycles
 E2(B2PLYPD3) =    -0.8994150243D-01 E(B2PLYPD3) =    -0.76424955128746D+02

 The electronic state is 1-A'.
 Alpha  occ. eigenvalues --  -19.73026  -1.15448  -0.61746  -0.46931  -0.39891
 Alpha virt. eigenvalues --    0.04578   0.10154   0.27473   0.30423   0.31250
 Alpha virt. eigenvalues --    0.35403   0.43939   0.50803   0.55838   0.63011
 Alpha virt. eigenvalues --    0.65592   0.80935   0.93569   0.96025   1.04421

 Mulliken charges:
               1
     1  O   -0.449882
     2  H    0.224204
     3  H    0.225679
 Sum of Mulliken charges =   0.00000

 Dipole moment (field-independent basis, Debye):
    X=              0.0016    Y=             -1.9180    Z=              0.0000  Tot=              1.9180
 Quadrupole moment (field-independent basis, Debye-Ang):
   XX=             -4.2169   YY=             -6.4078   ZZ=             -7.6005
   XY=              0.0095   XZ=              0.0000   YZ=              0.0000

 1\1\GINC-NODE29\SP\RB2PLYPD3-FC\def2QZVP\H2O1\BOITTIER\26-Aug-2020\0\\
 #p B2PLYPD3/Def2QZVP\\h2o\\0,1\O,0,-5.326605,-0.762386,0.917439\H,0,-4
 .368927,-0.765734,0.931884\H,0,-5.609308,0.147952,0.79489\\Version=ES6
 4L-G09RevD.01\State=1-A'\HF=-76.3350136\MP2=-76.4249551\RMSD=3.833e-09
 \PG=CS [SG(H2O1)]\\@

 ON A CLEAR DISK YOU CAN SEEK FOREVER.

 Normal termination of Gaussian 09 at Wed Aug 26 08:32:55 2020.
