 Gaussian 09, Revision D.01,
 Gaussian 09:  ES64L-G09RevD.01 24-Apr-2013

 --------------------
 #p B2PLYPD3/Def2QZVP
 --------------------

 ---
 h2o
 ---
 Symbolic Z-matrix:
 Charge =  0 Multiplicity = 1

                         Standard orientation:
 ---------------------------------------------------------------------
 Center     Atomic      Atomic             Coordinates (Angstroms)
 Number     Number       Type             X           Y           Z
 ---------------------------------------------------------------------
      1          8           0        0.000000    0.116031    0.000000
      2          1           0        0.765129   -0.460464    0.000000
      3          1           0       -0.765129   -0.467787    0.000000
 ---------------------------------------------------------------------

 SCF Done:  E(RB2PLYPD3) =  -76.3350795413     A.U. after   10 cycles
 E2(B2PLYPD3) =    -0.9001392391D-01 E(B2PLYPD3) =    -0.76425093465251D+02

 The electronic state is 1-A'.
 Alpha  occ. eigenvalues --  -19.73113  -1.15535  -0.61393  -0.47252  -0.39928
 Alpha virt. eigenvalues --    0.04539   0.10177   0.27507   0.30419   0.31058
 Alpha virt. eigenvalues --    0.35673   0.43926   0.50436   0.56091   0.62471
 Alpha virt. eigenvalues --    0.65648   0.81054   0.93694   0.95986   1.03964

 Mulliken charges:
               1
     1  O   -0.446518
     2  H    0.222276
     3  H    0.224241
 Sum of Mulliken charges =   0.00000

 Dipole moment (field-independent basis, Debye):
    X=              0.0022    Y=             -1.9464    Z=              0.0000  Tot=              1.9464
 Quadrupole moment (field-independent basis, Debye-Ang):
   XX=             -4.2906   YY=             -6.3566   ZZ=             -7.5988
   XY=              0.0122   XZ=              0.0000   YZ=              0.0000

 1\1\GINC-NODE26\SP\RB2PLYPD3-FC\def2QZVP\H2O1\BOITTIER\26-Aug-2020\0\\
 #p B2PLYPD3/Def2QZVP\\h2o\\0,1\O,0,-5.326605,-0.76353,0.921116\H,0,-4.
 368927,-0.741433,0.909575\H,0,-5.609308,0.141958,0.758523\\Version=ES6
 4L-G09RevD.01\State=1-A'\HF=-76.3350795\MP2=-76.4250935\RMSD=3.966e-09
 \PG=CS [SG(H2O1)]\\@

 THE MORE ACCURATE THE CALCULATIONS BECOME, THE MORE THE CONCEPTS

 Normal termination of Gaussian 09 at Wed Aug 26 10:15:28 2020.
