 Gaussian 09, Revision D.01,
 Gaussian 09:  ES64L-G09RevD.01 24-Apr-2013

 --------------------
 #p B2PLYPD3/Def2QZVP
 --------------------

 ---
 h2o
 ---
 Symbolic Z-matrix:
 Charge =  0 Multiplicity = 1

                         Standard orientation:
 ---------------------------------------------------------------------
 Center     Atomic      Atomic             Coordinates (Angstroms)
 Number     Number       Type             X           Y           Z
 ---------------------------------------------------------------------
      1          8           0        0.000000    0.115037    0.000000
      2          1           0        0.738663   -0.498595    0.000000
      3          1           0       -0.738663   -0.421700    0.000000
 ---------------------------------------------------------------------

 SCF Done:  E(RB2PLYPD3) =  -76.3335693259     A.U. after   10 cycles
 E2(B2PLYPD3) =    -0.8929191551D-01 E(B2PLYPD3) =    -0.76422861241446D+02

 The electronic state is 1-A'.
 Alpha  occ. eigenvalues --  -19.72775  -1.16832  -0.62233  -0.47823  -0.40171
 Alpha virt. eigenvalues --    0.04740   0.10420   0.27359   0.30353   0.31265
 Alpha virt. eigenvalues --    0.36963   0.44692   0.50388   0.56561   0.62261
 Alpha virt. eigenvalues --    0.65063   0.81689   0.94291   0.95524   1.05000

 Mulliken charges:
               1
     1  O   -0.421961
     2  H    0.223023
     3  H    0.198938
 Sum of Mulliken charges =   0.00000

 Dipole moment (field-independent basis, Debye):
    X=             -0.0243    Y=             -1.9517    Z=              0.0000  Tot=              1.9518
 Quadrupole moment (field-independent basis, Debye-Ang):
   XX=             -4.4038   YY=             -6.2946   ZZ=             -7.5415
   XY=             -0.1238   XZ=              0.0000   YZ=              0.0000

 1\1\GINC-NODE08\SP\RB2PLYPD3-FC\def2QZVP\H2O1\BOITTIER\26-Aug-2020\0\\
 #p B2PLYPD3/Def2QZVP\\h2o\\0,1\O,0,-5.326605,-0.762213,0.923923\H,0,-4
 .368927,-0.707658,0.878726\H,0,-5.609308,0.087117,0.74385\\Version=ES6
 4L-G09RevD.01\State=1-A'\HF=-76.3335693\MP2=-76.4228612\RMSD=5.511e-09
 \PG=CS [SG(H2O1)]\\@

 SUCCESS IS NEVER CERTAIN,

 Normal termination of Gaussian 09 at Wed Aug 26 12:39:10 2020.
