 Gaussian 09, Revision D.01,
 Gaussian 09:  ES64L-G09RevD.01 24-Apr-2013

 --------------------
 #p B2PLYPD3/Def2QZVP
 --------------------

 ---
 h2o
 ---
 Symbolic Z-matrix:
 Charge =  0 Multiplicity = 1

                         Standard orientation:
 ---------------------------------------------------------------------
 Center     Atomic      Atomic             Coordinates (Angstroms)
 Number     Number       Type             X           Y           Z
 ---------------------------------------------------------------------
      1          8           0        0.000000    0.116979    0.000000
      2          1           0        0.752160   -0.478113    0.000000
      3          1           0       -0.752160   -0.457723    0.000000
 ---------------------------------------------------------------------

 SCF Done:  E(RB2PLYPD3) =  -76.3351573193     A.U. after   10 cycles
 E2(B2PLYPD3) =    -0.8981376281D-01 E(B2PLYPD3) =    -0.76424971082147D+02

 The electronic state is 1-A'.
 Alpha  occ. eigenvalues --  -19.73052  -1.15990  -0.61474  -0.47615  -0.40026
 Alpha virt. eigenvalues --    0.04592   0.10271   0.27481   0.30396   0.31061
 Alpha virt. eigenvalues --    0.36233   0.44148   0.50241   0.56390   0.62119
 Alpha virt. eigenvalues --    0.65492   0.81323   0.94036   0.95805   1.04194

 Mulliken charges:
               1
     1  O   -0.437502
     2  H    0.221637
     3  H    0.215865
 Sum of Mulliken charges =   0.00000

 Dipole moment (field-independent basis, Debye):
    X=             -0.0064    Y=             -1.9630    Z=              0.0000  Tot=              1.9630
 Quadrupole moment (field-independent basis, Debye-Ang):
   XX=             -4.3665   YY=             -6.3109   ZZ=             -7.5793
   XY=             -0.0332   XZ=              0.0000   YZ=              0.0000

 1\1\GINC-NODE13\SP\RB2PLYPD3-FC\def2QZVP\H2O1\BOITTIER\26-Aug-2020\0\\
 #p B2PLYPD3/Def2QZVP\\h2o\\0,1\O,0,-5.326605,-0.764243,0.92078\H,0,-4.
 368927,-0.712159,0.916351\H,0,-5.609308,0.124088,0.756543\\Version=ES6
 4L-G09RevD.01\State=1-A'\HF=-76.3351573\MP2=-76.4249711\RMSD=4.253e-09
 \PG=CS [SG(H2O1)]\\@

 YOU KNOW YOU'VE SPOKEN TOO LONG WHEN THE AUDIENCE STOPS LOOKING AT

 Normal termination of Gaussian 09 at Wed Aug 26 11:08:44 2020.
