 Gaussian 09, Revision D.01,
 Gaussian 09:  ES64L-G09RevD.01 24-Apr-2013

 --------------------
 #p B2PLYPD3/Def2QZVP
 --------------------

 ---
 h2o
 ---
 Symbolic Z-matrix:
 Charge =  0 Multiplicity = 1

                         Standard orientation:
 ---------------------------------------------------------------------
 Center     Atomic      Atomic             Coordinates (Angstroms)
 Number     Number       Type             X           Y           Z
 ---------------------------------------------------------------------
      1          8           0        0.000000    0.114604    0.000000
      2          1           0        0.771613   -0.452649    0.000000
      3          1           0       -0.771613   -0.464181    0.000000
 ---------------------------------------------------------------------

 SCF Done:  E(RB2PLYPD3) =  -76.3349753435     A.U. after   10 cycles
 E2(B2PLYPD3) =    -0.9001240016D-01 E(B2PLYPD3) =    -0.76424987743678D+02

 The electronic state is 1-A'.
 Alpha  occ. eigenvalues --  -19.73079  -1.15413  -0.61558  -0.47024  -0.39892
 Alpha virt. eigenvalues --    0.04548   0.10148   0.27494   0.30425   0.31152
 Alpha virt. eigenvalues --    0.35437   0.43896   0.50659   0.55908   0.62810
 Alpha virt. eigenvalues --    0.65646   0.80941   0.93564   0.96039   1.04145

 Mulliken charges:
               1
     1  O   -0.449804
     2  H    0.223375
     3  H    0.226430
 Sum of Mulliken charges =   0.00000

 Dipole moment (field-independent basis, Debye):
    X=              0.0033    Y=             -1.9289    Z=              0.0000  Tot=              1.9289
 Quadrupole moment (field-independent basis, Debye-Ang):
   XX=             -4.2393   YY=             -6.3909   ZZ=             -7.6031
   XY=              0.0196   XZ=              0.0000   YZ=              0.0000

 1\1\GINC-NODE22\SP\RB2PLYPD3-FC\def2QZVP\H2O1\BOITTIER\26-Aug-2020\0\\
 #p B2PLYPD3/Def2QZVP\\h2o\\0,1\O,0,-5.326605,-0.762835,0.919391\H,0,-4
 .368927,-0.75885,0.919122\H,0,-5.609308,0.148248,0.776614\\Version=ES6
 4L-G09RevD.01\State=1-A'\HF=-76.3349753\MP2=-76.4249877\RMSD=3.887e-09
 \PG=CS [SG(H2O1)]\\@

 WAR ES EIN GOTT DER DIESE ZEICHEN SCHRIEB?

 Normal termination of Gaussian 09 at Wed Aug 26 10:04:53 2020.
