 Gaussian 09, Revision D.01,
 Gaussian 09:  ES64L-G09RevD.01 24-Apr-2013

 --------------------
 #p B2PLYPD3/Def2QZVP
 --------------------

 ---
 h2o
 ---
 Symbolic Z-matrix:
 Charge =  0 Multiplicity = 1

                         Standard orientation:
 ---------------------------------------------------------------------
 Center     Atomic      Atomic             Coordinates (Angstroms)
 Number     Number       Type             X           Y           Z
 ---------------------------------------------------------------------
      1          8           0        0.000000    0.117851    0.000000
      2          1           0        0.749509   -0.481567    0.000000
      3          1           0       -0.749509   -0.461245    0.000000
 ---------------------------------------------------------------------

 SCF Done:  E(RB2PLYPD3) =  -76.3351002927     A.U. after   10 cycles
 E2(B2PLYPD3) =    -0.8985183322D-01 E(B2PLYPD3) =    -0.76424952125955D+02

 The electronic state is 1-A'.
 Alpha  occ. eigenvalues --  -19.73086  -1.16006  -0.61332  -0.47723  -0.40036
 Alpha virt. eigenvalues --    0.04573   0.10276   0.27495   0.30396   0.30993
 Alpha virt. eigenvalues --    0.36305   0.44133   0.50128   0.56475   0.61935
 Alpha virt. eigenvalues --    0.65520   0.81337   0.94085   0.95806   1.04030

 Mulliken charges:
               1
     1  O   -0.436709
     2  H    0.221233
     3  H    0.215477
 Sum of Mulliken charges =   0.00000

 Dipole moment (field-independent basis, Debye):
    X=             -0.0065    Y=             -1.9727    Z=              0.0000  Tot=              1.9728
 Quadrupole moment (field-independent basis, Debye-Ang):
   XX=             -4.3912   YY=             -6.2934   ZZ=             -7.5796
   XY=             -0.0328   XZ=              0.0000   YZ=              0.0000

 1\1\GINC-NODE34\SP\RB2PLYPD3-FC\def2QZVP\H2O1\BOITTIER\26-Aug-2020\0\\
 #p B2PLYPD3/Def2QZVP\\h2o\\0,1\O,0,-5.326605,-0.76446,0.922744\H,0,-4.
 368927,-0.705373,0.902053\H,0,-5.609308,0.120777,0.739576\\Version=ES6
 4L-G09RevD.01\State=1-A'\HF=-76.3351003\MP2=-76.4249521\RMSD=4.304e-09
 \PG=CS [SG(H2O1)]\\@

 Normal termination of Gaussian 09 at Wed Aug 26 11:12:56 2020.
