 Gaussian 09, Revision D.01,
 Gaussian 09:  ES64L-G09RevD.01 24-Apr-2013

 --------------------
 #p B2PLYPD3/Def2QZVP
 --------------------

 ---
 h2o
 ---
 Symbolic Z-matrix:
 Charge =  0 Multiplicity = 1

                         Standard orientation:
 ---------------------------------------------------------------------
 Center     Atomic      Atomic             Coordinates (Angstroms)
 Number     Number       Type             X           Y           Z
 ---------------------------------------------------------------------
      1          8           0        0.000000    0.118302    0.000000
      2          1           0        0.742966   -0.490789    0.000000
      3          1           0       -0.742966   -0.455625    0.000000
 ---------------------------------------------------------------------

 SCF Done:  E(RB2PLYPD3) =  -76.3348558613     A.U. after   10 cycles
 E2(B2PLYPD3) =    -0.8975381945D-01 E(B2PLYPD3) =    -0.76424609680732D+02

 The electronic state is 1-A'.
 Alpha  occ. eigenvalues --  -19.73052  -1.16243  -0.61369  -0.47903  -0.40084
 Alpha virt. eigenvalues --    0.04595   0.10324   0.27479   0.30384   0.30986
 Alpha virt. eigenvalues --    0.36582   0.44254   0.50045   0.56621   0.61767
 Alpha virt. eigenvalues --    0.65437   0.81447   0.94239   0.95725   1.04124

 Mulliken charges:
               1
     1  O   -0.432073
     2  H    0.221155
     3  H    0.210918
 Sum of Mulliken charges =   0.00000

 Dipole moment (field-independent basis, Debye):
    X=             -0.0116    Y=             -1.9807    Z=              0.0000  Tot=              1.9807
 Quadrupole moment (field-independent basis, Debye-Ang):
   XX=             -4.4286   YY=             -6.2703   ZZ=             -7.5698
   XY=             -0.0560   XZ=              0.0000   YZ=              0.0000

 1\1\GINC-NODE11\SP\RB2PLYPD3-FC\def2QZVP\H2O1\BOITTIER\26-Aug-2020\0\\
 #p B2PLYPD3/Def2QZVP\\h2o\\0,1\O,0,-5.326605,-0.76474,0.922877\H,0,-4.
 368927,-0.691042,0.902583\H,0,-5.609308,0.110928,0.736664\\Version=ES6
 4L-G09RevD.01\State=1-A'\HF=-76.3348559\MP2=-76.4246097\RMSD=4.592e-09
 \PG=CS [SG(H2O1)]\\@

 IT IS BY EATING THE LIGHT OF A STAR THAT WE EXIST,

 Normal termination of Gaussian 09 at Wed Aug 26 11:38:35 2020.
