 Gaussian 09, Revision D.01,
 Gaussian 09:  ES64L-G09RevD.01 24-Apr-2013

 --------------------
 #p B2PLYPD3/Def2QZVP
 --------------------

 ---
 h2o
 ---
 Symbolic Z-matrix:
 Charge =  0 Multiplicity = 1

                         Standard orientation:
 ---------------------------------------------------------------------
 Center     Atomic      Atomic             Coordinates (Angstroms)
 Number     Number       Type             X           Y           Z
 ---------------------------------------------------------------------
      1          8           0        0.000000    0.122688    0.000000
      2          1           0        0.767900   -0.452484    0.000000
      3          1           0       -0.767900   -0.529024    0.000000
 ---------------------------------------------------------------------

 SCF Done:  E(RB2PLYPD3) =  -76.3322068931     A.U. after   10 cycles
 E2(B2PLYPD3) =    -0.9087135529D-01 E(B2PLYPD3) =    -0.76423078248383D+02

 The electronic state is 1-A'.
 Alpha  occ. eigenvalues --  -19.73581  -1.14720  -0.59855  -0.47469  -0.39813
 Alpha virt. eigenvalues --    0.04193   0.10000   0.27695   0.30150   0.30461
 Alpha virt. eigenvalues --    0.35193   0.43382   0.49699   0.56197   0.61467
 Alpha virt. eigenvalues --    0.66245   0.80630   0.93055   0.96409   1.01660

 Mulliken charges:
               1
     1  O   -0.455556
     2  H    0.218647
     3  H    0.236910
 Sum of Mulliken charges =   0.00000

 Dipole moment (field-independent basis, Debye):
    X=              0.0253    Y=             -2.0060    Z=              0.0000  Tot=              2.0062
 Quadrupole moment (field-independent basis, Debye-Ang):
   XX=             -4.3693   YY=             -6.2774   ZZ=             -7.6450
   XY=              0.1239   XZ=              0.0000   YZ=              0.0000

 1\1\GINC-NODE32\SP\RB2PLYPD3-FC\def2QZVP\H2O1\BOITTIER\26-Aug-2020\0\\
 #p B2PLYPD3/Def2QZVP\\h2o\\0,1\O,0,-5.326605,-0.767535,0.923927\H,0,-4
 .368927,-0.710954,0.911898\H,0,-5.609308,0.175553,0.711646\\Version=ES
 64L-G09RevD.01\State=1-A'\HF=-76.3322069\MP2=-76.4230782\RMSD=4.859e-0
 9\PG=CS [SG(H2O1)]\\@

 KEEP CLOSE TO NATURES HEART, YOURSELF;

 Normal termination of Gaussian 09 at Wed Aug 26 09:14:30 2020.
