 Gaussian 09, Revision D.01,
 Gaussian 09:  ES64L-G09RevD.01 24-Apr-2013

 --------------------
 #p B2PLYPD3/Def2QZVP
 --------------------

 ---
 h2o
 ---
 Symbolic Z-matrix:
 Charge =  0 Multiplicity = 1

                         Standard orientation:
 ---------------------------------------------------------------------
 Center     Atomic      Atomic             Coordinates (Angstroms)
 Number     Number       Type             X           Y           Z
 ---------------------------------------------------------------------
      1          8           0        0.000000    0.118022    0.000000
      2          1           0        0.766148   -0.461572    0.000000
      3          1           0       -0.766148   -0.482606    0.000000
 ---------------------------------------------------------------------

 SCF Done:  E(RB2PLYPD3) =  -76.3346493391     A.U. after   10 cycles
 E2(B2PLYPD3) =    -0.9026560283D-01 E(B2PLYPD3) =    -0.76424914941976D+02

 The electronic state is 1-A'.
 Alpha  occ. eigenvalues --  -19.73257  -1.15278  -0.60922  -0.47323  -0.39892
 Alpha virt. eigenvalues --    0.04444   0.10126   0.27565   0.30433   0.30825
 Alpha virt. eigenvalues --    0.35519   0.43743   0.50208   0.56132   0.62158
 Alpha virt. eigenvalues --    0.65837   0.80932   0.93557   0.96105   1.03260

 Mulliken charges:
               1
     1  O   -0.449784
     2  H    0.222167
     3  H    0.227617
 Sum of Mulliken charges =   0.00000

 Dipole moment (field-independent basis, Debye):
    X=              0.0065    Y=             -1.9646    Z=              0.0000  Tot=              1.9646
 Quadrupole moment (field-independent basis, Debye-Ang):
   XX=             -4.3131   YY=             -6.3347   ZZ=             -7.6128
   XY=              0.0348   XZ=              0.0000   YZ=              0.0000

 1\1\GINC-NODE37\SP\RB2PLYPD3-FC\def2QZVP\H2O1\BOITTIER\26-Aug-2020\0\\
 #p B2PLYPD3/Def2QZVP\\h2o\\0,1\O,0,-5.326605,-0.765707,0.914263\H,0,-4
 .368927,-0.7234,0.977302\H,0,-5.609308,0.158763,0.799499\\Version=ES64
 L-G09RevD.01\State=1-A'\HF=-76.3346493\MP2=-76.4249149\RMSD=4.061e-09\
 PG=CS [SG(H2O1)]\\@

 MEMORIES ARE LIKE AN ENGLISH GRAMMER LESSON -

 Normal termination of Gaussian 09 at Wed Aug 26 11:40:11 2020.
