 Gaussian 09, Revision D.01,
 Gaussian 09:  ES64L-G09RevD.01 24-Apr-2013

 --------------------
 #p B2PLYPD3/Def2QZVP
 --------------------

 ---
 h2o
 ---
 Symbolic Z-matrix:
 Charge =  0 Multiplicity = 1

                         Standard orientation:
 ---------------------------------------------------------------------
 Center     Atomic      Atomic             Coordinates (Angstroms)
 Number     Number       Type             X           Y           Z
 ---------------------------------------------------------------------
      1          8           0        0.000000    0.116057    0.000000
      2          1           0        0.736471   -0.502333    0.000000
      3          1           0       -0.736471   -0.426122    0.000000
 ---------------------------------------------------------------------

 SCF Done:  E(RB2PLYPD3) =  -76.3335897005     A.U. after   10 cycles
 E2(B2PLYPD3) =    -0.8935599514D-01 E(B2PLYPD3) =    -0.76422945695643D+02

 The electronic state is 1-A'.
 Alpha  occ. eigenvalues --  -19.72824  -1.16812  -0.62039  -0.47930  -0.40174
 Alpha virt. eigenvalues --    0.04712   0.10420   0.27378   0.30355   0.31182
 Alpha virt. eigenvalues --    0.37009   0.44655   0.50261   0.56643   0.62058
 Alpha virt. eigenvalues --    0.65110   0.81678   0.94323   0.95541   1.04806

 Mulliken charges:
               1
     1  O   -0.421966
     2  H    0.222874
     3  H    0.199092
 Sum of Mulliken charges =   0.00000

 Dipole moment (field-independent basis, Debye):
    X=             -0.0246    Y=             -1.9627    Z=              0.0000  Tot=              1.9628
 Quadrupole moment (field-independent basis, Debye-Ang):
   XX=             -4.4280   YY=             -6.2768   ZZ=             -7.5436
   XY=             -0.1216   XZ=              0.0000   YZ=              0.0000

 1\1\GINC-NODE12\SP\RB2PLYPD3-FC\def2QZVP\H2O1\BOITTIER\26-Aug-2020\0\\
 #p B2PLYPD3/Def2QZVP\\h2o\\0,1\O,0,-5.326605,-0.762361,0.926064\H,0,-4
 .368927,-0.702194,0.862598\H,0,-5.609308,0.084021,0.725904\\Version=ES
 64L-G09RevD.01\State=1-A'\HF=-76.3335897\MP2=-76.4229457\RMSD=5.505e-0
 9\PG=CS [SG(H2O1)]\\@

 IF YOU'RE NOT PART OF THE SOLUTION,

 Normal termination of Gaussian 09 at Wed Aug 26 12:24:13 2020.
