 Gaussian 09, Revision D.01,
 Gaussian 09:  ES64L-G09RevD.01 24-Apr-2013

 --------------------
 #p B2PLYPD3/Def2QZVP
 --------------------

 ---
 h2o
 ---
 Symbolic Z-matrix:
 Charge =  0 Multiplicity = 1

                         Standard orientation:
 ---------------------------------------------------------------------
 Center     Atomic      Atomic             Coordinates (Angstroms)
 Number     Number       Type             X           Y           Z
 ---------------------------------------------------------------------
      1          8           0        0.000000    0.115736    0.000000
      2          1           0        0.759446   -0.469465    0.000000
      3          1           0       -0.759446   -0.456421    0.000000
 ---------------------------------------------------------------------

 SCF Done:  E(RB2PLYPD3) =  -76.3352210074     A.U. after   10 cycles
 E2(B2PLYPD3) =    -0.8984499603D-01 E(B2PLYPD3) =    -0.76425066003447D+02

 The electronic state is 1-A'.
 Alpha  occ. eigenvalues --  -19.73038  -1.15812  -0.61593  -0.47375  -0.39982
 Alpha virt. eigenvalues --    0.04593   0.10232   0.27477   0.30404   0.31135
 Alpha virt. eigenvalues --    0.35957   0.44083   0.50432   0.56197   0.62435
 Alpha virt. eigenvalues --    0.65518   0.81212   0.93875   0.95869   1.04298

 Mulliken charges:
               1
     1  O   -0.441564
     2  H    0.222592
     3  H    0.218971
 Sum of Mulliken charges =   0.00000

 Dipole moment (field-independent basis, Debye):
    X=             -0.0040    Y=             -1.9469    Z=              0.0000  Tot=              1.9469
 Quadrupole moment (field-independent basis, Debye-Ang):
   XX=             -4.3143   YY=             -6.3452   ZZ=             -7.5859
   XY=             -0.0216   XZ=              0.0000   YZ=              0.0000

 1\1\GINC-NODE27\SP\RB2PLYPD3-FC\def2QZVP\H2O1\BOITTIER\26-Aug-2020\0\\
 #p B2PLYPD3/Def2QZVP\\h2o\\0,1\O,0,-5.326605,-0.762797,0.923593\H,0,-4
 .368927,-0.738178,0.88532\H,0,-5.609308,0.126971,0.743277\\Version=ES6
 4L-G09RevD.01\State=1-A'\HF=-76.335221\MP2=-76.425066\RMSD=4.072e-09\P
 G=CS [SG(H2O1)]\\@

 ADVERTISING--  HE WHO HAS SOMETHING TO SELL AND GOES AND WHISPERS

 Normal termination of Gaussian 09 at Wed Aug 26 10:26:21 2020.
