 Gaussian 09, Revision D.01,
 Gaussian 09:  ES64L-G09RevD.01 24-Apr-2013

 --------------------
 #p B2PLYPD3/Def2QZVP
 --------------------

 ---
 h2o
 ---
 Symbolic Z-matrix:
 Charge =  0 Multiplicity = 1

                         Standard orientation:
 ---------------------------------------------------------------------
 Center     Atomic      Atomic             Coordinates (Angstroms)
 Number     Number       Type             X           Y           Z
 ---------------------------------------------------------------------
      1          8           0        0.000000    0.112773    0.000000
      2          1           0        0.782721   -0.439647    0.000000
      3          1           0       -0.782721   -0.462539    0.000000
 ---------------------------------------------------------------------

 SCF Done:  E(RB2PLYPD3) =  -76.3345227133     A.U. after   10 cycles
 E2(B2PLYPD3) =    -0.9008818081D-01 E(B2PLYPD3) =    -0.76424610894066D+02

 The electronic state is 1-A'.
 Alpha  occ. eigenvalues --  -19.73062  -1.15134  -0.61684  -0.46663  -0.39819
 Alpha virt. eigenvalues --    0.04531   0.10086   0.27486   0.30440   0.31245
 Alpha virt. eigenvalues --    0.34997   0.43789   0.50989   0.55616   0.63291
 Alpha virt. eigenvalues --    0.65704   0.80681   0.93321   0.96177   1.04221

 Mulliken charges:
               1
     1  O   -0.456458
     2  H    0.225291
     3  H    0.231167
 Sum of Mulliken charges =   0.00000

 Dipole moment (field-independent basis, Debye):
    X=              0.0062    Y=             -1.9045    Z=              0.0000  Tot=              1.9045
 Quadrupole moment (field-independent basis, Debye-Ang):
   XX=             -4.1592   YY=             -6.4418   ZZ=             -7.6147
   XY=              0.0399   XZ=              0.0000   YZ=              0.0000

 1\1\GINC-NODE01\SP\RB2PLYPD3-FC\def2QZVP\H2O1\BOITTIER\26-Aug-2020\0\\
 #p B2PLYPD3/Def2QZVP\\h2o\\0,1\O,0,-5.326605,-0.76173,0.918226\H,0,-4.
 368927,-0.787414,0.921797\H,0,-5.609308,0.159138,0.79286\\Version=ES64
 L-G09RevD.01\State=1-A'\HF=-76.3345227\MP2=-76.4246109\RMSD=3.863e-09\
 PG=CS [SG(H2O1)]\\@

 THERE IS AN OLD, OLD RECIPE IN MAINE FOR STEWING COOT. PLACE THE

 Normal termination of Gaussian 09 at Wed Aug 26 09:12:31 2020.
