 Gaussian 09, Revision D.01,
 Gaussian 09:  ES64L-G09RevD.01 24-Apr-2013

 --------------------
 #p B2PLYPD3/Def2QZVP
 --------------------

 ---
 h2o
 ---
 Symbolic Z-matrix:
 Charge =  0 Multiplicity = 1

                         Standard orientation:
 ---------------------------------------------------------------------
 Center     Atomic      Atomic             Coordinates (Angstroms)
 Number     Number       Type             X           Y           Z
 ---------------------------------------------------------------------
      1          8           0        0.000000    0.118030    0.000000
      2          1           0        0.774815   -0.445416    0.000000
      3          1           0       -0.774815   -0.498823    0.000000
 ---------------------------------------------------------------------

 SCF Done:  E(RB2PLYPD3) =  -76.3337026441     A.U. after   10 cycles
 E2(B2PLYPD3) =    -0.9048124125D-01 E(B2PLYPD3) =    -0.76424183885393D+02

 The electronic state is 1-A'.
 Alpha  occ. eigenvalues --  -19.73336  -1.14925  -0.60721  -0.47102  -0.39818
 Alpha virt. eigenvalues --    0.04362   0.10047   0.27592   0.30452   0.30681
 Alpha virt. eigenvalues --    0.35138   0.43571   0.50269   0.55936   0.62298
 Alpha virt. eigenvalues --    0.65986   0.80690   0.93195   0.96268   1.02774

 Mulliken charges:
               1
     1  O   -0.455939
     2  H    0.221353
     3  H    0.234586
 Sum of Mulliken charges =   0.00000

 Dipole moment (field-independent basis, Debye):
    X=              0.0162    Y=             -1.9592    Z=              0.0000  Tot=              1.9593
 Quadrupole moment (field-independent basis, Debye-Ang):
   XX=             -4.2704   YY=             -6.3554   ZZ=             -7.6299
   XY=              0.0895   XZ=              0.0000   YZ=              0.0000

 1\1\GINC-NODE40\SP\RB2PLYPD3-FC\def2QZVP\H2O1\BOITTIER\26-Aug-2020\0\\
 #p B2PLYPD3/Def2QZVP\\h2o\\0,1\O,0,-5.326605,-0.765197,0.919412\H,0,-4
 .368927,-0.743636,0.933503\H,0,-5.609308,0.170826,0.761976\\Version=ES
 64L-G09RevD.01\State=1-A'\HF=-76.3337026\MP2=-76.4241839\RMSD=4.414e-0
 9\PG=CS [SG(H2O1)]\\@

 DIATOMIC MOLECULES ARE PECULIAR BECAUSE THEY ONLY HAVE TWO ENDS,

 Normal termination of Gaussian 09 at Wed Aug 26 09:56:54 2020.
