 Gaussian 09, Revision D.01,
 Gaussian 09:  ES64L-G09RevD.01 24-Apr-2013

 --------------------
 #p B2PLYPD3/Def2QZVP
 --------------------

 ---
 h2o
 ---
 Symbolic Z-matrix:
 Charge =  0 Multiplicity = 1

                         Standard orientation:
 ---------------------------------------------------------------------
 Center     Atomic      Atomic             Coordinates (Angstroms)
 Number     Number       Type             X           Y           Z
 ---------------------------------------------------------------------
      1          8           0        0.000000    0.121321    0.000000
      2          1           0        0.765242   -0.457219    0.000000
      3          1           0       -0.765242   -0.513346    0.000000
 ---------------------------------------------------------------------

 SCF Done:  E(RB2PLYPD3) =  -76.3333531115     A.U. after   10 cycles
 E2(B2PLYPD3) =    -0.9063729765D-01 E(B2PLYPD3) =    -0.76423990409167D+02

 The electronic state is 1-A'.
 Alpha  occ. eigenvalues --  -19.73468  -1.14966  -0.60209  -0.47486  -0.39854
 Alpha virt. eigenvalues --    0.04291   0.10058   0.27650   0.30401   0.30449
 Alpha virt. eigenvalues --    0.35378   0.43521   0.49833   0.56233   0.61628
 Alpha virt. eigenvalues --    0.66094   0.80778   0.93326   0.96281   1.02199

 Mulliken charges:
               1
     1  O   -0.452604
     2  H    0.219363
     3  H    0.233241
 Sum of Mulliken charges =   0.00000

 Dipole moment (field-independent basis, Debye):
    X=              0.0183    Y=             -1.9954    Z=              0.0000  Tot=              1.9955
 Quadrupole moment (field-independent basis, Debye-Ang):
   XX=             -4.3633   YY=             -6.2897   ZZ=             -7.6314
   XY=              0.0911   XZ=              0.0000   YZ=              0.0000

 1\1\GINC-NODE08\SP\RB2PLYPD3-FC\def2QZVP\H2O1\BOITTIER\26-Aug-2020\0\\
 #p B2PLYPD3/Def2QZVP\\h2o\\0,1\O,0,-5.326605,-0.766464,0.924507\H,0,-4
 .368927,-0.715583,0.90067\H,0,-5.609308,0.163044,0.713578\\Version=ES6
 4L-G09RevD.01\State=1-A'\HF=-76.3333531\MP2=-76.4239904\RMSD=4.548e-09
 \PG=CS [SG(H2O1)]\\@

 FROM THE ASHES OF OUR DESPAIR GROW THE FLOWERS OF TOMORROW.

 Normal termination of Gaussian 09 at Wed Aug 26 12:32:21 2020.
