 Gaussian 09, Revision D.01,
 Gaussian 09:  ES64L-G09RevD.01 24-Apr-2013

 --------------------
 #p B2PLYPD3/Def2QZVP
 --------------------

 ---
 h2o
 ---
 Symbolic Z-matrix:
 Charge =  0 Multiplicity = 1

                         Standard orientation:
 ---------------------------------------------------------------------
 Center     Atomic      Atomic             Coordinates (Angstroms)
 Number     Number       Type             X           Y           Z
 ---------------------------------------------------------------------
      1          8           0        0.000000    0.117630    0.000000
      2          1           0        0.715538   -0.532456    0.000000
      3          1           0       -0.715538   -0.408584    0.000000
 ---------------------------------------------------------------------

 SCF Done:  E(RB2PLYPD3) =  -76.3297863238     A.U. after   10 cycles
 E2(B2PLYPD3) =    -0.8908496979D-01 E(B2PLYPD3) =    -0.76418871293548D+02

 The electronic state is 1-A'.
 Alpha  occ. eigenvalues --  -19.72708  -1.17623  -0.62100  -0.48485  -0.40327
 Alpha virt. eigenvalues --    0.04726   0.10562   0.27306   0.30321   0.31042
 Alpha virt. eigenvalues --    0.37788   0.45140   0.50005   0.57053   0.61534
 Alpha virt. eigenvalues --    0.64839   0.81906   0.94454   0.95437   1.04778

 Mulliken charges:
               1
     1  O   -0.404640
     2  H    0.223442
     3  H    0.181198
 Sum of Mulliken charges =   0.00000

 Dipole moment (field-independent basis, Debye):
    X=             -0.0428    Y=             -1.9884    Z=              0.0000  Tot=              1.9888
 Quadrupole moment (field-independent basis, Debye-Ang):
   XX=             -4.5453   YY=             -6.1963   ZZ=             -7.5143
   XY=             -0.1893   XZ=              0.0000   YZ=              0.0000

 1\1\GINC-NODE27\SP\RB2PLYPD3-FC\def2QZVP\H2O1\BOITTIER\26-Aug-2020\0\\
 #p B2PLYPD3/Def2QZVP\\h2o\\0,1\O,0,-5.326605,-0.762635,0.928721\H,0,-4
 .368927,-0.66227,0.842783\H,0,-5.609308,0.048476,0.702726\\Version=ES6
 4L-G09RevD.01\State=1-A'\HF=-76.3297863\MP2=-76.4188713\RMSD=6.570e-09
 \PG=CS [SG(H2O1)]\\@

 Normal termination of Gaussian 09 at Wed Aug 26 08:52:58 2020.
