 Gaussian 09, Revision D.01,
 Gaussian 09:  ES64L-G09RevD.01 24-Apr-2013

 --------------------
 #p B2PLYPD3/Def2QZVP
 --------------------

 ---
 h2o
 ---
 Symbolic Z-matrix:
 Charge =  0 Multiplicity = 1

                         Standard orientation:
 ---------------------------------------------------------------------
 Center     Atomic      Atomic             Coordinates (Angstroms)
 Number     Number       Type             X           Y           Z
 ---------------------------------------------------------------------
      1          8           0        0.000000    0.120605    0.000000
      2          1           0        0.744342   -0.488466    0.000000
      3          1           0       -0.744342   -0.476374    0.000000
 ---------------------------------------------------------------------

 SCF Done:  E(RB2PLYPD3) =  -76.3348404536     A.U. after   10 cycles
 E2(B2PLYPD3) =    -0.9005559210D-01 E(B2PLYPD3) =    -0.76424896045660D+02

 The electronic state is 1-A'.
 Alpha  occ. eigenvalues --  -19.73227  -1.15911  -0.60805  -0.47984  -0.40038
 Alpha virt. eigenvalues --    0.04490   0.10263   0.27554   0.30401   0.30754
 Alpha virt. eigenvalues --    0.36362   0.44009   0.49809   0.56676   0.61412
 Alpha virt. eigenvalues --    0.65668   0.81297   0.94165   0.95876   1.03396

 Mulliken charges:
               1
     1  O   -0.436872
     2  H    0.220121
     3  H    0.216751
 Sum of Mulliken charges =   0.00000

 Dipole moment (field-independent basis, Debye):
    X=             -0.0041    Y=             -2.0015    Z=              0.0000  Tot=              2.0015
 Quadrupole moment (field-independent basis, Debye-Ang):
   XX=             -4.4542   YY=             -6.2466   ZZ=             -7.5869
   XY=             -0.0191   XZ=              0.0000   YZ=              0.0000

 1\1\GINC-NODE37\SP\RB2PLYPD3-FC\def2QZVP\H2O1\BOITTIER\26-Aug-2020\0\\
 #p B2PLYPD3/Def2QZVP\\h2o\\0,1\O,0,-5.326605,-0.766359,0.922721\H,0,-4
 .368927,-0.678126,0.913758\H,0,-5.609308,0.123907,0.727956\\Version=ES
 64L-G09RevD.01\State=1-A'\HF=-76.3348405\MP2=-76.424896\RMSD=4.379e-09
 \PG=CS [SG(H2O1)]\\@

 "A LITTLE BIT GOES A LONG WAY"

 Normal termination of Gaussian 09 at Wed Aug 26 11:24:45 2020.
