 Gaussian 09, Revision D.01,
 Gaussian 09:  ES64L-G09RevD.01 24-Apr-2013

 --------------------
 #p B2PLYPD3/Def2QZVP
 --------------------

 ---
 h2o
 ---
 Symbolic Z-matrix:
 Charge =  0 Multiplicity = 1

                         Standard orientation:
 ---------------------------------------------------------------------
 Center     Atomic      Atomic             Coordinates (Angstroms)
 Number     Number       Type             X           Y           Z
 ---------------------------------------------------------------------
      1          8           0        0.000000    0.112514    0.000000
      2          1           0        0.762892   -0.466946    0.000000
      3          1           0       -0.762892   -0.433165    0.000000
 ---------------------------------------------------------------------

 SCF Done:  E(RB2PLYPD3) =  -76.3350341932     A.U. after   10 cycles
 E2(B2PLYPD3) =    -0.8957676609D-01 E(B2PLYPD3) =    -0.76424610959267D+02

 The electronic state is 1-A'.
 Alpha  occ. eigenvalues --  -19.72851  -1.16017  -0.62247  -0.47122  -0.39998
 Alpha virt. eigenvalues --    0.04697   0.10263   0.27404   0.30392   0.31419
 Alpha virt. eigenvalues --    0.35949   0.44281   0.50854   0.56006   0.63041
 Alpha virt. eigenvalues --    0.65305   0.81262   0.93885   0.95787   1.05104

 Mulliken charges:
               1
     1  O   -0.439531
     2  H    0.224590
     3  H    0.214941
 Sum of Mulliken charges =   0.00000

 Dipole moment (field-independent basis, Debye):
    X=             -0.0096    Y=             -1.9137    Z=              0.0000  Tot=              1.9138
 Quadrupole moment (field-independent basis, Debye-Ang):
   XX=             -4.2538   YY=             -6.3921   ZZ=             -7.5736
   XY=             -0.0572   XZ=              0.0000   YZ=              0.0000

 1\1\GINC-NODE34\SP\RB2PLYPD3-FC\def2QZVP\H2O1\BOITTIER\26-Aug-2020\0\\
 #p B2PLYPD3/Def2QZVP\\h2o\\0,1\O,0,-5.326605,-0.761798,0.915979\H,0,-4
 .368927,-0.753413,0.939666\H,0,-5.609308,0.12623,0.80989\\Version=ES64
 L-G09RevD.01\State=1-A'\HF=-76.3350342\MP2=-76.424611\RMSD=4.254e-09\P
 G=CS [SG(H2O1)]\\@

 Standing in the middle of the road is very dangerous;

 Normal termination of Gaussian 09 at Wed Aug 26 12:12:02 2020.
