 Gaussian 09, Revision D.01,
 Gaussian 09:  ES64L-G09RevD.01 24-Apr-2013

 --------------------
 #p B2PLYPD3/Def2QZVP
 --------------------

 ---
 h2o
 ---
 Symbolic Z-matrix:
 Charge =  0 Multiplicity = 1

                         Standard orientation:
 ---------------------------------------------------------------------
 Center     Atomic      Atomic             Coordinates (Angstroms)
 Number     Number       Type             X           Y           Z
 ---------------------------------------------------------------------
      1          8           0        0.000000    0.115106    0.000000
      2          1           0        0.722792   -0.525581    0.000000
      3          1           0       -0.722792   -0.395270    0.000000
 ---------------------------------------------------------------------

 SCF Done:  E(RB2PLYPD3) =  -76.3296516215     A.U. after   10 cycles
 E2(B2PLYPD3) =    -0.8896245974D-01 E(B2PLYPD3) =    -0.76418614081265D+02

 The electronic state is 1-A'.
 Alpha  occ. eigenvalues --  -19.72601  -1.17598  -0.62565  -0.48166  -0.40306
 Alpha virt. eigenvalues --    0.04786   0.10545   0.27264   0.30319   0.31203
 Alpha virt. eigenvalues --    0.37612   0.45193   0.50307   0.56805   0.62060
 Alpha virt. eigenvalues --    0.64759   0.81932   0.94289   0.95430   1.05007

 Mulliken charges:
               1
     1  O   -0.405432
     2  H    0.224937
     3  H    0.180496
 Sum of Mulliken charges =   0.00000

 Dipole moment (field-independent basis, Debye):
    X=             -0.0427    Y=             -1.9602    Z=              0.0000  Tot=              1.9607
 Quadrupole moment (field-independent basis, Debye-Ang):
   XX=             -4.4776   YY=             -6.2439   ZZ=             -7.5121
   XY=             -0.2045   XZ=              0.0000   YZ=              0.0000

 1\1\GINC-NODE33\SP\RB2PLYPD3-FC\def2QZVP\H2O1\BOITTIER\26-Aug-2020\0\\
 #p B2PLYPD3/Def2QZVP\\h2o\\0,1\O,0,-5.326605,-0.760448,0.929745\H,0,-4
 .368927,-0.697003,0.821413\H,0,-5.609308,0.048207,0.708233\\Version=ES
 64L-G09RevD.01\State=1-A'\HF=-76.3296516\MP2=-76.4186141\RMSD=6.603e-0
 9\PG=CS [SG(H2O1)]\\@

 KNIGHT- SIRE, I'VE JUST RETURNED FROM THE FRONT

 Normal termination of Gaussian 09 at Wed Aug 26 08:42:47 2020.
