 Gaussian 09, Revision D.01,
 Gaussian 09:  ES64L-G09RevD.01 24-Apr-2013

 --------------------
 #p B2PLYPD3/Def2QZVP
 --------------------

 ---
 h2o
 ---
 Symbolic Z-matrix:
 Charge =  0 Multiplicity = 1

                         Standard orientation:
 ---------------------------------------------------------------------
 Center     Atomic      Atomic             Coordinates (Angstroms)
 Number     Number       Type             X           Y           Z
 ---------------------------------------------------------------------
      1          8           0        0.000000    0.112504    0.000000
      2          1           0        0.768074   -0.460220    0.000000
      3          1           0       -0.768074   -0.439810    0.000000
 ---------------------------------------------------------------------

 SCF Done:  E(RB2PLYPD3) =  -76.3351271269     A.U. after   10 cycles
 E2(B2PLYPD3) =    -0.8969934024D-01 E(B2PLYPD3) =    -0.76424826467119D+02

 The electronic state is 1-A'.
 Alpha  occ. eigenvalues --  -19.72903  -1.15789  -0.62120  -0.47000  -0.39952
 Alpha virt. eigenvalues --    0.04661   0.10219   0.27426   0.30404   0.31395
 Alpha virt. eigenvalues --    0.35700   0.44153   0.50896   0.55905   0.63119
 Alpha virt. eigenvalues --    0.65403   0.81124   0.93762   0.95881   1.04961

 Mulliken charges:
               1
     1  O   -0.444035
     2  H    0.224854
     3  H    0.219180
 Sum of Mulliken charges =   0.00000

 Dipole moment (field-independent basis, Debye):
    X=             -0.0057    Y=             -1.9107    Z=              0.0000  Tot=              1.9107
 Quadrupole moment (field-independent basis, Debye-Ang):
   XX=             -4.2283   YY=             -6.4065   ZZ=             -7.5838
   XY=             -0.0348   XZ=              0.0000   YZ=              0.0000

 1\1\GINC-NODE11\SP\RB2PLYPD3-FC\def2QZVP\H2O1\BOITTIER\26-Aug-2020\0\\
 #p B2PLYPD3/Def2QZVP\\h2o\\0,1\O,0,-5.326605,-0.761834,0.915496\H,0,-4
 .368927,-0.761823,0.943814\H,0,-5.609308,0.135208,0.813602\\Version=ES
 64L-G09RevD.01\State=1-A'\HF=-76.3351271\MP2=-76.4248265\RMSD=3.997e-0
 9\PG=CS [SG(H2O1)]\\@

 There was a great rattling of the words for the fewness of ideas.

 Normal termination of Gaussian 09 at Wed Aug 26 08:31:57 2020.
