 Gaussian 09, Revision D.01,
 Gaussian 09:  ES64L-G09RevD.01 24-Apr-2013

 --------------------
 #p B2PLYPD3/Def2QZVP
 --------------------

 ---
 h2o
 ---
 Symbolic Z-matrix:
 Charge =  0 Multiplicity = 1

                         Standard orientation:
 ---------------------------------------------------------------------
 Center     Atomic      Atomic             Coordinates (Angstroms)
 Number     Number       Type             X           Y           Z
 ---------------------------------------------------------------------
      1          8           0        0.000000    0.111025    0.000000
      2          1           0        0.749903   -0.484872    0.000000
      3          1           0       -0.749903   -0.403331    0.000000
 ---------------------------------------------------------------------

 SCF Done:  E(RB2PLYPD3) =  -76.3333635852     A.U. after   10 cycles
 E2(B2PLYPD3) =    -0.8912153983D-01 E(B2PLYPD3) =    -0.76422485125040D+02

 The electronic state is 1-A'.
 Alpha  occ. eigenvalues --  -19.72611  -1.16779  -0.62916  -0.47332  -0.40134
 Alpha virt. eigenvalues --    0.04828   0.10393   0.27301   0.30351   0.31559
 Alpha virt. eigenvalues --    0.36622   0.44768   0.50950   0.56178   0.63123
 Alpha virt. eigenvalues --    0.64931   0.81630   0.94123   0.95531   1.05579

 Mulliken charges:
               1
     1  O   -0.424533
     2  H    0.225010
     3  H    0.199523
 Sum of Mulliken charges =   0.00000

 Dipole moment (field-independent basis, Debye):
    X=             -0.0234    Y=             -1.9062    Z=              0.0000  Tot=              1.9064
 Quadrupole moment (field-independent basis, Debye-Ang):
   XX=             -4.2964   YY=             -6.3710   ZZ=             -7.5393
   XY=             -0.1365   XZ=              0.0000   YZ=              0.0000

 1\1\GINC-NODE39\SP\RB2PLYPD3-FC\def2QZVP\H2O1\BOITTIER\26-Aug-2020\0\\
 #p B2PLYPD3/Def2QZVP\\h2o\\0,1\O,0,-5.326605,-0.760495,0.9182\H,0,-4.3
 68927,-0.743712,0.913817\H,0,-5.609308,0.095681,0.80005\\Version=ES64L
 -G09RevD.01\State=1-A'\HF=-76.3333636\MP2=-76.4224851\RMSD=5.572e-09\P
 G=CS [SG(H2O1)]\\@

      THE ONE-EYED VIEW OF OUR UNIVERSE SAYS YOU MUST NOT LOOK

 Normal termination of Gaussian 09 at Wed Aug 26 08:33:22 2020.
