 Gaussian 09, Revision D.01,
 Gaussian 09:  ES64L-G09RevD.01 24-Apr-2013

 --------------------
 #p B2PLYPD3/Def2QZVP
 --------------------

 ---
 h2o
 ---
 Symbolic Z-matrix:
 Charge =  0 Multiplicity = 1

                         Standard orientation:
 ---------------------------------------------------------------------
 Center     Atomic      Atomic             Coordinates (Angstroms)
 Number     Number       Type             X           Y           Z
 ---------------------------------------------------------------------
      1          8           0        0.000000    0.115530    0.000000
      2          1           0        0.763210   -0.464075    0.000000
      3          1           0       -0.763210   -0.460166    0.000000
 ---------------------------------------------------------------------

 SCF Done:  E(RB2PLYPD3) =  -76.3351913322     A.U. after   10 cycles
 E2(B2PLYPD3) =    -0.8991165915D-01 E(B2PLYPD3) =    -0.76425102991311D+02

 The electronic state is 1-A'.
 Alpha  occ. eigenvalues --  -19.73061  -1.15672  -0.61551  -0.47274  -0.39952
 Alpha virt. eigenvalues --    0.04575   0.10204   0.27486   0.30412   0.31128
 Alpha virt. eigenvalues --    0.35789   0.44012   0.50483   0.56114   0.62526
 Alpha virt. eigenvalues --    0.65570   0.81127   0.93776   0.95926   1.04214

 Mulliken charges:
               1
     1  O   -0.444322
     2  H    0.222695
     3  H    0.221627
 Sum of Mulliken charges =   0.00000

 Dipole moment (field-independent basis, Debye):
    X=             -0.0012    Y=             -1.9428    Z=              0.0000  Tot=              1.9428
 Quadrupole moment (field-independent basis, Debye-Ang):
   XX=             -4.2932   YY=             -6.3577   ZZ=             -7.5920
   XY=             -0.0065   XZ=              0.0000   YZ=              0.0000

 1\1\GINC-NODE39\SP\RB2PLYPD3-FC\def2QZVP\H2O1\BOITTIER\26-Aug-2020\0\\
 #p B2PLYPD3/Def2QZVP\\h2o\\0,1\O,0,-5.326605,-0.76284,0.922782\H,0,-4.
 368927,-0.744317,0.892094\H,0,-5.609308,0.133806,0.749517\\Version=ES6
 4L-G09RevD.01\State=1-A'\HF=-76.3351913\MP2=-76.425103\RMSD=3.978e-09\
 PG=CS [SG(H2O1)]\\@

 YOU CAN WIPE THE SLATE CLEAN, BUT YOU'LL STILL

 Normal termination of Gaussian 09 at Wed Aug 26 10:09:31 2020.
