 Gaussian 09, Revision D.01,
 Gaussian 09:  ES64L-G09RevD.01 24-Apr-2013

 --------------------
 #p B2PLYPD3/Def2QZVP
 --------------------

 ---
 h2o
 ---
 Symbolic Z-matrix:
 Charge =  0 Multiplicity = 1

                         Standard orientation:
 ---------------------------------------------------------------------
 Center     Atomic      Atomic             Coordinates (Angstroms)
 Number     Number       Type             X           Y           Z
 ---------------------------------------------------------------------
      1          8           0        0.000000    0.113895    0.000000
      2          1           0        0.774433   -0.449547    0.000000
      3          1           0       -0.774433   -0.461611    0.000000
 ---------------------------------------------------------------------

 SCF Done:  E(RB2PLYPD3) =  -76.3349190204     A.U. after   10 cycles
 E2(B2PLYPD3) =    -0.9000376170D-01 E(B2PLYPD3) =    -0.76424922782131D+02

 The electronic state is 1-A'.
 Alpha  occ. eigenvalues --  -19.73058  -1.15367  -0.61646  -0.46920  -0.39877
 Alpha virt. eigenvalues --    0.04555   0.10138   0.27486   0.30427   0.31204
 Alpha virt. eigenvalues --    0.35337   0.43888   0.50772   0.55826   0.62973
 Alpha virt. eigenvalues --    0.65639   0.80890   0.93516   0.96061   1.04255

 Mulliken charges:
               1
     1  O   -0.451172
     2  H    0.223995
     3  H    0.227177
 Sum of Mulliken charges =   0.00000

 Dipole moment (field-independent basis, Debye):
    X=              0.0034    Y=             -1.9204    Z=              0.0000  Tot=              1.9204
 Quadrupole moment (field-independent basis, Debye-Ang):
   XX=             -4.2157   YY=             -6.4068   ZZ=             -7.6046
   XY=              0.0206   XZ=              0.0000   YZ=              0.0000

 1\1\GINC-NODE22\SP\RB2PLYPD3-FC\def2QZVP\H2O1\BOITTIER\26-Aug-2020\0\\
 #p B2PLYPD3/Def2QZVP\\h2o\\0,1\O,0,-5.326605,-0.762493,0.918353\H,0,-4
 .368927,-0.766688,0.925312\H,0,-5.609308,0.150622,0.787\\Version=ES64L
 -G09RevD.01\State=1-A'\HF=-76.334919\MP2=-76.4249228\RMSD=3.853e-09\PG
 =CS [SG(H2O1)]\\@

 There was a great rattling of the words for the fewness of ideas.

 Normal termination of Gaussian 09 at Wed Aug 26 11:53:27 2020.
