 Gaussian 09, Revision D.01,
 Gaussian 09:  ES64L-G09RevD.01 24-Apr-2013

 --------------------
 #p B2PLYPD3/Def2QZVP
 --------------------

 ---
 h2o
 ---
 Symbolic Z-matrix:
 Charge =  0 Multiplicity = 1

                         Standard orientation:
 ---------------------------------------------------------------------
 Center     Atomic      Atomic             Coordinates (Angstroms)
 Number     Number       Type             X           Y           Z
 ---------------------------------------------------------------------
      1          8           0        0.000000    0.113477    0.000000
      2          1           0        0.710071   -0.538643    0.000000
      3          1           0       -0.710071   -0.369177    0.000000
 ---------------------------------------------------------------------

 SCF Done:  E(RB2PLYPD3) =  -76.3240253373     A.U. after   10 cycles
 E2(B2PLYPD3) =    -0.8852442454D-01 E(B2PLYPD3) =    -0.76412549761798D+02

 The electronic state is 1-A'.
 Alpha  occ. eigenvalues --  -19.72334  -1.18452  -0.63240  -0.48340  -0.40442
 Alpha virt. eigenvalues --    0.04880   0.10664   0.27127   0.30280   0.31296
 Alpha virt. eigenvalues --    0.38136   0.45773   0.50438   0.56914   0.62181
 Alpha virt. eigenvalues --    0.64403   0.82175   0.94163   0.95372   1.05376

 Mulliken charges:
               1
     1  O   -0.386301
     2  H    0.224889
     3  H    0.161412
 Sum of Mulliken charges =   0.00000

 Dipole moment (field-independent basis, Debye):
    X=             -0.0557    Y=             -1.9505    Z=              0.0000  Tot=              1.9513
 Quadrupole moment (field-independent basis, Debye-Ang):
   XX=             -4.5123   YY=             -6.2203   ZZ=             -7.4780
   XY=             -0.2629   XZ=              0.0000   YZ=              0.0000

 1\1\GINC-NODE29\SP\RB2PLYPD3-FC\def2QZVP\H2O1\BOITTIER\26-Aug-2020\0\\
 #p B2PLYPD3/Def2QZVP\\h2o\\0,1\O,0,-5.326605,-0.760667,0.925487\H,0,-4
 .368927,-0.673903,0.856302\H,0,-5.609308,0.028627,0.740419\\Version=ES
 64L-G09RevD.01\State=1-A'\HF=-76.3240253\MP2=-76.4125498\RMSD=6.697e-0
 9\PG=CS [SG(H2O1)]\\@

 A true friend is someone who is there for

 Normal termination of Gaussian 09 at Wed Aug 26 09:24:28 2020.
