 Gaussian 09, Revision D.01,
 Gaussian 09:  ES64L-G09RevD.01 24-Apr-2013

 --------------------
 #p B2PLYPD3/Def2QZVP
 --------------------

 ---
 h2o
 ---
 Symbolic Z-matrix:
 Charge =  0 Multiplicity = 1

                         Standard orientation:
 ---------------------------------------------------------------------
 Center     Atomic      Atomic             Coordinates (Angstroms)
 Number     Number       Type             X           Y           Z
 ---------------------------------------------------------------------
      1          8           0        0.000000    0.117450    0.000000
      2          1           0        0.760932   -0.465723    0.000000
      3          1           0       -0.760932   -0.473875    0.000000
 ---------------------------------------------------------------------

 SCF Done:  E(RB2PLYPD3) =  -76.3350288500     A.U. after   10 cycles
 E2(B2PLYPD3) =    -0.9007436996D-01 E(B2PLYPD3) =    -0.76425103219909D+02

 The electronic state is 1-A'.
 Alpha  occ. eigenvalues --  -19.73169  -1.15559  -0.61169  -0.47424  -0.39944
 Alpha virt. eigenvalues --    0.04510   0.10185   0.27530   0.30418   0.30943
 Alpha virt. eigenvalues --    0.35793   0.43904   0.50241   0.56225   0.62173
 Alpha virt. eigenvalues --    0.65694   0.81093   0.93760   0.95983   1.03684

 Mulliken charges:
               1
     1  O   -0.445123
     2  H    0.221467
     3  H    0.223656
 Sum of Mulliken charges =   0.00000

 Dipole moment (field-independent basis, Debye):
    X=              0.0025    Y=             -1.9623    Z=              0.0000  Tot=              1.9623
 Quadrupole moment (field-independent basis, Debye-Ang):
   XX=             -4.3306   YY=             -6.3284   ZZ=             -7.5992
   XY=              0.0134   XZ=              0.0000   YZ=              0.0000

 1\1\GINC-NODE06\SP\RB2PLYPD3-FC\def2QZVP\H2O1\BOITTIER\26-Aug-2020\0\\
 #p B2PLYPD3/Def2QZVP\\h2o\\0,1\O,0,-5.326605,-0.764815,0.919274\H,0,-4
 .368927,-0.722402,0.93198\H,0,-5.609308,0.143483,0.765143\\Version=ES6
 4L-G09RevD.01\State=1-A'\HF=-76.3350288\MP2=-76.4251032\RMSD=4.047e-09
 \PG=CS [SG(H2O1)]\\@

 PENOTUS DIED A HUNDRED YEARS OLD WANTING BUT TWO...

 Normal termination of Gaussian 09 at Wed Aug 26 10:39:34 2020.
