 Gaussian 09, Revision D.01,
 Gaussian 09:  ES64L-G09RevD.01 24-Apr-2013

 --------------------
 #p B2PLYPD3/Def2QZVP
 --------------------

 ---
 h2o
 ---
 Symbolic Z-matrix:
 Charge =  0 Multiplicity = 1

                         Standard orientation:
 ---------------------------------------------------------------------
 Center     Atomic      Atomic             Coordinates (Angstroms)
 Number     Number       Type             X           Y           Z
 ---------------------------------------------------------------------
      1          8           0        0.000000    0.117778    0.000000
      2          1           0        0.807007   -0.402211    0.000000
      3          1           0       -0.807007   -0.540010    0.000000
 ---------------------------------------------------------------------

 SCF Done:  E(RB2PLYPD3) =  -76.3278281268     A.U. after   10 cycles
 E2(B2PLYPD3) =    -0.9129329048D-01 E(B2PLYPD3) =    -0.76419121417266D+02

 The electronic state is 1-A'.
 Alpha  occ. eigenvalues --  -19.73590  -1.13711  -0.59999  -0.46258  -0.39547
 Alpha virt. eigenvalues --    0.03993   0.09753   0.27640   0.29908   0.30521
 Alpha virt. eigenvalues --    0.33998   0.42999   0.50581   0.55172   0.62872
 Alpha virt. eigenvalues --    0.66503   0.79622   0.91632   0.96782   1.01198

 Mulliken charges:
               1
     1  O   -0.477074
     2  H    0.224008
     3  H    0.253065
 Sum of Mulliken charges =   0.00000

 Dipole moment (field-independent basis, Debye):
    X=              0.0380    Y=             -1.9354    Z=              0.0000  Tot=              1.9358
 Quadrupole moment (field-independent basis, Debye-Ang):
   XX=             -4.1039   YY=             -6.4294   ZZ=             -7.6930
   XY=              0.2425   XZ=              0.0000   YZ=              0.0000

 1\1\GINC-NODE31\SP\RB2PLYPD3-FC\def2QZVP\H2O1\BOITTIER\26-Aug-2020\0\\
 #p B2PLYPD3/Def2QZVP\\h2o\\0,1\O,0,-5.326605,-0.765524,0.914668\H,0,-4
 .368927,-0.797274,0.973776\H,0,-5.609308,0.229698,0.798231\\Version=ES
 64L-G09RevD.01\State=1-A'\HF=-76.3278281\MP2=-76.4191214\RMSD=6.328e-0
 9\PG=CS [SG(H2O1)]\\@

 STEINBACH'S GUIDELINES FOR SYSTEMS PROGRAMMING:

 Normal termination of Gaussian 09 at Wed Aug 26 08:40:15 2020.
