 Gaussian 09, Revision D.01,
 Gaussian 09:  ES64L-G09RevD.01 24-Apr-2013

 --------------------
 #p B2PLYPD3/Def2QZVP
 --------------------

 ---
 h2o
 ---
 Symbolic Z-matrix:
 Charge =  0 Multiplicity = 1

                         Standard orientation:
 ---------------------------------------------------------------------
 Center     Atomic      Atomic             Coordinates (Angstroms)
 Number     Number       Type             X           Y           Z
 ---------------------------------------------------------------------
      1          8           0        0.000000    0.111077    0.000000
      2          1           0        0.792124   -0.430235    0.000000
      3          1           0       -0.792124   -0.458381    0.000000
 ---------------------------------------------------------------------

 SCF Done:  E(RB2PLYPD3) =  -76.3340059355     A.U. after   10 cycles
 E2(B2PLYPD3) =    -0.9014569012D-01 E(B2PLYPD3) =    -0.76424151625650D+02

 The electronic state is 1-A'.
 Alpha  occ. eigenvalues --  -19.73039  -1.14909  -0.61805  -0.46353  -0.39758
 Alpha virt. eigenvalues --    0.04517   0.10036   0.27475   0.30452   0.31341
 Alpha virt. eigenvalues --    0.34625   0.43706   0.51307   0.55367   0.63725
 Alpha virt. eigenvalues --    0.65755   0.80428   0.93141   0.96308   1.04317

 Mulliken charges:
               1
     1  O   -0.462181
     2  H    0.227570
     3  H    0.234611
 Sum of Mulliken charges =   0.00000

 Dipole moment (field-independent basis, Debye):
    X=              0.0072    Y=             -1.8822    Z=              0.0000  Tot=              1.8822
 Quadrupole moment (field-independent basis, Debye-Ang):
   XX=             -4.0889   YY=             -6.4866   ZZ=             -7.6242
   XY=              0.0501   XZ=              0.0000   YZ=              0.0000

 1\1\GINC-NODE16\SP\RB2PLYPD3-FC\def2QZVP\H2O1\BOITTIER\26-Aug-2020\0\\
 #p B2PLYPD3/Def2QZVP\\h2o\\0,1\O,0,-5.326605,-0.760319,0.919672\H,0,-4
 .368927,-0.815228,0.90185\H,0,-5.609308,0.164381,0.790244\\Version=ES6
 4L-G09RevD.01\State=1-A'\HF=-76.3340059\MP2=-76.4241516\RMSD=3.860e-09
 \PG=CS [SG(H2O1)]\\@

 IT IS THE GODS' CUSTOM TO BRING LOW ALL THINGS OF SURPASSING GREATNESS.

 Normal termination of Gaussian 09 at Wed Aug 26 08:42:10 2020.
