 Gaussian 09, Revision D.01,
 Gaussian 09:  ES64L-G09RevD.01 24-Apr-2013

 --------------------
 #p B2PLYPD3/Def2QZVP
 --------------------

 ---
 h2o
 ---
 Symbolic Z-matrix:
 Charge =  0 Multiplicity = 1

                         Standard orientation:
 ---------------------------------------------------------------------
 Center     Atomic      Atomic             Coordinates (Angstroms)
 Number     Number       Type             X           Y           Z
 ---------------------------------------------------------------------
      1          8           0        0.000000    0.118089    0.000000
      2          1           0        0.774530   -0.446007    0.000000
      3          1           0       -0.774530   -0.498709    0.000000
 ---------------------------------------------------------------------

 SCF Done:  E(RB2PLYPD3) =  -76.3337204521     A.U. after   10 cycles
 E2(B2PLYPD3) =    -0.9048095238D-01 E(B2PLYPD3) =    -0.76424201404512D+02

 The electronic state is 1-A'.
 Alpha  occ. eigenvalues --  -19.73337  -1.14930  -0.60714  -0.47112  -0.39820
 Alpha virt. eigenvalues --    0.04362   0.10048   0.27593   0.30452   0.30679
 Alpha virt. eigenvalues --    0.35147   0.43572   0.50260   0.55944   0.62284
 Alpha virt. eigenvalues --    0.65986   0.80695   0.93203   0.96265   1.02772

 Mulliken charges:
               1
     1  O   -0.455802
     2  H    0.221368
     3  H    0.234434
 Sum of Mulliken charges =   0.00000

 Dipole moment (field-independent basis, Debye):
    X=              0.0160    Y=             -1.9600    Z=              0.0000  Tot=              1.9600
 Quadrupole moment (field-independent basis, Debye-Ang):
   XX=             -4.2726   YY=             -6.3540   ZZ=             -7.6297
   XY=              0.0883   XZ=              0.0000   YZ=              0.0000

 1\1\GINC-NODE20\SP\RB2PLYPD3-FC\def2QZVP\H2O1\BOITTIER\26-Aug-2020\0\\
 #p B2PLYPD3/Def2QZVP\\h2o\\0,1\O,0,-5.326605,-0.765323,0.918814\H,0,-4
 .368927,-0.741976,0.939018\H,0,-5.609308,0.171184,0.765942\\Version=ES
 64L-G09RevD.01\State=1-A'\HF=-76.3337205\MP2=-76.4242014\RMSD=4.404e-0
 9\PG=CS [SG(H2O1)]\\@

      TO SUSPECT YOUR OWN MORTALITY IS TO KNOW THE BEGINNING OF TERROR.

 Normal termination of Gaussian 09 at Wed Aug 26 09:34:53 2020.
