 Gaussian 09, Revision D.01,
 Gaussian 09:  ES64L-G09RevD.01 24-Apr-2013

 --------------------
 #p B2PLYPD3/Def2QZVP
 --------------------

 ---
 h2o
 ---
 Symbolic Z-matrix:
 Charge =  0 Multiplicity = 1

                         Standard orientation:
 ---------------------------------------------------------------------
 Center     Atomic      Atomic             Coordinates (Angstroms)
 Number     Number       Type             X           Y           Z
 ---------------------------------------------------------------------
      1          8           0        0.000000    0.114760    0.000000
      2          1           0        0.760726   -0.467817    0.000000
      3          1           0       -0.760726   -0.450267    0.000000
 ---------------------------------------------------------------------

 SCF Done:  E(RB2PLYPD3) =  -76.3352236700     A.U. after   10 cycles
 E2(B2PLYPD3) =    -0.8976730453D-01 E(B2PLYPD3) =    -0.76424990974516D+02

 The electronic state is 1-A'.
 Alpha  occ. eigenvalues --  -19.72984  -1.15864  -0.61786  -0.47294  -0.39985
 Alpha virt. eigenvalues --    0.04624   0.10240   0.27455   0.30401   0.31223
 Alpha virt. eigenvalues --    0.35947   0.44136   0.50558   0.56136   0.62620
 Alpha virt. eigenvalues --    0.65457   0.81224   0.93874   0.95844   1.04551

 Mulliken charges:
               1
     1  O   -0.441175
     2  H    0.223042
     3  H    0.218133
 Sum of Mulliken charges =   0.00000

 Dipole moment (field-independent basis, Debye):
    X=             -0.0052    Y=             -1.9368    Z=              0.0000  Tot=              1.9368
 Quadrupole moment (field-independent basis, Debye-Ang):
   XX=             -4.2948   YY=             -6.3602   ZZ=             -7.5826
   XY=             -0.0293   XZ=              0.0000   YZ=              0.0000

 1\1\GINC-NODE18\SP\RB2PLYPD3-FC\def2QZVP\H2O1\BOITTIER\26-Aug-2020\0\\
 #p B2PLYPD3/Def2QZVP\\h2o\\0,1\O,0,-5.326605,-0.763172,0.917722\H,0,-4
 .368927,-0.73708,0.934213\H,0,-5.609308,0.131869,0.787566\\Version=ES6
 4L-G09RevD.01\State=1-A'\HF=-76.3352237\MP2=-76.424991\RMSD=4.078e-09\
 PG=CS [SG(H2O1)]\\@

 THE BEST WAY TO CONVINCE A FOOL THAT HE IS WRONG

 Normal termination of Gaussian 09 at Wed Aug 26 10:06:22 2020.
