 Gaussian 09, Revision D.01,
 Gaussian 09:  ES64L-G09RevD.01 24-Apr-2013

 --------------------
 #p B2PLYPD3/Def2QZVP
 --------------------

 ---
 h2o
 ---
 Symbolic Z-matrix:
 Charge =  0 Multiplicity = 1

                         Standard orientation:
 ---------------------------------------------------------------------
 Center     Atomic      Atomic             Coordinates (Angstroms)
 Number     Number       Type             X           Y           Z
 ---------------------------------------------------------------------
      1          8           0        0.000000    0.123036    0.000000
      2          1           0        0.759302   -0.467967    0.000000
      3          1           0       -0.759302   -0.516319    0.000000
 ---------------------------------------------------------------------

 SCF Done:  E(RB2PLYPD3) =  -76.3332874705     A.U. after   10 cycles
 E2(B2PLYPD3) =    -0.9070300348D-01 E(B2PLYPD3) =    -0.76423990473982D+02

 The electronic state is 1-A'.
 Alpha  occ. eigenvalues --  -19.73531  -1.15017  -0.59953  -0.47713  -0.39879
 Alpha virt. eigenvalues --    0.04263   0.10071   0.27680   0.30289   0.30446
 Alpha virt. eigenvalues --    0.35519   0.43502   0.49621   0.56415   0.61266
 Alpha virt. eigenvalues --    0.66139   0.80832   0.93480   0.96279   1.01972

 Mulliken charges:
               1
     1  O   -0.450508
     2  H    0.219260
     3  H    0.231248
 Sum of Mulliken charges =   0.00000

 Dipole moment (field-independent basis, Debye):
    X=              0.0164    Y=             -2.0147    Z=              0.0000  Tot=              2.0148
 Quadrupole moment (field-independent basis, Debye-Ang):
   XX=             -4.4164   YY=             -6.2535   ZZ=             -7.6307
   XY=              0.0770   XZ=              0.0000   YZ=              0.0000

 1\1\GINC-NODE20\SP\RB2PLYPD3-FC\def2QZVP\H2O1\BOITTIER\26-Aug-2020\0\\
 #p B2PLYPD3/Def2QZVP\\h2o\\0,1\O,0,-5.326605,-0.766154,0.929741\H,0,-4
 .368927,-0.707799,0.857136\H,0,-5.609308,0.150312,0.673843\\Version=ES
 64L-G09RevD.01\State=1-A'\HF=-76.3332875\MP2=-76.4239905\RMSD=4.507e-0
 9\PG=CS [SG(H2O1)]\\@

     "IF I COULD JUST GET IT ON PAPER"

 Normal termination of Gaussian 09 at Wed Aug 26 09:24:08 2020.
