 Gaussian 09, Revision D.01,
 Gaussian 09:  ES64L-G09RevD.01 24-Apr-2013

 --------------------
 #p B2PLYPD3/Def2QZVP
 --------------------

 ---
 h2o
 ---
 Symbolic Z-matrix:
 Charge =  0 Multiplicity = 1

                         Standard orientation:
 ---------------------------------------------------------------------
 Center     Atomic      Atomic             Coordinates (Angstroms)
 Number     Number       Type             X           Y           Z
 ---------------------------------------------------------------------
      1          8           0        0.000000    0.118538    0.000000
      2          1           0        0.780252   -0.437720    0.000000
      3          1           0       -0.780252   -0.510585    0.000000
 ---------------------------------------------------------------------

 SCF Done:  E(RB2PLYPD3) =  -76.3327169907     A.U. after   10 cycles
 E2(B2PLYPD3) =    -0.9067787676D-01 E(B2PLYPD3) =    -0.76423394867414D+02

 The electronic state is 1-A'.
 Alpha  occ. eigenvalues --  -19.73416  -1.14658  -0.60484  -0.46984  -0.39765
 Alpha virt. eigenvalues --    0.04281   0.09986   0.27620   0.30467   0.30505
 Alpha virt. eigenvalues --    0.34891   0.43432   0.50249   0.55822   0.62307
 Alpha virt. eigenvalues --    0.66118   0.80502   0.92903   0.96390   1.02315

 Mulliken charges:
               1
     1  O   -0.460137
     2  H    0.221357
     3  H    0.238780
 Sum of Mulliken charges =   0.00000

 Dipole moment (field-independent basis, Debye):
    X=              0.0219    Y=             -1.9604    Z=              0.0000  Tot=              1.9606
 Quadrupole moment (field-independent basis, Debye-Ang):
   XX=             -4.2503   YY=             -6.3614   ZZ=             -7.6437
   XY=              0.1228   XZ=              0.0000   YZ=              0.0000

 1\1\GINC-NODE27\SP\RB2PLYPD3-FC\def2QZVP\H2O1\BOITTIER\26-Aug-2020\0\\
 #p B2PLYPD3/Def2QZVP\\h2o\\0,1\O,0,-5.326605,-0.765708,0.918221\H,0,-4
 .368927,-0.748767,0.946197\H,0,-5.609308,0.184143,0.768385\\Version=ES
 64L-G09RevD.01\State=1-A'\HF=-76.332717\MP2=-76.4233949\RMSD=4.743e-09
 \PG=CS [SG(H2O1)]\\@

 I WANT TO KNOW HOW GOD CREATED THE WORLD.  I AM NOT INTERESTED IN

 Normal termination of Gaussian 09 at Wed Aug 26 12:31:32 2020.
