 Gaussian 09, Revision D.01,
 Gaussian 09:  ES64L-G09RevD.01 24-Apr-2013

 --------------------
 #p B2PLYPD3/Def2QZVP
 --------------------

 ---
 h2o
 ---
 Symbolic Z-matrix:
 Charge =  0 Multiplicity = 1

                         Standard orientation:
 ---------------------------------------------------------------------
 Center     Atomic      Atomic             Coordinates (Angstroms)
 Number     Number       Type             X           Y           Z
 ---------------------------------------------------------------------
      1          8           0        0.000000    0.113793    0.000000
      2          1           0        0.738923   -0.497975    0.000000
      3          1           0       -0.738923   -0.412370    0.000000
 ---------------------------------------------------------------------

 SCF Done:  E(RB2PLYPD3) =  -76.3330734416     A.U. after   10 cycles
 E2(B2PLYPD3) =    -0.8916338006D-01 E(B2PLYPD3) =    -0.76422236821690D+02

 The electronic state is 1-A'.
 Alpha  occ. eigenvalues --  -19.72689  -1.16969  -0.62523  -0.47746  -0.40188
 Alpha virt. eigenvalues --    0.04785   0.10438   0.27323   0.30345   0.31361
 Alpha virt. eigenvalues --    0.37009   0.44809   0.50535   0.56500   0.62479
 Alpha virt. eigenvalues --    0.64960   0.81742   0.94273   0.95482   1.05246

 Mulliken charges:
               1
     1  O   -0.419569
     2  H    0.223424
     3  H    0.196145
 Sum of Mulliken charges =   0.00000

 Dipole moment (field-independent basis, Debye):
    X=             -0.0265    Y=             -1.9394    Z=              0.0000  Tot=              1.9396
 Quadrupole moment (field-independent basis, Debye-Ang):
   XX=             -4.3856   YY=             -6.3089   ZZ=             -7.5344
   XY=             -0.1388   XZ=              0.0000   YZ=              0.0000

 1\1\GINC-NODE05\SP\RB2PLYPD3-FC\def2QZVP\H2O1\BOITTIER\26-Aug-2020\0\\
 #p B2PLYPD3/Def2QZVP\\h2o\\0,1\O,0,-5.326605,-0.761922,0.921287\H,0,-4
 .368927,-0.711215,0.897854\H,0,-5.609308,0.086012,0.766557\\Version=ES
 64L-G09RevD.01\State=1-A'\HF=-76.3330734\MP2=-76.4222368\RMSD=5.739e-0
 9\PG=CS [SG(H2O1)]\\@

 I FIND THAT THE THREE TRULY GREAT TIMES FOR THINKING THOUGHTS

 Normal termination of Gaussian 09 at Wed Aug 26 09:31:31 2020.
