 Gaussian 09, Revision D.01,
 Gaussian 09:  ES64L-G09RevD.01 24-Apr-2013

 --------------------
 #p B2PLYPD3/Def2QZVP
 --------------------

 ---
 h2o
 ---
 Symbolic Z-matrix:
 Charge =  0 Multiplicity = 1

                         Standard orientation:
 ---------------------------------------------------------------------
 Center     Atomic      Atomic             Coordinates (Angstroms)
 Number     Number       Type             X           Y           Z
 ---------------------------------------------------------------------
      1          8           0        0.000000    0.115692    0.000000
      2          1           0        0.749525   -0.493636    0.000000
      3          1           0       -0.749525   -0.431896    0.000000
 ---------------------------------------------------------------------

 SCF Done:  E(RB2PLYPD3) =  -76.3344995846     A.U. after   10 cycles
 E2(B2PLYPD3) =    -0.8961362408D-01 E(B2PLYPD3) =    -0.76424113208666D+02

 The electronic state is 1-A'.
 Alpha  occ. eigenvalues --  -19.72933  -1.16263  -0.61832  -0.47598  -0.40067
 Alpha virt. eigenvalues --    0.04649   0.10318   0.27428   0.30382   0.31147
 Alpha virt. eigenvalues --    0.36430   0.44352   0.50379   0.56375   0.62311
 Alpha virt. eigenvalues --    0.65320   0.81432   0.94044   0.95726   1.04462

 Mulliken charges:
               1
     1  O   -0.432765
     2  H    0.225419
     3  H    0.207346
 Sum of Mulliken charges =   0.00000

 Dipole moment (field-independent basis, Debye):
    X=             -0.0192    Y=             -1.9519    Z=              0.0000  Tot=              1.9520
 Quadrupole moment (field-independent basis, Debye-Ang):
   XX=             -4.3613   YY=             -6.3171   ZZ=             -7.5666
   XY=             -0.1008   XZ=              0.0000   YZ=              0.0000

 1\1\GINC-NODE35\SP\RB2PLYPD3-FC\def2QZVP\H2O1\BOITTIER\26-Aug-2020\0\\
 #p B2PLYPD3/Def2QZVP\\h2o\\0,1\O,0,-5.326605,-0.7602,0.931525\H,0,-4.3
 68927,-0.744791,0.806289\H,0,-5.609308,0.092041,0.696144\\Version=ES64
 L-G09RevD.01\State=1-A'\HF=-76.3344996\MP2=-76.4241132\RMSD=4.944e-09\
 PG=CS [SG(H2O1)]\\@

 WORK FAITHFULLY FOR EIGHT HOURS A DAY AND DON'T WORRY.

 Normal termination of Gaussian 09 at Wed Aug 26 08:25:59 2020.
