 Gaussian 09, Revision D.01,
 Gaussian 09:  ES64L-G09RevD.01 24-Apr-2013

 --------------------
 #p B2PLYPD3/Def2QZVP
 --------------------

 ---
 h2o
 ---
 Symbolic Z-matrix:
 Charge =  0 Multiplicity = 1

                         Standard orientation:
 ---------------------------------------------------------------------
 Center     Atomic      Atomic             Coordinates (Angstroms)
 Number     Number       Type             X           Y           Z
 ---------------------------------------------------------------------
      1          8           0        0.000000    0.117108    0.000000
      2          1           0        0.754494   -0.475858    0.000000
      3          1           0       -0.754494   -0.461009    0.000000
 ---------------------------------------------------------------------

 SCF Done:  E(RB2PLYPD3) =  -76.3351720444     A.U. after   10 cycles
 E2(B2PLYPD3) =    -0.8988305880D-01 E(B2PLYPD3) =    -0.76425055103167D+02

 The electronic state is 1-A'.
 Alpha  occ. eigenvalues --  -19.73084  -1.15873  -0.61392  -0.47565  -0.40004
 Alpha virt. eigenvalues --    0.04571   0.10248   0.27495   0.30402   0.31032
 Alpha virt. eigenvalues --    0.36115   0.44081   0.50241   0.56347   0.62132
 Alpha virt. eigenvalues --    0.65546   0.81263   0.93967   0.95852   1.04063

 Mulliken charges:
               1
     1  O   -0.439583
     2  H    0.221864
     3  H    0.217719
 Sum of Mulliken charges =   0.00000

 Dipole moment (field-independent basis, Debye):
    X=             -0.0047    Y=             -1.9628    Z=              0.0000  Tot=              1.9629
 Quadrupole moment (field-independent basis, Debye-Ang):
   XX=             -4.3571   YY=             -6.3156   ZZ=             -7.5846
   XY=             -0.0242   XZ=              0.0000   YZ=              0.0000

 1\1\GINC-NODE17\SP\RB2PLYPD3-FC\def2QZVP\H2O1\BOITTIER\26-Aug-2020\0\\
 #p B2PLYPD3/Def2QZVP\\h2o\\0,1\O,0,-5.326605,-0.763429,0.924918\H,0,-4
 .368927,-0.723709,0.878587\H,0,-5.609308,0.122623,0.728773\\Version=ES
 64L-G09RevD.01\State=1-A'\HF=-76.335172\MP2=-76.4250551\RMSD=4.176e-09
 \PG=CS [SG(H2O1)]\\@

 HIGGLEDY-PIGGLEDY

 Normal termination of Gaussian 09 at Wed Aug 26 09:54:02 2020.
