 Gaussian 09, Revision D.01,
 Gaussian 09:  ES64L-G09RevD.01 24-Apr-2013

 --------------------
 #p B2PLYPD3/Def2QZVP
 --------------------

 ---
 h2o
 ---
 Symbolic Z-matrix:
 Charge =  0 Multiplicity = 1

                         Standard orientation:
 ---------------------------------------------------------------------
 Center     Atomic      Atomic             Coordinates (Angstroms)
 Number     Number       Type             X           Y           Z
 ---------------------------------------------------------------------
      1          8           0        0.000000    0.120077    0.000000
      2          1           0        0.738987   -0.496436    0.000000
      3          1           0       -0.738987   -0.464176    0.000000
 ---------------------------------------------------------------------

 SCF Done:  E(RB2PLYPD3) =  -76.3347065708     A.U. after   10 cycles
 E2(B2PLYPD3) =    -0.8987124589D-01 E(B2PLYPD3) =    -0.76424577816733D+02

 The electronic state is 1-A'.
 Alpha  occ. eigenvalues --  -19.73137  -1.16208  -0.61037  -0.48088  -0.40091
 Alpha virt. eigenvalues --    0.04544   0.10322   0.27515   0.30387   0.30840
 Alpha virt. eigenvalues --    0.36646   0.44186   0.49842   0.56765   0.61420
 Alpha virt. eigenvalues --    0.65520   0.81427   0.94315   0.95760   1.03755

 Mulliken charges:
               1
     1  O   -0.431811
     2  H    0.220568
     3  H    0.211243
 Sum of Mulliken charges =   0.00000

 Dipole moment (field-independent basis, Debye):
    X=             -0.0110    Y=             -1.9996    Z=              0.0000  Tot=              1.9996
 Quadrupole moment (field-independent basis, Debye-Ang):
   XX=             -4.4721   YY=             -6.2385   ZZ=             -7.5735
   XY=             -0.0505   XZ=              0.0000   YZ=              0.0000

 1\1\GINC-NODE30\SP\RB2PLYPD3-FC\def2QZVP\H2O1\BOITTIER\26-Aug-2020\0\\
 #p B2PLYPD3/Def2QZVP\\h2o\\0,1\O,0,-5.326605,-0.765515,0.924819\H,0,-4
 .368927,-0.676324,0.891845\H,0,-5.609308,0.10861,0.716405\\Version=ES6
 4L-G09RevD.01\State=1-A'\HF=-76.3347066\MP2=-76.4245778\RMSD=4.647e-09
 \PG=CS [SG(H2O1)]\\@

 "A LITTLE BIT GOES A LONG WAY"

 Normal termination of Gaussian 09 at Wed Aug 26 12:16:52 2020.
