 Gaussian 09, Revision D.01,
 Gaussian 09:  ES64L-G09RevD.01 24-Apr-2013

 --------------------
 #p B2PLYPD3/Def2QZVP
 --------------------

 ---
 h2o
 ---
 Symbolic Z-matrix:
 Charge =  0 Multiplicity = 1

                         Standard orientation:
 ---------------------------------------------------------------------
 Center     Atomic      Atomic             Coordinates (Angstroms)
 Number     Number       Type             X           Y           Z
 ---------------------------------------------------------------------
      1          8           0        0.000000    0.121502    0.000000
      2          1           0        0.735933   -0.501301    0.000000
      3          1           0       -0.735933   -0.470714    0.000000
 ---------------------------------------------------------------------

 SCF Done:  E(RB2PLYPD3) =  -76.3345204213     A.U. after   10 cycles
 E2(B2PLYPD3) =    -0.8997315847D-01 E(B2PLYPD3) =    -0.76424493579743D+02

 The electronic state is 1-A'.
 Alpha  occ. eigenvalues --  -19.73208  -1.16171  -0.60765  -0.48232  -0.40094
 Alpha virt. eigenvalues --    0.04502   0.10317   0.27545   0.30389   0.30721
 Alpha virt. eigenvalues --    0.36678   0.44128   0.49689   0.56877   0.61149
 Alpha virt. eigenvalues --    0.65588   0.81403   0.94376   0.95795   1.03454

 Mulliken charges:
               1
     1  O   -0.431739
     2  H    0.220259
     3  H    0.211480
 Sum of Mulliken charges =   0.00000

 Dipole moment (field-independent basis, Debye):
    X=             -0.0107    Y=             -2.0145    Z=              0.0000  Tot=              2.0145
 Quadrupole moment (field-independent basis, Debye-Ang):
   XX=             -4.5064   YY=             -6.2132   ZZ=             -7.5769
   XY=             -0.0473   XZ=              0.0000   YZ=              0.0000

 1\1\GINC-NODE37\SP\RB2PLYPD3-FC\def2QZVP\H2O1\BOITTIER\26-Aug-2020\0\\
 #p B2PLYPD3/Def2QZVP\\h2o\\0,1\O,0,-5.326605,-0.765925,0.926974\H,0,-4
 .368927,-0.66665,0.87719\H,0,-5.609308,0.105497,0.696713\\Version=ES64
 L-G09RevD.01\State=1-A'\HF=-76.3345204\MP2=-76.4244936\RMSD=4.705e-09\
 PG=CS [SG(H2O1)]\\@

 WHEN A MATHEMATICIAN ENGAGED IN INVESTIGATING

 Normal termination of Gaussian 09 at Wed Aug 26 08:40:31 2020.
