 Gaussian 09, Revision D.01,
 Gaussian 09:  ES64L-G09RevD.01 24-Apr-2013

 --------------------
 #p B2PLYPD3/Def2QZVP
 --------------------

 ---
 h2o
 ---
 Symbolic Z-matrix:
 Charge =  0 Multiplicity = 1

                         Standard orientation:
 ---------------------------------------------------------------------
 Center     Atomic      Atomic             Coordinates (Angstroms)
 Number     Number       Type             X           Y           Z
 ---------------------------------------------------------------------
      1          8           0        0.000000    0.118202    0.000000
      2          1           0        0.769207   -0.454752    0.000000
      3          1           0       -0.769207   -0.490862    0.000000
 ---------------------------------------------------------------------

 SCF Done:  E(RB2PLYPD3) =  -76.3342928236     A.U. after   10 cycles
 E2(B2PLYPD3) =    -0.9036177086D-01 E(B2PLYPD3) =    -0.76424654594480D+02

 The electronic state is 1-A'.
 Alpha  occ. eigenvalues --  -19.73297  -1.15134  -0.60812  -0.47253  -0.39863
 Alpha virt. eigenvalues --    0.04407   0.10094   0.27580   0.30441   0.30755
 Alpha virt. eigenvalues --    0.35373   0.43668   0.50208   0.56068   0.62179
 Alpha virt. eigenvalues --    0.65905   0.80840   0.93420   0.96173   1.03029

 Mulliken charges:
               1
     1  O   -0.452173
     2  H    0.221494
     3  H    0.230679
 Sum of Mulliken charges =   0.00000

 Dipole moment (field-independent basis, Debye):
    X=              0.0111    Y=             -1.9643    Z=              0.0000  Tot=              1.9644
 Quadrupole moment (field-independent basis, Debye-Ang):
   XX=             -4.3005   YY=             -6.3399   ZZ=             -7.6199
   XY=              0.0600   XZ=              0.0000   YZ=              0.0000

 1\1\GINC-NODE09\SP\RB2PLYPD3-FC\def2QZVP\H2O1\BOITTIER\26-Aug-2020\0\\
 #p B2PLYPD3/Def2QZVP\\h2o\\0,1\O,0,-5.326605,-0.765625,0.916909\H,0,-4
 .368927,-0.729692,0.955874\H,0,-5.609308,0.163741,0.77908\\Version=ES6
 4L-G09RevD.01\State=1-A'\HF=-76.3342928\MP2=-76.4246546\RMSD=4.194e-09
 \PG=CS [SG(H2O1)]\\@

 There ain't no surer way to find out whether you

 Normal termination of Gaussian 09 at Wed Aug 26 11:55:48 2020.
