 Gaussian 09, Revision D.01,
 Gaussian 09:  ES64L-G09RevD.01 24-Apr-2013

 --------------------
 #p B2PLYPD3/Def2QZVP
 --------------------

 ---
 h2o
 ---
 Symbolic Z-matrix:
 Charge =  0 Multiplicity = 1

                         Standard orientation:
 ---------------------------------------------------------------------
 Center     Atomic      Atomic             Coordinates (Angstroms)
 Number     Number       Type             X           Y           Z
 ---------------------------------------------------------------------
      1          8           0        0.000000    0.119325    0.000000
      2          1           0        0.738571   -0.497047    0.000000
      3          1           0       -0.738571   -0.457554    0.000000
 ---------------------------------------------------------------------

 SCF Done:  E(RB2PLYPD3) =  -76.3346510429     A.U. after   10 cycles
 E2(B2PLYPD3) =    -0.8977355291D-01 E(B2PLYPD3) =    -0.76424424595808D+02

 The electronic state is 1-A'.
 Alpha  occ. eigenvalues --  -19.73080  -1.16317  -0.61222  -0.48060  -0.40106
 Alpha virt. eigenvalues --    0.04577   0.10341   0.27490   0.30381   0.30912
 Alpha virt. eigenvalues --    0.36717   0.44269   0.49917   0.56745   0.61537
 Alpha virt. eigenvalues --    0.65445   0.81475   0.94329   0.95713   1.03981

 Mulliken charges:
               1
     1  O   -0.430182
     2  H    0.220880
     3  H    0.209302
 Sum of Mulliken charges =   0.00000

 Dipole moment (field-independent basis, Debye):
    X=             -0.0133    Y=             -1.9927    Z=              0.0000  Tot=              1.9928
 Quadrupole moment (field-independent basis, Debye-Ang):
   XX=             -4.4635   YY=             -6.2462   ZZ=             -7.5679
   XY=             -0.0621   XZ=              0.0000   YZ=              0.0000

 1\1\GINC-NODE38\SP\RB2PLYPD3-FC\def2QZVP\H2O1\BOITTIER\26-Aug-2020\0\\
 #p B2PLYPD3/Def2QZVP\\h2o\\0,1\O,0,-5.326605,-0.765172,0.924087\H,0,-4
 .368927,-0.678914,0.895541\H,0,-5.609308,0.105716,0.724312\\Version=ES
 64L-G09RevD.01\State=1-A'\HF=-76.334651\MP2=-76.4244246\RMSD=4.744e-09
 \PG=CS [SG(H2O1)]\\@

 I CLAIM NOT TO HAVE CONTROLLED EVENTS,

 Normal termination of Gaussian 09 at Wed Aug 26 11:42:36 2020.
