 Gaussian 09, Revision D.01,
 Gaussian 09:  ES64L-G09RevD.01 24-Apr-2013

 --------------------
 #p B2PLYPD3/Def2QZVP
 --------------------

 ---
 h2o
 ---
 Symbolic Z-matrix:
 Charge =  0 Multiplicity = 1

                         Standard orientation:
 ---------------------------------------------------------------------
 Center     Atomic      Atomic             Coordinates (Angstroms)
 Number     Number       Type             X           Y           Z
 ---------------------------------------------------------------------
      1          8           0        0.000000    0.115097    0.000000
      2          1           0        0.727891   -0.513917    0.000000
      3          1           0       -0.727891   -0.406859    0.000000
 ---------------------------------------------------------------------

 SCF Done:  E(RB2PLYPD3) =  -76.3314819645     A.U. after   10 cycles
 E2(B2PLYPD3) =    -0.8906433095D-01 E(B2PLYPD3) =    -0.76420546295415D+02

 The electronic state is 1-A'.
 Alpha  occ. eigenvalues --  -19.72661  -1.17340  -0.62457  -0.48067  -0.40263
 Alpha virt. eigenvalues --    0.04781   0.10505   0.27300   0.30330   0.31251
 Alpha virt. eigenvalues --    0.37423   0.45010   0.50327   0.56743   0.62111
 Alpha virt. eigenvalues --    0.64861   0.81866   0.94358   0.95434   1.05104

 Mulliken charges:
               1
     1  O   -0.411325
     2  H    0.223418
     3  H    0.187907
 Sum of Mulliken charges =   0.00000

 Dipole moment (field-independent basis, Debye):
    X=             -0.0347    Y=             -1.9578    Z=              0.0000  Tot=              1.9581
 Quadrupole moment (field-independent basis, Debye-Ang):
   XX=             -4.4544   YY=             -6.2614   ZZ=             -7.5214
   XY=             -0.1693   XZ=              0.0000   YZ=              0.0000

 1\1\GINC-NODE35\SP\RB2PLYPD3-FC\def2QZVP\H2O1\BOITTIER\26-Aug-2020\0\\
 #p B2PLYPD3/Def2QZVP\\h2o\\0,1\O,0,-5.326605,-0.761923,0.925176\H,0,-4
 .368927,-0.691725,0.866797\H,0,-5.609308,0.066545,0.735484\\Version=ES
 64L-G09RevD.01\State=1-A'\HF=-76.331482\MP2=-76.4205463\RMSD=6.271e-09
 \PG=CS [SG(H2O1)]\\@

 WE MIGHT AS WELL ATTEMPT TO INTRODUCE A NEW PLANET

 Normal termination of Gaussian 09 at Wed Aug 26 10:17:49 2020.
