 Gaussian 09, Revision D.01,
 Gaussian 09:  ES64L-G09RevD.01 24-Apr-2013

 --------------------
 #p B2PLYPD3/Def2QZVP
 --------------------

 ---
 h2o
 ---
 Symbolic Z-matrix:
 Charge =  0 Multiplicity = 1

                         Standard orientation:
 ---------------------------------------------------------------------
 Center     Atomic      Atomic             Coordinates (Angstroms)
 Number     Number       Type             X           Y           Z
 ---------------------------------------------------------------------
      1          8           0        0.000000    0.114811    0.000000
      2          1           0        0.759299   -0.469702    0.000000
      3          1           0       -0.759299   -0.448787    0.000000
 ---------------------------------------------------------------------

 SCF Done:  E(RB2PLYPD3) =  -76.3352107279     A.U. after   10 cycles
 E2(B2PLYPD3) =    -0.8973909888D-01 E(B2PLYPD3) =    -0.76424949826764D+02

 The electronic state is 1-A'.
 Alpha  occ. eigenvalues --  -19.72973  -1.15921  -0.61808  -0.47331  -0.39996
 Alpha virt. eigenvalues --    0.04632   0.10251   0.27451   0.30398   0.31226
 Alpha virt. eigenvalues --    0.36012   0.44167   0.50542   0.56167   0.62590
 Alpha virt. eigenvalues --    0.65435   0.81257   0.93910   0.95821   1.04586

 Mulliken charges:
               1
     1  O   -0.440057
     2  H    0.222974
     3  H    0.217083
 Sum of Mulliken charges =   0.00000

 Dipole moment (field-independent basis, Debye):
    X=             -0.0063    Y=             -1.9381    Z=              0.0000  Tot=              1.9381
 Quadrupole moment (field-independent basis, Debye-Ang):
   XX=             -4.3024   YY=             -6.3558   ZZ=             -7.5801
   XY=             -0.0348   XZ=              0.0000   YZ=              0.0000

 1\1\GINC-NODE16\SP\RB2PLYPD3-FC\def2QZVP\H2O1\BOITTIER\26-Aug-2020\0\\
 #p B2PLYPD3/Def2QZVP\\h2o\\0,1\O,0,-5.326605,-0.763183,0.91791\H,0,-4.
 368927,-0.734511,0.932765\H,0,-5.609308,0.129482,0.785978\\Version=ES6
 4L-G09RevD.01\State=1-A'\HF=-76.3352107\MP2=-76.4249498\RMSD=4.131e-09
 \PG=CS [SG(H2O1)]\\@

 ... UNTIL SCIENCE IS MIXED WITH EMOTION AND APPEALS TO THE HEART AND

 Normal termination of Gaussian 09 at Wed Aug 26 09:57:49 2020.
