 Gaussian 09, Revision D.01,
 Gaussian 09:  ES64L-G09RevD.01 24-Apr-2013

 --------------------
 #p B2PLYPD3/Def2QZVP
 --------------------

 ---
 h2o
 ---
 Symbolic Z-matrix:
 Charge =  0 Multiplicity = 1

                         Standard orientation:
 ---------------------------------------------------------------------
 Center     Atomic      Atomic             Coordinates (Angstroms)
 Number     Number       Type             X           Y           Z
 ---------------------------------------------------------------------
      1          8           0        0.000000    0.117148    0.000000
      2          1           0        0.750227   -0.481562    0.000000
      3          1           0       -0.750227   -0.455626    0.000000
 ---------------------------------------------------------------------

 SCF Done:  E(RB2PLYPD3) =  -76.3350967480     A.U. after   10 cycles
 E2(B2PLYPD3) =    -0.8978829811D-01 E(B2PLYPD3) =    -0.76424885046128D+02

 The electronic state is 1-A'.
 Alpha  occ. eigenvalues --  -19.73044  -1.16056  -0.61479  -0.47669  -0.40040
 Alpha virt. eigenvalues --    0.04597   0.10284   0.27478   0.30393   0.31055
 Alpha virt. eigenvalues --    0.36314   0.44180   0.50211   0.56434   0.62063
 Alpha virt. eigenvalues --    0.65471   0.81356   0.94079   0.95782   1.04207

 Mulliken charges:
               1
     1  O   -0.436168
     2  H    0.221783
     3  H    0.214385
 Sum of Mulliken charges =   0.00000

 Dipole moment (field-independent basis, Debye):
    X=             -0.0082    Y=             -1.9657    Z=              0.0000  Tot=              1.9657
 Quadrupole moment (field-independent basis, Debye-Ang):
   XX=             -4.3781   YY=             -6.3036   ZZ=             -7.5766
   XY=             -0.0420   XZ=              0.0000   YZ=              0.0000

 1\1\GINC-NODE12\SP\RB2PLYPD3-FC\def2QZVP\H2O1\BOITTIER\26-Aug-2020\0\\
 #p B2PLYPD3/Def2QZVP\\h2o\\0,1\O,0,-5.326605,-0.763548,0.924555\H,0,-4
 .368927,-0.715108,0.882111\H,0,-5.609308,0.11592,0.730839\\Version=ES6
 4L-G09RevD.01\State=1-A'\HF=-76.3350967\MP2=-76.424885\RMSD=4.339e-09\
 PG=CS [SG(H2O1)]\\@

 TWO ROADS DIVERGED IN A WOOD, AND I--

 Normal termination of Gaussian 09 at Wed Aug 26 09:04:03 2020.
