 Gaussian 09, Revision D.01,
 Gaussian 09:  ES64L-G09RevD.01 24-Apr-2013

 --------------------
 #p B2PLYPD3/Def2QZVP
 --------------------

 ---
 h2o
 ---
 Symbolic Z-matrix:
 Charge =  0 Multiplicity = 1

                         Standard orientation:
 ---------------------------------------------------------------------
 Center     Atomic      Atomic             Coordinates (Angstroms)
 Number     Number       Type             X           Y           Z
 ---------------------------------------------------------------------
      1          8           0        0.000000    0.116031    0.000000
      2          1           0        0.765031   -0.461779    0.000000
      3          1           0       -0.765031   -0.466468    0.000000
 ---------------------------------------------------------------------

 SCF Done:  E(RB2PLYPD3) =  -76.3350885687     A.U. after   10 cycles
 E2(B2PLYPD3) =    -0.9001145947D-01 E(B2PLYPD3) =    -0.76425100028154D+02

 The electronic state is 1-A'.
 Alpha  occ. eigenvalues --  -19.73112  -1.15539  -0.61395  -0.47255  -0.39929
 Alpha virt. eigenvalues --    0.04540   0.10178   0.27507   0.30419   0.31059
 Alpha virt. eigenvalues --    0.35677   0.43928   0.50436   0.56093   0.62470
 Alpha virt. eigenvalues --    0.65646   0.81057   0.93698   0.95984   1.03971

 Mulliken charges:
               1
     1  O   -0.446445
     2  H    0.222593
     3  H    0.223852
 Sum of Mulliken charges =   0.00000

 Dipole moment (field-independent basis, Debye):
    X=              0.0014    Y=             -1.9465    Z=              0.0000  Tot=              1.9465
 Quadrupole moment (field-independent basis, Debye-Ang):
   XX=             -4.2911   YY=             -6.3564   ZZ=             -7.5986
   XY=              0.0078   XZ=              0.0000   YZ=              0.0000

 1\1\GINC-NODE23\SP\RB2PLYPD3-FC\def2QZVP\H2O1\BOITTIER\26-Aug-2020\0\\
 #p B2PLYPD3/Def2QZVP\\h2o\\0,1\O,0,-5.326605,-0.762896,0.924054\H,0,-4
 .368927,-0.746976,0.882379\H,0,-5.609308,0.137357,0.739117\\Version=ES
 64L-G09RevD.01\State=1-A'\HF=-76.3350886\MP2=-76.4251\RMSD=3.960e-09\P
 G=CS [SG(H2O1)]\\@

 THE HURRIEDER I GO, THE BEHINDER I GET.

 Normal termination of Gaussian 09 at Wed Aug 26 11:53:39 2020.
