 Gaussian 09, Revision D.01,
 Gaussian 09:  ES64L-G09RevD.01 24-Apr-2013

 --------------------
 #p B2PLYPD3/Def2QZVP
 --------------------

 ---
 h2o
 ---
 Symbolic Z-matrix:
 Charge =  0 Multiplicity = 1

                         Standard orientation:
 ---------------------------------------------------------------------
 Center     Atomic      Atomic             Coordinates (Angstroms)
 Number     Number       Type             X           Y           Z
 ---------------------------------------------------------------------
      1          8           0        0.000000    0.117980    0.000000
      2          1           0        0.765250   -0.459222    0.000000
      3          1           0       -0.765250   -0.484616    0.000000
 ---------------------------------------------------------------------

 SCF Done:  E(RB2PLYPD3) =  -76.3346651763     A.U. after   10 cycles
 E2(B2PLYPD3) =    -0.9023966506D-01 E(B2PLYPD3) =    -0.76424904841394D+02

 The electronic state is 1-A'.
 Alpha  occ. eigenvalues --  -19.73246  -1.15321  -0.60951  -0.47342  -0.39900
 Alpha virt. eigenvalues --    0.04451   0.10135   0.27560   0.30431   0.30833
 Alpha virt. eigenvalues --    0.35564   0.43768   0.50208   0.56148   0.62153
 Alpha virt. eigenvalues --    0.65816   0.80956   0.93580   0.96090   1.03297

 Mulliken charges:
               1
     1  O   -0.449024
     2  H    0.221205
     3  H    0.227819
 Sum of Mulliken charges =   0.00000

 Dipole moment (field-independent basis, Debye):
    X=              0.0079    Y=             -1.9647    Z=              0.0000  Tot=              1.9647
 Quadrupole moment (field-independent basis, Debye-Ang):
   XX=             -4.3168   YY=             -6.3328   ZZ=             -7.6108
   XY=              0.0420   XZ=              0.0000   YZ=              0.0000

 1\1\GINC-NODE31\SP\RB2PLYPD3-FC\def2QZVP\H2O1\BOITTIER\26-Aug-2020\0\\
 #p B2PLYPD3/Def2QZVP\\h2o\\0,1\O,0,-5.326605,-0.76515,0.919475\H,0,-4.
 368927,-0.727037,0.93253\H,0,-5.609308,0.153478,0.761578\\Version=ES64
 L-G09RevD.01\State=1-A'\HF=-76.3346652\MP2=-76.4249048\RMSD=4.113e-09\
 PG=CS [SG(H2O1)]\\@

 The mind is not a vessel to be filled but a fire to be kindled.

 Normal termination of Gaussian 09 at Wed Aug 26 08:30:32 2020.
