 Gaussian 09, Revision D.01,
 Gaussian 09:  ES64L-G09RevD.01 24-Apr-2013

 --------------------
 #p B2PLYPD3/Def2QZVP
 --------------------

 ---
 h2o
 ---
 Symbolic Z-matrix:
 Charge =  0 Multiplicity = 1

                         Standard orientation:
 ---------------------------------------------------------------------
 Center     Atomic      Atomic             Coordinates (Angstroms)
 Number     Number       Type             X           Y           Z
 ---------------------------------------------------------------------
      1          8           0        0.000000    0.111186    0.000000
      2          1           0        0.787421   -0.439379    0.000000
      3          1           0       -0.787421   -0.450112    0.000000
 ---------------------------------------------------------------------

 SCF Done:  E(RB2PLYPD3) =  -76.3344399311     A.U. after   10 cycles
 E2(B2PLYPD3) =    -0.9003705787D-01 E(B2PLYPD3) =    -0.76424476988970D+02

 The electronic state is 1-A'.
 Alpha  occ. eigenvalues --  -19.73003  -1.15094  -0.61909  -0.46472  -0.39799
 Alpha virt. eigenvalues --    0.04557   0.10075   0.27464   0.30441   0.31387
 Alpha virt. eigenvalues --    0.34832   0.43802   0.51244   0.55469   0.63635
 Alpha virt. eigenvalues --    0.65671   0.80584   0.93288   0.96213   1.04592

 Mulliken charges:
               1
     1  O   -0.458529
     2  H    0.227891
     3  H    0.230638
 Sum of Mulliken charges =   0.00000

 Dipole moment (field-independent basis, Debye):
    X=              0.0028    Y=             -1.8862    Z=              0.0000  Tot=              1.8862
 Quadrupole moment (field-independent basis, Debye-Ang):
   XX=             -4.1142   YY=             -6.4735   ZZ=             -7.6152
   XY=              0.0190   XZ=              0.0000   YZ=              0.0000

 1\1\GINC-NODE17\SP\RB2PLYPD3-FC\def2QZVP\H2O1\BOITTIER\26-Aug-2020\0\\
 #p B2PLYPD3/Def2QZVP\\h2o\\0,1\O,0,-5.326605,-0.761079,0.910736\H,0,-4
 .368927,-0.800772,0.977305\H,0,-5.609308,0.162074,0.856371\\Version=ES
 64L-G09RevD.01\State=1-A'\HF=-76.3344399\MP2=-76.424477\RMSD=3.711e-09
 \PG=CS [SG(H2O1)]\\@

    UPON JULIA'S CLOTHES

 Normal termination of Gaussian 09 at Wed Aug 26 09:15:45 2020.
