 Gaussian 09, Revision D.01,
 Gaussian 09:  ES64L-G09RevD.01 24-Apr-2013

 --------------------
 #p B2PLYPD3/Def2QZVP
 --------------------

 ---
 h2o
 ---
 Symbolic Z-matrix:
 Charge =  0 Multiplicity = 1

                         Standard orientation:
 ---------------------------------------------------------------------
 Center     Atomic      Atomic             Coordinates (Angstroms)
 Number     Number       Type             X           Y           Z
 ---------------------------------------------------------------------
      1          8           0        0.000000    0.115139    0.000000
      2          1           0        0.761804   -0.466021    0.000000
      3          1           0       -0.761804   -0.455090    0.000000
 ---------------------------------------------------------------------

 SCF Done:  E(RB2PLYPD3) =  -76.3352277296     A.U. after   10 cycles
 E2(B2PLYPD3) =    -0.8983461942D-01 E(B2PLYPD3) =    -0.76425062349024D+02

 The electronic state is 1-A'.
 Alpha  occ. eigenvalues --  -19.73020  -1.15775  -0.61674  -0.47288  -0.39970
 Alpha virt. eigenvalues --    0.04601   0.10224   0.27470   0.30406   0.31179
 Alpha virt. eigenvalues --    0.35876   0.44078   0.50520   0.56128   0.62571
 Alpha virt. eigenvalues --    0.65510   0.81180   0.93832   0.95881   1.04396

 Mulliken charges:
               1
     1  O   -0.442627
     2  H    0.222825
     3  H    0.219801
 Sum of Mulliken charges =   0.00000

 Dipole moment (field-independent basis, Debye):
    X=             -0.0033    Y=             -1.9398    Z=              0.0000  Tot=              1.9398
 Quadrupole moment (field-independent basis, Debye-Ang):
   XX=             -4.2947   YY=             -6.3587   ZZ=             -7.5869
   XY=             -0.0182   XZ=              0.0000   YZ=              0.0000

 1\1\GINC-NODE30\SP\RB2PLYPD3-FC\def2QZVP\H2O1\BOITTIER\26-Aug-2020\0\\
 #p B2PLYPD3/Def2QZVP\\h2o\\0,1\O,0,-5.326605,-0.7634,0.917993\H,0,-4.3
 68927,-0.736847,0.933487\H,0,-5.609308,0.135288,0.784035\\Version=ES64
 L-G09RevD.01\State=1-A'\HF=-76.3352277\MP2=-76.4250623\RMSD=4.020e-09\
 PG=CS [SG(H2O1)]\\@

  THE LARGE PRINT GIVETH,

 Normal termination of Gaussian 09 at Wed Aug 26 11:36:08 2020.
