 Gaussian 09, Revision D.01,
 Gaussian 09:  ES64L-G09RevD.01 24-Apr-2013

 --------------------
 #p B2PLYPD3/Def2QZVP
 --------------------

 ---
 h2o
 ---
 Symbolic Z-matrix:
 Charge =  0 Multiplicity = 1

                         Standard orientation:
 ---------------------------------------------------------------------
 Center     Atomic      Atomic             Coordinates (Angstroms)
 Number     Number       Type             X           Y           Z
 ---------------------------------------------------------------------
      1          8           0        0.000000    0.124338    0.000000
      2          1           0        0.708985   -0.542975    0.000000
      3          1           0       -0.708985   -0.451730    0.000000
 ---------------------------------------------------------------------

 SCF Done:  E(RB2PLYPD3) =  -76.3314362081     A.U. after   10 cycles
 E2(B2PLYPD3) =    -0.8974292044D-01 E(B2PLYPD3) =    -0.76421179128579D+02

 The electronic state is 1-A'.
 Alpha  occ. eigenvalues --  -19.73136  -1.17043  -0.60588  -0.49005  -0.40269
 Alpha virt. eigenvalues --    0.04494   0.10488   0.27501   0.30351   0.30538
 Alpha virt. eigenvalues --    0.37575   0.44589   0.49395   0.57459   0.60377
 Alpha virt. eigenvalues --    0.65290   0.81615   0.94827   0.95592   1.03604

 Mulliken charges:
               1
     1  O   -0.414384
     2  H    0.221605
     3  H    0.192779
 Sum of Mulliken charges =   0.00000

 Dipole moment (field-independent basis, Debye):
    X=             -0.0350    Y=             -2.0547    Z=              0.0000  Tot=              2.0550
 Quadrupole moment (field-independent basis, Debye-Ang):
   XX=             -4.6698   YY=             -6.1036   ZZ=             -7.5464
   XY=             -0.1327   XZ=              0.0000   YZ=              0.0000

 1\1\GINC-NODE20\SP\RB2PLYPD3-FC\def2QZVP\H2O1\BOITTIER\26-Aug-2020\0\\
 #p B2PLYPD3/Def2QZVP\\h2o\\0,1\O,0,-5.326605,-0.767512,0.928199\H,0,-4
 .368927,-0.599711,0.87661\H,0,-5.609308,0.06394,0.676643\\Version=ES64
 L-G09RevD.01\State=1-A'\HF=-76.3314362\MP2=-76.4211791\RMSD=6.147e-09\
 PG=CS [SG(H2O1)]\\@

 WE ARE REACHING THE STAGE WHERE THE PROBLEMS WE MUST SOLVE ARE

 Normal termination of Gaussian 09 at Wed Aug 26 08:52:25 2020.
