 Gaussian 09, Revision D.01,
 Gaussian 09:  ES64L-G09RevD.01 24-Apr-2013

 --------------------
 #p B2PLYPD3/Def2QZVP
 --------------------

 ---
 h2o
 ---
 Symbolic Z-matrix:
 Charge =  0 Multiplicity = 1

                         Standard orientation:
 ---------------------------------------------------------------------
 Center     Atomic      Atomic             Coordinates (Angstroms)
 Number     Number       Type             X           Y           Z
 ---------------------------------------------------------------------
      1          8           0        0.000000    0.113856    0.000000
      2          1           0        0.726116   -0.516943    0.000000
      3          1           0       -0.726116   -0.393907    0.000000
 ---------------------------------------------------------------------

 SCF Done:  E(RB2PLYPD3) =  -76.3300940777     A.U. after   10 cycles
 E2(B2PLYPD3) =    -0.8889447921D-01 E(B2PLYPD3) =    -0.76418988556884D+02

 The electronic state is 1-A'.
 Alpha  occ. eigenvalues --  -19.72550  -1.17585  -0.62797  -0.48028  -0.40298
 Alpha virt. eigenvalues --    0.04828   0.10538   0.27249   0.30317   0.31328
 Alpha virt. eigenvalues --    0.37542   0.45199   0.50462   0.56707   0.62306
 Alpha virt. eigenvalues --    0.64722   0.81950   0.94298   0.95401   1.05288

 Mulliken charges:
               1
     1  O   -0.406236
     2  H    0.224113
     3  H    0.182123
 Sum of Mulliken charges =   0.00000

 Dipole moment (field-independent basis, Debye):
    X=             -0.0393    Y=             -1.9465    Z=              0.0000  Tot=              1.9469
 Quadrupole moment (field-independent basis, Debye-Ang):
   XX=             -4.4456   YY=             -6.2685   ZZ=             -7.5104
   XY=             -0.1954   XZ=              0.0000   YZ=              0.0000

 1\1\GINC-NODE06\SP\RB2PLYPD3-FC\def2QZVP\H2O1\BOITTIER\26-Aug-2020\0\\
 #p B2PLYPD3/Def2QZVP\\h2o\\0,1\O,0,-5.326605,-0.761066,0.925071\H,0,-4
 .368927,-0.697264,0.862353\H,0,-5.609308,0.058369,0.74157\\Version=ES6
 4L-G09RevD.01\State=1-A'\HF=-76.3300941\MP2=-76.4189886\RMSD=6.547e-09
 \PG=CS [SG(H2O1)]\\@

 You never know when you're making a memory.

 Normal termination of Gaussian 09 at Wed Aug 26 08:51:34 2020.
