 Gaussian 09, Revision D.01,
 Gaussian 09:  ES64L-G09RevD.01 24-Apr-2013

 --------------------
 #p B2PLYPD3/Def2QZVP
 --------------------

 ---
 h2o
 ---
 Symbolic Z-matrix:
 Charge =  0 Multiplicity = 1

                         Standard orientation:
 ---------------------------------------------------------------------
 Center     Atomic      Atomic             Coordinates (Angstroms)
 Number     Number       Type             X           Y           Z
 ---------------------------------------------------------------------
      1          8           0        0.000000    0.124496    0.000000
      2          1           0        0.751576   -0.482094    0.000000
      3          1           0       -0.751576   -0.513871    0.000000
 ---------------------------------------------------------------------

 SCF Done:  E(RB2PLYPD3) =  -76.3334271926     A.U. after   10 cycles
 E2(B2PLYPD3) =    -0.9070102027D-01 E(B2PLYPD3) =    -0.76424128212865D+02

 The electronic state is 1-A'.
 Alpha  occ. eigenvalues --  -19.73562  -1.15163  -0.59779  -0.47975  -0.39921
 Alpha virt. eigenvalues --    0.04260   0.10105   0.27698   0.30238   0.30438
 Alpha virt. eigenvalues --    0.35742   0.43531   0.49445   0.56633   0.60918
 Alpha virt. eigenvalues --    0.66134   0.80925   0.93745   0.96237   1.01894

 Mulliken charges:
               1
     1  O   -0.447116
     2  H    0.219557
     3  H    0.227558
 Sum of Mulliken charges =   0.00000

 Dipole moment (field-independent basis, Debye):
    X=              0.0112    Y=             -2.0327    Z=              0.0000  Tot=              2.0327
 Quadrupole moment (field-independent basis, Debye-Ang):
   XX=             -4.4744   YY=             -6.2162   ZZ=             -7.6253
   XY=              0.0496   XZ=              0.0000   YZ=              0.0000

 1\1\GINC-NODE24\SP\RB2PLYPD3-FC\def2QZVP\H2O1\BOITTIER\26-Aug-2020\0\\
 #p B2PLYPD3/Def2QZVP\\h2o\\0,1\O,0,-5.326605,-0.765977,0.933034\H,0,-4
 .368927,-0.695235,0.829761\H,0,-5.609308,0.134903,0.648653\\Version=ES
 64L-G09RevD.01\State=1-A'\HF=-76.3334272\MP2=-76.4241282\RMSD=4.448e-0
 9\PG=CS [SG(H2O1)]\\@

 IF I AM NOT FOR MYSELF, WHO WILL BE?

 Normal termination of Gaussian 09 at Wed Aug 26 09:14:37 2020.
