 Gaussian 09, Revision D.01,
 Gaussian 09:  ES64L-G09RevD.01 24-Apr-2013

 --------------------
 #p B2PLYPD3/Def2QZVP
 --------------------

 ---
 h2o
 ---
 Symbolic Z-matrix:
 Charge =  0 Multiplicity = 1

                         Standard orientation:
 ---------------------------------------------------------------------
 Center     Atomic      Atomic             Coordinates (Angstroms)
 Number     Number       Type             X           Y           Z
 ---------------------------------------------------------------------
      1          8           0        0.000000    0.118961    0.000000
      2          1           0        0.756585   -0.471134    0.000000
      3          1           0       -0.756585   -0.480555    0.000000
 ---------------------------------------------------------------------

 SCF Done:  E(RB2PLYPD3) =  -76.3349135564     A.U. after   10 cycles
 E2(B2PLYPD3) =    -0.9014629650D-01 E(B2PLYPD3) =    -0.76425059852885D+02

 The electronic state is 1-A'.
 Alpha  occ. eigenvalues --  -19.73231  -1.15576  -0.60923  -0.47604  -0.39959
 Alpha virt. eigenvalues --    0.04476   0.10191   0.27555   0.30418   0.30819
 Alpha virt. eigenvalues --    0.35906   0.43875   0.50044   0.56365   0.61860
 Alpha virt. eigenvalues --    0.65746   0.81121   0.93834   0.95990   1.03387

 Mulliken charges:
               1
     1  O   -0.443817
     2  H    0.220644
     3  H    0.223173
 Sum of Mulliken charges =   0.00000

 Dipole moment (field-independent basis, Debye):
    X=              0.0030    Y=             -1.9790    Z=              0.0000  Tot=              1.9790
 Quadrupole moment (field-independent basis, Debye-Ang):
   XX=             -4.3726   YY=             -6.2986   ZZ=             -7.6000
   XY=              0.0153   XZ=              0.0000   YZ=              0.0000

 1\1\GINC-NODE13\SP\RB2PLYPD3-FC\def2QZVP\H2O1\BOITTIER\26-Aug-2020\0\\
 #p B2PLYPD3/Def2QZVP\\h2o\\0,1\O,0,-5.326605,-0.764945,0.924022\H,0,-4
 .368927,-0.713522,0.895026\H,0,-5.609308,0.136687,0.72659\\Version=ES6
 4L-G09RevD.01\State=1-A'\HF=-76.3349136\MP2=-76.4250599\RMSD=4.140e-09
 \PG=CS [SG(H2O1)]\\@

 TOWERING GENIUS DISDAINS A BEATEN PATH.  IT SEEKS

 Normal termination of Gaussian 09 at Wed Aug 26 08:43:16 2020.
