 Gaussian 09, Revision D.01,
 Gaussian 09:  ES64L-G09RevD.01 24-Apr-2013

 --------------------
 #p B2PLYPD3/Def2QZVP
 --------------------

 ---
 h2o
 ---
 Symbolic Z-matrix:
 Charge =  0 Multiplicity = 1

                         Standard orientation:
 ---------------------------------------------------------------------
 Center     Atomic      Atomic             Coordinates (Angstroms)
 Number     Number       Type             X           Y           Z
 ---------------------------------------------------------------------
      1          8           0        0.000000    0.116958    0.000000
      2          1           0        0.772925   -0.448931    0.000000
      3          1           0       -0.772925   -0.486732    0.000000
 ---------------------------------------------------------------------

 SCF Done:  E(RB2PLYPD3) =  -76.3343189408     A.U. after   10 cycles
 E2(B2PLYPD3) =    -0.9030991876D-01 E(B2PLYPD3) =    -0.76424628859516D+02

 The electronic state is 1-A'.
 Alpha  occ. eigenvalues --  -19.73248  -1.15112  -0.61001  -0.47103  -0.39849
 Alpha virt. eigenvalues --    0.04431   0.10088   0.27559   0.30442   0.30854
 Alpha virt. eigenvalues --    0.35269   0.43686   0.50382   0.55951   0.62440
 Alpha virt. eigenvalues --    0.65865   0.80797   0.93361   0.96178   1.03247

 Mulliken charges:
               1
     1  O   -0.453505
     2  H    0.221947
     3  H    0.231558
 Sum of Mulliken charges =   0.00000

 Dipole moment (field-independent basis, Debye):
    X=              0.0113    Y=             -1.9504    Z=              0.0000  Tot=              1.9504
 Quadrupole moment (field-independent basis, Debye-Ang):
   XX=             -4.2650   YY=             -6.3647   ZZ=             -7.6198
   XY=              0.0635   XZ=              0.0000   YZ=              0.0000

 1\1\GINC-NODE07\SP\RB2PLYPD3-FC\def2QZVP\H2O1\BOITTIER\26-Aug-2020\0\\
 #p B2PLYPD3/Def2QZVP\\h2o\\0,1\O,0,-5.326605,-0.764509,0.919079\H,0,-4
 .368927,-0.746308,0.931895\H,0,-5.609308,0.162504,0.768811\\Version=ES
 64L-G09RevD.01\State=1-A'\HF=-76.3343189\MP2=-76.4246289\RMSD=4.173e-0
 9\PG=CS [SG(H2O1)]\\@

 MARY HAD A LITTLE LAMB

 Normal termination of Gaussian 09 at Wed Aug 26 11:33:34 2020.
