 Gaussian 09, Revision D.01,
 Gaussian 09:  ES64L-G09RevD.01 24-Apr-2013

 --------------------
 #p B2PLYPD3/Def2QZVP
 --------------------

 ---
 h2o
 ---
 Symbolic Z-matrix:
 Charge =  0 Multiplicity = 1

                         Standard orientation:
 ---------------------------------------------------------------------
 Center     Atomic      Atomic             Coordinates (Angstroms)
 Number     Number       Type             X           Y           Z
 ---------------------------------------------------------------------
      1          8           0        0.000000    0.115060    0.000000
      2          1           0        0.761563   -0.466480    0.000000
      3          1           0       -0.761563   -0.453998    0.000000
 ---------------------------------------------------------------------

 SCF Done:  E(RB2PLYPD3) =  -76.3352290569     A.U. after   10 cycles
 E2(B2PLYPD3) =    -0.8982013409D-01 E(B2PLYPD3) =    -0.76425049190970D+02

 The electronic state is 1-A'.
 Alpha  occ. eigenvalues --  -19.73012  -1.15795  -0.61698  -0.47290  -0.39973
 Alpha virt. eigenvalues --    0.04606   0.10227   0.27467   0.30405   0.31188
 Alpha virt. eigenvalues --    0.35891   0.44090   0.50528   0.56130   0.62581
 Alpha virt. eigenvalues --    0.65499   0.81190   0.93842   0.95873   1.04429

 Mulliken charges:
               1
     1  O   -0.442313
     2  H    0.222887
     3  H    0.219426
 Sum of Mulliken charges =   0.00000

 Dipole moment (field-independent basis, Debye):
    X=             -0.0037    Y=             -1.9392    Z=              0.0000  Tot=              1.9392
 Quadrupole moment (field-independent basis, Debye-Ang):
   XX=             -4.2948   YY=             -6.3589   ZZ=             -7.5860
   XY=             -0.0208   XZ=              0.0000   YZ=              0.0000

 1\1\GINC-NODE34\SP\RB2PLYPD3-FC\def2QZVP\H2O1\BOITTIER\26-Aug-2020\0\\
 #p B2PLYPD3/Def2QZVP\\h2o\\0,1\O,0,-5.326605,-0.763375,0.917755\H,0,-4
 .368927,-0.736663,0.935212\H,0,-5.609308,0.134702,0.786069\\Version=ES
 64L-G09RevD.01\State=1-A'\HF=-76.3352291\MP2=-76.4250492\RMSD=4.031e-0
 9\PG=CS [SG(H2O1)]\\@

 LIFE CAN ONLY BE UNDERSTOOD BACKWARD, BUT MUST

 Normal termination of Gaussian 09 at Wed Aug 26 10:53:07 2020.
