 Gaussian 09, Revision D.01,
 Gaussian 09:  ES64L-G09RevD.01 24-Apr-2013

 --------------------
 #p B2PLYPD3/Def2QZVP
 --------------------

 ---
 h2o
 ---
 Symbolic Z-matrix:
 Charge =  0 Multiplicity = 1

                         Standard orientation:
 ---------------------------------------------------------------------
 Center     Atomic      Atomic             Coordinates (Angstroms)
 Number     Number       Type             X           Y           Z
 ---------------------------------------------------------------------
      1          8           0        0.000000    0.114493    0.000000
      2          1           0        0.784528   -0.435083    0.000000
      3          1           0       -0.784528   -0.480861    0.000000
 ---------------------------------------------------------------------

 SCF Done:  E(RB2PLYPD3) =  -76.3338863915     A.U. after   10 cycles
 E2(B2PLYPD3) =    -0.9032247388D-01 E(B2PLYPD3) =    -0.76424208865422D+02

 The electronic state is 1-A'.
 Alpha  occ. eigenvalues --  -19.73192  -1.14887  -0.61260  -0.46700  -0.39781
 Alpha virt. eigenvalues --    0.04436   0.10036   0.27533   0.30454   0.31000
 Alpha virt. eigenvalues --    0.34858   0.43625   0.50784   0.55628   0.63029
 Alpha virt. eigenvalues --    0.65873   0.80555   0.93118   0.96283   1.03465

 Mulliken charges:
               1
     1  O   -0.459595
     2  H    0.224115
     3  H    0.235479
 Sum of Mulliken charges =   0.00000

 Dipole moment (field-independent basis, Debye):
    X=              0.0127    Y=             -1.9199    Z=              0.0000  Tot=              1.9199
 Quadrupole moment (field-independent basis, Debye-Ang):
   XX=             -4.1734   YY=             -6.4245   ZZ=             -7.6283
   XY=              0.0793   XZ=              0.0000   YZ=              0.0000

 1\1\GINC-NODE07\SP\RB2PLYPD3-FC\def2QZVP\H2O1\BOITTIER\26-Aug-2020\0\\
 #p B2PLYPD3/Def2QZVP\\h2o\\0,1\O,0,-5.326605,-0.762882,0.918572\H,0,-4
 .368927,-0.780581,0.92616\H,0,-5.609308,0.170739,0.783068\\Version=ES6
 4L-G09RevD.01\State=1-A'\HF=-76.3338864\MP2=-76.4242089\RMSD=4.207e-09
 \PG=CS [SG(H2O1)]\\@

 JUST WHEN YOU THINK YOU'VE GOT THE WORLD ON A STRING,

 Normal termination of Gaussian 09 at Wed Aug 26 11:24:29 2020.
