 Gaussian 09, Revision D.01,
 Gaussian 09:  ES64L-G09RevD.01 24-Apr-2013

 --------------------
 #p B2PLYPD3/Def2QZVP
 --------------------

 ---
 h2o
 ---
 Symbolic Z-matrix:
 Charge =  0 Multiplicity = 1

                         Standard orientation:
 ---------------------------------------------------------------------
 Center     Atomic      Atomic             Coordinates (Angstroms)
 Number     Number       Type             X           Y           Z
 ---------------------------------------------------------------------
      1          8           0        0.000000    0.117229    0.000000
      2          1           0        0.772431   -0.449501    0.000000
      3          1           0       -0.772431   -0.488332    0.000000
 ---------------------------------------------------------------------

 SCF Done:  E(RB2PLYPD3) =  -76.3342789987     A.U. after   10 cycles
 E2(B2PLYPD3) =    -0.9032886707D-01 E(B2PLYPD3) =    -0.76424607865741D+02

 The electronic state is 1-A'.
 Alpha  occ. eigenvalues --  -19.73261  -1.15104  -0.60953  -0.47127  -0.39849
 Alpha virt. eigenvalues --    0.04423   0.10087   0.27564   0.30442   0.30827
 Alpha virt. eigenvalues --    0.35279   0.43676   0.50346   0.55969   0.62388
 Alpha virt. eigenvalues --    0.65879   0.80798   0.93360   0.96182   1.03180

 Mulliken charges:
               1
     1  O   -0.453434
     2  H    0.221788
     3  H    0.231646
 Sum of Mulliken charges =   0.00000

 Dipole moment (field-independent basis, Debye):
    X=              0.0117    Y=             -1.9533    Z=              0.0000  Tot=              1.9533
 Quadrupole moment (field-independent basis, Debye-Ang):
   XX=             -4.2712   YY=             -6.3600   ZZ=             -7.6204
   XY=              0.0651   XZ=              0.0000   YZ=              0.0000

 1\1\GINC-NODE30\SP\RB2PLYPD3-FC\def2QZVP\H2O1\BOITTIER\26-Aug-2020\0\\
 #p B2PLYPD3/Def2QZVP\\h2o\\0,1\O,0,-5.326605,-0.764717,0.918925\H,0,-4
 .368927,-0.743593,0.934378\H,0,-5.609308,0.163117,0.768738\\Version=ES
 64L-G09RevD.01\State=1-A'\HF=-76.334279\MP2=-76.4246079\RMSD=4.194e-09
 \PG=CS [SG(H2O1)]\\@

 THE ... SCIENTISTS WERE WRONG ... THE MOST PERSISTENT PRINCIPLES

 Normal termination of Gaussian 09 at Wed Aug 26 10:29:18 2020.
