 Gaussian 09, Revision D.01,
 Gaussian 09:  ES64L-G09RevD.01 24-Apr-2013

 --------------------
 #p B2PLYPD3/Def2QZVP
 --------------------

 ---
 h2o
 ---
 Symbolic Z-matrix:
 Charge =  0 Multiplicity = 1

                         Standard orientation:
 ---------------------------------------------------------------------
 Center     Atomic      Atomic             Coordinates (Angstroms)
 Number     Number       Type             X           Y           Z
 ---------------------------------------------------------------------
      1          8           0        0.000000    0.112927    0.000000
      2          1           0        0.731471   -0.511361    0.000000
      3          1           0       -0.731471   -0.392059    0.000000
 ---------------------------------------------------------------------

 SCF Done:  E(RB2PLYPD3) =  -76.3306507516     A.U. after   10 cycles
 E2(B2PLYPD3) =    -0.8891309588D-01 E(B2PLYPD3) =    -0.76419563847463D+02

 The electronic state is 1-A'.
 Alpha  occ. eigenvalues --  -19.72542  -1.17439  -0.62901  -0.47850  -0.40266
 Alpha virt. eigenvalues --    0.04838   0.10510   0.27251   0.30323   0.31389
 Alpha virt. eigenvalues --    0.37354   0.45133   0.50602   0.56571   0.62542
 Alpha virt. eigenvalues --    0.64742   0.81904   0.94241   0.95418   1.05337

 Mulliken charges:
               1
     1  O   -0.409520
     2  H    0.224807
     3  H    0.184713
 Sum of Mulliken charges =   0.00000

 Dipole moment (field-independent basis, Debye):
    X=             -0.0370    Y=             -1.9346    Z=              0.0000  Tot=              1.9350
 Quadrupole moment (field-independent basis, Debye-Ang):
   XX=             -4.4084   YY=             -6.2942   ZZ=             -7.5151
   XY=             -0.1921   XZ=              0.0000   YZ=              0.0000

 1\1\GINC-NODE05\SP\RB2PLYPD3-FC\def2QZVP\H2O1\BOITTIER\26-Aug-2020\0\\
 #p B2PLYPD3/Def2QZVP\\h2o\\0,1\O,0,-5.326605,-0.760183,0.925834\H,0,-4
 .368927,-0.715039,0.850992\H,0,-5.609308,0.062009,0.741063\\Version=ES
 64L-G09RevD.01\State=1-A'\HF=-76.3306508\MP2=-76.4195638\RMSD=6.476e-0
 9\PG=CS [SG(H2O1)]\\@

 There was a great rattling of the words for the fewness of ideas.

 Normal termination of Gaussian 09 at Wed Aug 26 09:54:47 2020.
