 Gaussian 09, Revision D.01,
 Gaussian 09:  ES64L-G09RevD.01 24-Apr-2013

 --------------------
 #p B2PLYPD3/Def2QZVP
 --------------------

 ---
 h2o
 ---
 Symbolic Z-matrix:
 Charge =  0 Multiplicity = 1

                         Standard orientation:
 ---------------------------------------------------------------------
 Center     Atomic      Atomic             Coordinates (Angstroms)
 Number     Number       Type             X           Y           Z
 ---------------------------------------------------------------------
      1          8           0        0.000000    0.118189    0.000000
      2          1           0        0.737033   -0.499332    0.000000
      3          1           0       -0.737033   -0.446182    0.000000
 ---------------------------------------------------------------------

 SCF Done:  E(RB2PLYPD3) =  -76.3343728113     A.U. after   10 cycles
 E2(B2PLYPD3) =    -0.8960758417D-01 E(B2PLYPD3) =    -0.76423980395512D+02

 The electronic state is 1-A'.
 Alpha  occ. eigenvalues --  -19.72983  -1.16524  -0.61521  -0.48037  -0.40136
 Alpha virt. eigenvalues --    0.04631   0.10376   0.27447   0.30371   0.31017
 Alpha virt. eigenvalues --    0.36862   0.44420   0.50030   0.56729   0.61703
 Alpha virt. eigenvalues --    0.65313   0.81563   0.94358   0.95633   1.04329

 Mulliken charges:
               1
     1  O   -0.426809
     2  H    0.221402
     3  H    0.205407
 Sum of Mulliken charges =   0.00000

 Dipole moment (field-independent basis, Debye):
    X=             -0.0177    Y=             -1.9828    Z=              0.0000  Tot=              1.9829
 Quadrupole moment (field-independent basis, Debye-Ang):
   XX=             -4.4549   YY=             -6.2550   ZZ=             -7.5579
   XY=             -0.0839   XZ=              0.0000   YZ=              0.0000

 1\1\GINC-NODE15\SP\RB2PLYPD3-FC\def2QZVP\H2O1\BOITTIER\26-Aug-2020\0\\
 #p B2PLYPD3/Def2QZVP\\h2o\\0,1\O,0,-5.326605,-0.764663,0.922859\H,0,-4
 .368927,-0.681163,0.902137\H,0,-5.609308,0.099818,0.737163\\Version=ES
 64L-G09RevD.01\State=1-A'\HF=-76.3343728\MP2=-76.4239804\RMSD=5.000e-0
 9\PG=CS [SG(H2O1)]\\@

 THE VALUE OF PHILOSOPHY IS, IN FACT, TO BE SOUGHT LARGELY IN ITS

 Normal termination of Gaussian 09 at Wed Aug 26 12:43:43 2020.
