 Gaussian 09, Revision D.01,
 Gaussian 09:  ES64L-G09RevD.01 24-Apr-2013

 --------------------
 #p B2PLYPD3/Def2QZVP
 --------------------

 ---
 h2o
 ---
 Symbolic Z-matrix:
 Charge =  0 Multiplicity = 1

                         Standard orientation:
 ---------------------------------------------------------------------
 Center     Atomic      Atomic             Coordinates (Angstroms)
 Number     Number       Type             X           Y           Z
 ---------------------------------------------------------------------
      1          8           0        0.000000    0.115652    0.000000
      2          1           0        0.762922   -0.464379    0.000000
      3          1           0       -0.762922   -0.460836    0.000000
 ---------------------------------------------------------------------

 SCF Done:  E(RB2PLYPD3) =  -76.3351888200     A.U. after   10 cycles
 E2(B2PLYPD3) =    -0.8991832258D-01 E(B2PLYPD3) =    -0.76425107142621D+02

 The electronic state is 1-A'.
 Alpha  occ. eigenvalues --  -19.73066  -1.15671  -0.61531  -0.47287  -0.39953
 Alpha virt. eigenvalues --    0.04572   0.10204   0.27488   0.30412   0.31118
 Alpha virt. eigenvalues --    0.35796   0.44008   0.50466   0.56124   0.62501
 Alpha virt. eigenvalues --    0.65575   0.81129   0.93780   0.95927   1.04187

 Mulliken charges:
               1
     1  O   -0.444259
     2  H    0.222613
     3  H    0.221646
 Sum of Mulliken charges =   0.00000

 Dipole moment (field-independent basis, Debye):
    X=             -0.0011    Y=             -1.9441    Z=              0.0000  Tot=              1.9441
 Quadrupole moment (field-independent basis, Debye-Ang):
   XX=             -4.2962   YY=             -6.3555   ZZ=             -7.5922
   XY=             -0.0059   XZ=              0.0000   YZ=              0.0000

 1\1\GINC-NODE10\SP\RB2PLYPD3-FC\def2QZVP\H2O1\BOITTIER\26-Aug-2020\0\\
 #p B2PLYPD3/Def2QZVP\\h2o\\0,1\O,0,-5.326605,-0.763815,0.917493\H,0,-4
 .368927,-0.735003,0.940017\H,0,-5.609308,0.140085,0.785466\\Version=ES
 64L-G09RevD.01\State=1-A'\HF=-76.3351888\MP2=-76.4251071\RMSD=3.983e-0
 9\PG=CS [SG(H2O1)]\\@

 WAR ES EIN GOTT DER DIESE ZEICHEN SCHRIEB?

 Normal termination of Gaussian 09 at Wed Aug 26 10:27:43 2020.
