 Gaussian 09, Revision D.01,
 Gaussian 09:  ES64L-G09RevD.01 24-Apr-2013

 --------------------
 #p B2PLYPD3/Def2QZVP
 --------------------

 ---
 h2o
 ---
 Symbolic Z-matrix:
 Charge =  0 Multiplicity = 1

                         Standard orientation:
 ---------------------------------------------------------------------
 Center     Atomic      Atomic             Coordinates (Angstroms)
 Number     Number       Type             X           Y           Z
 ---------------------------------------------------------------------
      1          8           0        0.000000    0.117048    0.000000
      2          1           0        0.769315   -0.455649    0.000000
      3          1           0       -0.769315   -0.480735    0.000000
 ---------------------------------------------------------------------

 SCF Done:  E(RB2PLYPD3) =  -76.3346444474     A.U. after   10 cycles
 E2(B2PLYPD3) =    -0.9023086538D-01 E(B2PLYPD3) =    -0.76424875312758D+02

 The electronic state is 1-A'.
 Alpha  occ. eigenvalues --  -19.73221  -1.15251  -0.61066  -0.47198  -0.39878
 Alpha virt. eigenvalues --    0.04460   0.10118   0.27550   0.30434   0.30897
 Alpha virt. eigenvalues --    0.35426   0.43753   0.50345   0.56034   0.62367
 Alpha virt. eigenvalues --    0.65810   0.80894   0.93497   0.96114   1.03421

 Mulliken charges:
               1
     1  O   -0.450972
     2  H    0.222242
     3  H    0.228731
 Sum of Mulliken charges =   0.00000

 Dipole moment (field-independent basis, Debye):
    X=              0.0076    Y=             -1.9535    Z=              0.0000  Tot=              1.9535
 Quadrupole moment (field-independent basis, Debye-Ang):
   XX=             -4.2841   YY=             -6.3548   ZZ=             -7.6131
   XY=              0.0419   XZ=              0.0000   YZ=              0.0000

 1\1\GINC-NODE37\SP\RB2PLYPD3-FC\def2QZVP\H2O1\BOITTIER\26-Aug-2020\0\\
 #p B2PLYPD3/Def2QZVP\\h2o\\0,1\O,0,-5.326605,-0.764926,0.915978\H,0,-4
 .368927,-0.736108,0.958976\H,0,-5.609308,0.158974,0.79077\\Version=ES6
 4L-G09RevD.01\State=1-A'\HF=-76.3346444\MP2=-76.4248753\RMSD=4.050e-09
 \PG=CS [SG(H2O1)]\\@

 Children are likely to live up to what you believe of them.

 Normal termination of Gaussian 09 at Wed Aug 26 12:20:11 2020.
