 Gaussian 09, Revision D.01,
 Gaussian 09:  ES64L-G09RevD.01 24-Apr-2013

 --------------------
 #p B2PLYPD3/Def2QZVP
 --------------------

 ---
 h2o
 ---
 Symbolic Z-matrix:
 Charge =  0 Multiplicity = 1

                         Standard orientation:
 ---------------------------------------------------------------------
 Center     Atomic      Atomic             Coordinates (Angstroms)
 Number     Number       Type             X           Y           Z
 ---------------------------------------------------------------------
      1          8           0        0.000000    0.119840    0.000000
      2          1           0        0.740990   -0.493433    0.000000
      3          1           0       -0.740990   -0.465288    0.000000
 ---------------------------------------------------------------------

 SCF Done:  E(RB2PLYPD3) =  -76.3348049938     A.U. after   10 cycles
 E2(B2PLYPD3) =    -0.8988850438D-01 E(B2PLYPD3) =    -0.76424693498221D+02

 The electronic state is 1-A'.
 Alpha  occ. eigenvalues --  -19.73141  -1.16147  -0.61051  -0.48028  -0.40078
 Alpha virt. eigenvalues --    0.04543   0.10309   0.27517   0.30389   0.30852
 Alpha virt. eigenvalues --    0.36570   0.44159   0.49874   0.56717   0.61487
 Alpha virt. eigenvalues --    0.65537   0.81403   0.94269   0.95778   1.03752

 Mulliken charges:
               1
     1  O   -0.433036
     2  H    0.220558
     3  H    0.212478
 Sum of Mulliken charges =   0.00000

 Dipole moment (field-independent basis, Debye):
    X=             -0.0095    Y=             -1.9962    Z=              0.0000  Tot=              1.9963
 Quadrupole moment (field-independent basis, Debye-Ang):
   XX=             -4.4593   YY=             -6.2467   ZZ=             -7.5758
   XY=             -0.0443   XZ=              0.0000   YZ=              0.0000

 1\1\GINC-NODE25\SP\RB2PLYPD3-FC\def2QZVP\H2O1\BOITTIER\26-Aug-2020\0\\
 #p B2PLYPD3/Def2QZVP\\h2o\\0,1\O,0,-5.326605,-0.765813,0.922816\H,0,-4
 .368927,-0.677215,0.909597\H,0,-5.609308,0.114264,0.7305\\Version=ES64
 L-G09RevD.01\State=1-A'\HF=-76.334805\MP2=-76.4246935\RMSD=4.559e-09\P
 G=CS [SG(H2O1)]\\@

 YE HAVE SOWN MUCH, AND BRING IN LITTLE.

 Normal termination of Gaussian 09 at Wed Aug 26 11:46:29 2020.
