 Gaussian 09, Revision D.01,
 Gaussian 09:  ES64L-G09RevD.01 24-Apr-2013

 --------------------
 #p B2PLYPD3/Def2QZVP
 --------------------

 ---
 h2o
 ---
 Symbolic Z-matrix:
 Charge =  0 Multiplicity = 1

                         Standard orientation:
 ---------------------------------------------------------------------
 Center     Atomic      Atomic             Coordinates (Angstroms)
 Number     Number       Type             X           Y           Z
 ---------------------------------------------------------------------
      1          8           0        0.000000    0.114054    0.000000
      2          1           0        0.710781   -0.538674    0.000000
      3          1           0       -0.710781   -0.373758    0.000000
 ---------------------------------------------------------------------

 SCF Done:  E(RB2PLYPD3) =  -76.3248454415     A.U. after   10 cycles
 E2(B2PLYPD3) =    -0.8860015090D-01 E(B2PLYPD3) =    -0.76413445592363D+02

 The electronic state is 1-A'.
 Alpha  occ. eigenvalues --  -19.72385  -1.18340  -0.63082  -0.48361  -0.40427
 Alpha virt. eigenvalues --    0.04857   0.10651   0.27150   0.30286   0.31255
 Alpha virt. eigenvalues --    0.38093   0.45693   0.50375   0.56932   0.62092
 Alpha virt. eigenvalues --    0.64458   0.82138   0.94195   0.95378   1.05284

 Mulliken charges:
               1
     1  O   -0.388866
     2  H    0.224938
     3  H    0.163928
 Sum of Mulliken charges =   0.00000

 Dipole moment (field-independent basis, Debye):
    X=             -0.0546    Y=             -1.9558    Z=              0.0000  Tot=              1.9566
 Quadrupole moment (field-independent basis, Debye-Ang):
   XX=             -4.5170   YY=             -6.2167   ZZ=             -7.4830
   XY=             -0.2553   XZ=              0.0000   YZ=              0.0000

 1\1\GINC-NODE35\SP\RB2PLYPD3-FC\def2QZVP\H2O1\BOITTIER\26-Aug-2020\0\\
 #p B2PLYPD3/Def2QZVP\\h2o\\0,1\O,0,-5.326605,-0.760641,0.926948\H,0,-4
 .368927,-0.675032,0.844564\H,0,-5.609308,0.029338,0.729001\\Version=ES
 64L-G09RevD.01\State=1-A'\HF=-76.3248454\MP2=-76.4134456\RMSD=6.731e-0
 9\PG=CS [SG(H2O1)]\\@

 THIS CURIOUS WORLD WHICH WE INHABIT IS MORE WONDERFUL THAN IT IS CONVENIENT;

 Normal termination of Gaussian 09 at Wed Aug 26 07:47:46 2020.
