 Gaussian 09, Revision D.01,
 Gaussian 09:  ES64L-G09RevD.01 24-Apr-2013

 --------------------
 #p B2PLYPD3/Def2QZVP
 --------------------

 ---
 h2o
 ---
 Symbolic Z-matrix:
 Charge =  0 Multiplicity = 1

                         Standard orientation:
 ---------------------------------------------------------------------
 Center     Atomic      Atomic             Coordinates (Angstroms)
 Number     Number       Type             X           Y           Z
 ---------------------------------------------------------------------
      1          8           0        0.000000    0.119257    0.000000
      2          1           0        0.803451   -0.410145    0.000000
      3          1           0       -0.803451   -0.543914    0.000000
 ---------------------------------------------------------------------

 SCF Done:  E(RB2PLYPD3) =  -76.3278563176     A.U. after   10 cycles
 E2(B2PLYPD3) =    -0.9136802346D-01 E(B2PLYPD3) =    -0.76419224341046D+02

 The electronic state is 1-A'.
 Alpha  occ. eigenvalues --  -19.73655  -1.13706  -0.59784  -0.46414  -0.39562
 Alpha virt. eigenvalues --    0.03967   0.09750   0.27675   0.29810   0.30520
 Alpha virt. eigenvalues --    0.34052   0.42969   0.50354   0.55291   0.62576
 Alpha virt. eigenvalues --    0.66554   0.79697   0.91651   0.96763   1.01063

 Mulliken charges:
               1
     1  O   -0.475659
     2  H    0.223785
     3  H    0.251874
 Sum of Mulliken charges =   0.00000

 Dipole moment (field-independent basis, Debye):
    X=              0.0383    Y=             -1.9515    Z=              0.0000  Tot=              1.9519
 Quadrupole moment (field-independent basis, Debye-Ang):
   XX=             -4.1427   YY=             -6.4026   ZZ=             -7.6941
   XY=              0.2324   XZ=              0.0000   YZ=              0.0000

 1\1\GINC-NODE08\SP\RB2PLYPD3-FC\def2QZVP\H2O1\BOITTIER\26-Aug-2020\0\\
 #p B2PLYPD3/Def2QZVP\\h2o\\0,1\O,0,-5.326605,-0.766618,0.911748\H,0,-4
 .368927,-0.781436,1.003585\H,0,-5.609308,0.231365,0.814597\\Version=ES
 64L-G09RevD.01\State=1-A'\HF=-76.3278563\MP2=-76.4192243\RMSD=6.122e-0
 9\PG=CS [SG(H2O1)]\\@

      LET US REMEMBER, PLEASE, THAT THE SEARCH FOR THE CONSTITUTION

 Normal termination of Gaussian 09 at Wed Aug 26 08:33:52 2020.
