 Gaussian 09, Revision D.01,
 Gaussian 09:  ES64L-G09RevD.01 24-Apr-2013

 --------------------
 #p B2PLYPD3/Def2QZVP
 --------------------

 ---
 h2o
 ---
 Symbolic Z-matrix:
 Charge =  0 Multiplicity = 1

                         Standard orientation:
 ---------------------------------------------------------------------
 Center     Atomic      Atomic             Coordinates (Angstroms)
 Number     Number       Type             X           Y           Z
 ---------------------------------------------------------------------
      1          8           0        0.000000    0.121471    0.000000
      2          1           0        0.805028   -0.399655    0.000000
      3          1           0       -0.805028   -0.572115    0.000000
 ---------------------------------------------------------------------

 SCF Done:  E(RB2PLYPD3) =  -76.3248797677     A.U. after   10 cycles
 E2(B2PLYPD3) =    -0.9169203084D-01 E(B2PLYPD3) =    -0.76416571798514D+02

 The electronic state is 1-A'.
 Alpha  occ. eigenvalues --  -19.73797  -1.13471  -0.59300  -0.46421  -0.39523
 Alpha virt. eigenvalues --    0.03779   0.09680   0.27705   0.29238   0.30531
 Alpha virt. eigenvalues --    0.34051   0.42858   0.50104   0.55245   0.62304
 Alpha virt. eigenvalues --    0.66703   0.79501   0.91013   0.96866   1.00511

 Mulliken charges:
               1
     1  O   -0.476875
     2  H    0.221096
     3  H    0.255779
 Sum of Mulliken charges =   0.00000

 Dipole moment (field-independent basis, Debye):
    X=              0.0509    Y=             -1.9695    Z=              0.0000  Tot=              1.9702
 Quadrupole moment (field-independent basis, Debye-Ang):
   XX=             -4.1653   YY=             -6.3700   ZZ=             -7.7108
   XY=              0.2971   XZ=              0.0000   YZ=              0.0000

 1\1\GINC-NODE22\SP\RB2PLYPD3-FC\def2QZVP\H2O1\BOITTIER\26-Aug-2020\0\\
 #p B2PLYPD3/Def2QZVP\\h2o\\0,1\O,0,-5.326605,-0.7678,0.91733\H,0,-4.36
 8927,-0.775982,0.966614\H,0,-5.609308,0.244832,0.763098\\Version=ES64L
 -G09RevD.01\State=1-A'\HF=-76.3248798\MP2=-76.4165718\RMSD=6.964e-09\P
 G=CS [SG(H2O1)]\\@

 ... FOR AFTERWARDS A MAN FINDS PLEASURE IN HIS PAINS,

 Normal termination of Gaussian 09 at Wed Aug 26 09:10:13 2020.
