 Gaussian 09, Revision D.01,
 Gaussian 09:  ES64L-G09RevD.01 24-Apr-2013

 --------------------
 #p B2PLYPD3/Def2QZVP
 --------------------

 ---
 h2o
 ---
 Symbolic Z-matrix:
 Charge =  0 Multiplicity = 1

                         Standard orientation:
 ---------------------------------------------------------------------
 Center     Atomic      Atomic             Coordinates (Angstroms)
 Number     Number       Type             X           Y           Z
 ---------------------------------------------------------------------
      1          8           0        0.000000    0.114398    0.000000
      2          1           0        0.776917   -0.445820    0.000000
      3          1           0       -0.776917   -0.469363    0.000000
 ---------------------------------------------------------------------

 SCF Done:  E(RB2PLYPD3) =  -76.3346656382     A.U. after   10 cycles
 E2(B2PLYPD3) =    -0.9012048365D-01 E(B2PLYPD3) =    -0.76424786121834D+02

 The electronic state is 1-A'.
 Alpha  occ. eigenvalues --  -19.73115  -1.15211  -0.61472  -0.46884  -0.39849
 Alpha virt. eigenvalues --    0.04511   0.10106   0.27507   0.30436   0.31119
 Alpha virt. eigenvalues --    0.35200   0.43794   0.50729   0.55790   0.62926
 Alpha virt. eigenvalues --    0.65727   0.80796   0.93402   0.96131   1.03945

 Mulliken charges:
               1
     1  O   -0.453715
     2  H    0.223814
     3  H    0.229900
 Sum of Mulliken charges =   0.00000

 Dipole moment (field-independent basis, Debye):
    X=              0.0067    Y=             -1.9237    Z=              0.0000  Tot=              1.9237
 Quadrupole moment (field-independent basis, Debye-Ang):
   XX=             -4.2102   YY=             -6.4069   ZZ=             -7.6125
   XY=              0.0403   XZ=              0.0000   YZ=              0.0000

 1\1\GINC-NODE09\SP\RB2PLYPD3-FC\def2QZVP\H2O1\BOITTIER\26-Aug-2020\0\\
 #p B2PLYPD3/Def2QZVP\\h2o\\0,1\O,0,-5.326605,-0.762943,0.917569\H,0,-4
 .368927,-0.766958,0.934341\H,0,-5.609308,0.158094,0.790499\\Version=ES
 64L-G09RevD.01\State=1-A'\HF=-76.3346656\MP2=-76.4247861\RMSD=3.930e-0
 9\PG=CS [SG(H2O1)]\\@

 IN THE LONG RUN, DIGGING FOR TRUTH HAS ALWAYS PROVED NOT ONLY

 Normal termination of Gaussian 09 at Wed Aug 26 11:55:36 2020.
