 Gaussian 09, Revision D.01,
 Gaussian 09:  ES64L-G09RevD.01 24-Apr-2013

 --------------------
 #p B2PLYPD3/Def2QZVP
 --------------------

 ---
 h2o
 ---
 Symbolic Z-matrix:
 Charge =  0 Multiplicity = 1

                         Standard orientation:
 ---------------------------------------------------------------------
 Center     Atomic      Atomic             Coordinates (Angstroms)
 Number     Number       Type             X           Y           Z
 ---------------------------------------------------------------------
      1          8           0        0.000000    0.120901    0.000000
      2          1           0        0.725691   -0.516076    0.000000
      3          1           0       -0.725691   -0.451129    0.000000
 ---------------------------------------------------------------------

 SCF Done:  E(RB2PLYPD3) =  -76.3335510260     A.U. after   10 cycles
 E2(B2PLYPD3) =    -0.8967610861D-01 E(B2PLYPD3) =    -0.76423227134621D+02

 The electronic state is 1-A'.
 Alpha  occ. eigenvalues --  -19.73060  -1.16708  -0.61107  -0.48445  -0.40189
 Alpha virt. eigenvalues --    0.04575   0.10418   0.27476   0.30364   0.30813
 Alpha virt. eigenvalues --    0.37177   0.44459   0.49716   0.57045   0.61110
 Alpha virt. eigenvalues --    0.65334   0.81599   0.94570   0.95620   1.03952

 Mulliken charges:
               1
     1  O   -0.422145
     2  H    0.221011
     3  H    0.201134
 Sum of Mulliken charges =   0.00000

 Dipole moment (field-independent basis, Debye):
    X=             -0.0230    Y=             -2.0144    Z=              0.0000  Tot=              2.0145
 Quadrupole moment (field-independent basis, Debye-Ang):
   XX=             -4.5454   YY=             -6.1916   ZZ=             -7.5540
   XY=             -0.0991   XZ=              0.0000   YZ=              0.0000

 1\1\GINC-NODE18\SP\RB2PLYPD3-FC\def2QZVP\H2O1\BOITTIER\26-Aug-2020\0\\
 #p B2PLYPD3/Def2QZVP\\h2o\\0,1\O,0,-5.326605,-0.766172,0.924427\H,0,-4
 .368927,-0.645517,0.8987\H,0,-5.609308,0.088313,0.71519\\Version=ES64L
 -G09RevD.01\State=1-A'\HF=-76.333551\MP2=-76.4232271\RMSD=5.420e-09\PG
 =CS [SG(H2O1)]\\@

 IT'S WHAT A FELLER THINKS HE KNOWS THAT HURTS HIM...

 Normal termination of Gaussian 09 at Wed Aug 26 08:35:33 2020.
