 Gaussian 09, Revision D.01,
 Gaussian 09:  ES64L-G09RevD.01 24-Apr-2013

 --------------------
 #p B2PLYPD3/Def2QZVP
 --------------------

 ---
 h2o
 ---
 Symbolic Z-matrix:
 Charge =  0 Multiplicity = 1

                         Standard orientation:
 ---------------------------------------------------------------------
 Center     Atomic      Atomic             Coordinates (Angstroms)
 Number     Number       Type             X           Y           Z
 ---------------------------------------------------------------------
      1          8           0        0.000000    0.119816    0.000000
      2          1           0        0.772404   -0.447504    0.000000
      3          1           0       -0.772404   -0.511028    0.000000
 ---------------------------------------------------------------------

 SCF Done:  E(RB2PLYPD3) =  -76.3331732782     A.U. after   10 cycles
 E2(B2PLYPD3) =    -0.9063261363D-01 E(B2PLYPD3) =    -0.76423805891790D+02

 The electronic state is 1-A'.
 Alpha  occ. eigenvalues --  -19.73432  -1.14839  -0.60384  -0.47239  -0.39814
 Alpha virt. eigenvalues --    0.04296   0.10028   0.27631   0.30456   0.30475
 Alpha virt. eigenvalues --    0.35157   0.43493   0.50044   0.56032   0.61978
 Alpha virt. eigenvalues --    0.66089   0.80666   0.93133   0.96320   1.02313

 Mulliken charges:
               1
     1  O   -0.455949
     2  H    0.220222
     3  H    0.235727
 Sum of Mulliken charges =   0.00000

 Dipole moment (field-independent basis, Debye):
    X=              0.0199    Y=             -1.9772    Z=              0.0000  Tot=              1.9773
 Quadrupole moment (field-independent basis, Debye-Ang):
   XX=             -4.3070   YY=             -6.3262   ZZ=             -7.6360
   XY=              0.1051   XZ=              0.0000   YZ=              0.0000

 1\1\GINC-NODE07\SP\RB2PLYPD3-FC\def2QZVP\H2O1\BOITTIER\26-Aug-2020\0\\
 #p B2PLYPD3/Def2QZVP\\h2o\\0,1\O,0,-5.326605,-0.76619,0.920831\H,0,-4.
 368927,-0.730725,0.928294\H,0,-5.609308,0.173801,0.744569\\Version=ES6
 4L-G09RevD.01\State=1-A'\HF=-76.3331733\MP2=-76.4238059\RMSD=4.610e-09
 \PG=CS [SG(H2O1)]\\@

 THE PROGRESS OF RIVERS TO THE SEA IS NOT AS RAPID

 Normal termination of Gaussian 09 at Wed Aug 26 08:30:16 2020.
