 Gaussian 09, Revision D.01,
 Gaussian 09:  ES64L-G09RevD.01 24-Apr-2013

 --------------------
 #p B2PLYPD3/Def2QZVP
 --------------------

 ---
 h2o
 ---
 Symbolic Z-matrix:
 Charge =  0 Multiplicity = 1

                         Standard orientation:
 ---------------------------------------------------------------------
 Center     Atomic      Atomic             Coordinates (Angstroms)
 Number     Number       Type             X           Y           Z
 ---------------------------------------------------------------------
      1          8           0        0.000000    0.116469    0.000000
      2          1           0        0.748223   -0.486874    0.000000
      3          1           0       -0.748223   -0.444879    0.000000
 ---------------------------------------------------------------------

 SCF Done:  E(RB2PLYPD3) =  -76.3348843458     A.U. after   10 cycles
 E2(B2PLYPD3) =    -0.8966629111D-01 E(B2PLYPD3) =    -0.76424550636939D+02

 The electronic state is 1-A'.
 Alpha  occ. eigenvalues --  -19.72976  -1.16225  -0.61681  -0.47680  -0.40067
 Alpha virt. eigenvalues --    0.04635   0.10315   0.27448   0.30384   0.31119
 Alpha virt. eigenvalues --    0.36448   0.44297   0.50277   0.56444   0.62150
 Alpha virt. eigenvalues --    0.65371   0.81431   0.94124   0.95720   1.04433

 Mulliken charges:
               1
     1  O   -0.433293
     2  H    0.222762
     3  H    0.210530
 Sum of Mulliken charges =   0.00000

 Dipole moment (field-independent basis, Debye):
    X=             -0.0133    Y=             -1.9603    Z=              0.0000  Tot=              1.9603
 Quadrupole moment (field-independent basis, Debye-Ang):
   XX=             -4.3783   YY=             -6.3058   ZZ=             -7.5686
   XY=             -0.0681   XZ=              0.0000   YZ=              0.0000

 1\1\GINC-NODE32\SP\RB2PLYPD3-FC\def2QZVP\H2O1\BOITTIER\26-Aug-2020\0\\
 #p B2PLYPD3/Def2QZVP\\h2o\\0,1\O,0,-5.326605,-0.762383,0.927004\H,0,-4
 .368927,-0.722377,0.855506\H,0,-5.609308,0.10455,0.718545\\Version=ES6
 4L-G09RevD.01\State=1-A'\HF=-76.3348843\MP2=-76.4245506\RMSD=4.590e-09
 \PG=CS [SG(H2O1)]\\@

 It is also a good rule not to put too much confidence in

 Normal termination of Gaussian 09 at Wed Aug 26 12:07:31 2020.
