 Gaussian 09, Revision D.01,
 Gaussian 09:  ES64L-G09RevD.01 24-Apr-2013

 --------------------
 #p B2PLYPD3/Def2QZVP
 --------------------

 ---
 h2o
 ---
 Symbolic Z-matrix:
 Charge =  0 Multiplicity = 1

                         Standard orientation:
 ---------------------------------------------------------------------
 Center     Atomic      Atomic             Coordinates (Angstroms)
 Number     Number       Type             X           Y           Z
 ---------------------------------------------------------------------
      1          8           0        0.000000    0.116773    0.000000
      2          1           0        0.775893   -0.445011    0.000000
      3          1           0       -0.775893   -0.489176    0.000000
 ---------------------------------------------------------------------

 SCF Done:  E(RB2PLYPD3) =  -76.3340779176     A.U. after   10 cycles
 E2(B2PLYPD3) =    -0.9036255545D-01 E(B2PLYPD3) =    -0.76424440473061D+02

 The electronic state is 1-A'.
 Alpha  occ. eigenvalues --  -19.73263  -1.15010  -0.60972  -0.47020  -0.39826
 Alpha virt. eigenvalues --    0.04412   0.10065   0.27563   0.30447   0.30833
 Alpha virt. eigenvalues --    0.35146   0.43639   0.50427   0.55880   0.62517
 Alpha virt. eigenvalues --    0.65902   0.80719   0.93260   0.96224   1.03150

 Mulliken charges:
               1
     1  O   -0.455477
     2  H    0.222194
     3  H    0.233283
 Sum of Mulliken charges =   0.00000

 Dipole moment (field-independent basis, Debye):
    X=              0.0131    Y=             -1.9468    Z=              0.0000  Tot=              1.9469
 Quadrupole moment (field-independent basis, Debye-Ang):
   XX=             -4.2477   YY=             -6.3743   ZZ=             -7.6245
   XY=              0.0746   XZ=              0.0000   YZ=              0.0000

 1\1\GINC-NODE18\SP\RB2PLYPD3-FC\def2QZVP\H2O1\BOITTIER\26-Aug-2020\0\\
 #p B2PLYPD3/Def2QZVP\\h2o\\0,1\O,0,-5.326605,-0.764461,0.918522\H,0,-4
 .368927,-0.751921,0.936072\H,0,-5.609308,0.167342,0.773583\\Version=ES
 64L-G09RevD.01\State=1-A'\HF=-76.3340779\MP2=-76.4244405\RMSD=4.245e-0
 9\PG=CS [SG(H2O1)]\\@

 I LOVE MANKIND - IT'S PEOPLE I CAN'T STAND.

 Normal termination of Gaussian 09 at Wed Aug 26 10:39:51 2020.
