 Gaussian 09, Revision D.01,
 Gaussian 09:  ES64L-G09RevD.01 24-Apr-2013

 --------------------
 #p B2PLYPD3/Def2QZVP
 --------------------

 ---
 h2o
 ---
 Symbolic Z-matrix:
 Charge =  0 Multiplicity = 1

                         Standard orientation:
 ---------------------------------------------------------------------
 Center     Atomic      Atomic             Coordinates (Angstroms)
 Number     Number       Type             X           Y           Z
 ---------------------------------------------------------------------
      1          8           0        0.000000    0.117142    0.000000
      2          1           0        0.761766   -0.465330    0.000000
      3          1           0       -0.761766   -0.471802    0.000000
 ---------------------------------------------------------------------

 SCF Done:  E(RB2PLYPD3) =  -76.3350506159     A.U. after   10 cycles
 E2(B2PLYPD3) =    -0.9005897410D-01 E(B2PLYPD3) =    -0.76425109589982D+02

 The electronic state is 1-A'.
 Alpha  occ. eigenvalues --  -19.73156  -1.15557  -0.61220  -0.47389  -0.39942
 Alpha virt. eigenvalues --    0.04517   0.10184   0.27525   0.30418   0.30969
 Alpha virt. eigenvalues --    0.35771   0.43910   0.50282   0.56198   0.62236
 Alpha virt. eigenvalues --    0.65682   0.81087   0.93749   0.95982   1.03749

 Mulliken charges:
               1
     1  O   -0.445362
     2  H    0.221812
     3  H    0.223550
 Sum of Mulliken charges =   0.00000

 Dipole moment (field-independent basis, Debye):
    X=              0.0020    Y=             -1.9589    Z=              0.0000  Tot=              1.9589
 Quadrupole moment (field-independent basis, Debye-Ang):
   XX=             -4.3223   YY=             -6.3344   ZZ=             -7.5989
   XY=              0.0107   XZ=              0.0000   YZ=              0.0000

 1\1\GINC-NODE05\SP\RB2PLYPD3-FC\def2QZVP\H2O1\BOITTIER\26-Aug-2020\0\\
 #p B2PLYPD3/Def2QZVP\\h2o\\0,1\O,0,-5.326605,-0.764817,0.917666\H,0,-4
 .368927,-0.723838,0.944767\H,0,-5.609308,0.144956,0.777903\\Version=ES
 64L-G09RevD.01\State=1-A'\HF=-76.3350506\MP2=-76.4251096\RMSD=4.025e-0
 9\PG=CS [SG(H2O1)]\\@

 HO!  SUCH BUGS AND GOBLINS IN MY LIFE!

 Normal termination of Gaussian 09 at Wed Aug 26 09:30:45 2020.
