 Gaussian 09, Revision D.01,
 Gaussian 09:  ES64L-G09RevD.01 24-Apr-2013

 --------------------
 #p B2PLYPD3/Def2QZVP
 --------------------

 ---
 h2o
 ---
 Symbolic Z-matrix:
 Charge =  0 Multiplicity = 1

                         Standard orientation:
 ---------------------------------------------------------------------
 Center     Atomic      Atomic             Coordinates (Angstroms)
 Number     Number       Type             X           Y           Z
 ---------------------------------------------------------------------
      1          8           0        0.000000    0.119336    0.000000
      2          1           0        0.747083   -0.484613    0.000000
      3          1           0       -0.747083   -0.470079    0.000000
 ---------------------------------------------------------------------

 SCF Done:  E(RB2PLYPD3) =  -76.3349946489     A.U. after   10 cycles
 E2(B2PLYPD3) =    -0.8996828936D-01 E(B2PLYPD3) =    -0.76424962938243D+02

 The electronic state is 1-A'.
 Alpha  occ. eigenvalues --  -19.73165  -1.15940  -0.61041  -0.47856  -0.40034
 Alpha virt. eigenvalues --    0.04527   0.10267   0.27528   0.30399   0.30862
 Alpha virt. eigenvalues --    0.36323   0.44058   0.49954   0.56577   0.61657
 Alpha virt. eigenvalues --    0.65606   0.81310   0.94117   0.95848   1.03673

 Mulliken charges:
               1
     1  O   -0.437074
     2  H    0.220574
     3  H    0.216500
 Sum of Mulliken charges =   0.00000

 Dipole moment (field-independent basis, Debye):
    X=             -0.0048    Y=             -1.9881    Z=              0.0000  Tot=              1.9881
 Quadrupole moment (field-independent basis, Debye-Ang):
   XX=             -4.4234   YY=             -6.2692   ZZ=             -7.5842
   XY=             -0.0232   XZ=              0.0000   YZ=              0.0000

 1\1\GINC-NODE24\SP\RB2PLYPD3-FC\def2QZVP\H2O1\BOITTIER\26-Aug-2020\0\\
 #p B2PLYPD3/Def2QZVP\\h2o\\0,1\O,0,-5.326605,-0.765311,0.923539\H,0,-4
 .368927,-0.693007,0.900913\H,0,-5.609308,0.122032,0.727977\\Version=ES
 64L-G09RevD.01\State=1-A'\HF=-76.3349946\MP2=-76.4249629\RMSD=4.325e-0
 9\PG=CS [SG(H2O1)]\\@

 Everywhere is walking distance if you have the time.

 Normal termination of Gaussian 09 at Wed Aug 26 10:04:43 2020.
