 Gaussian 09, Revision D.01,
 Gaussian 09:  ES64L-G09RevD.01 24-Apr-2013

 --------------------
 #p B2PLYPD3/Def2QZVP
 --------------------

 ---
 h2o
 ---
 Symbolic Z-matrix:
 Charge =  0 Multiplicity = 1

                         Standard orientation:
 ---------------------------------------------------------------------
 Center     Atomic      Atomic             Coordinates (Angstroms)
 Number     Number       Type             X           Y           Z
 ---------------------------------------------------------------------
      1          8           0        0.000000    0.124487    0.000000
      2          1           0        0.746008   -0.486190    0.000000
      3          1           0       -0.746008   -0.509709    0.000000
 ---------------------------------------------------------------------

 SCF Done:  E(RB2PLYPD3) =  -76.3337594354     A.U. after   10 cycles
 E2(B2PLYPD3) =    -0.9057085819D-01 E(B2PLYPD3) =    -0.76424330293615D+02

 The electronic state is 1-A'.
 Alpha  occ. eigenvalues --  -19.73511  -1.15391  -0.59886  -0.48116  -0.39966
 Alpha virt. eigenvalues --    0.04302   0.10157   0.27677   0.30307   0.30426
 Alpha virt. eigenvalues --    0.35987   0.43644   0.49431   0.56756   0.60834
 Alpha virt. eigenvalues --    0.66034   0.81041   0.93962   0.96148   1.02133

 Mulliken charges:
               1
     1  O   -0.443347
     2  H    0.218626
     3  H    0.224721
 Sum of Mulliken charges =   0.00000

 Dipole moment (field-independent basis, Debye):
    X=              0.0084    Y=             -2.0359    Z=              0.0000  Tot=              2.0359
 Quadrupole moment (field-independent basis, Debye-Ang):
   XX=             -4.5010   YY=             -6.2024   ZZ=             -7.6149
   XY=              0.0364   XZ=              0.0000   YZ=              0.0000

 1\1\GINC-NODE34\SP\RB2PLYPD3-FC\def2QZVP\H2O1\BOITTIER\26-Aug-2020\0\\
 #p B2PLYPD3/Def2QZVP\\h2o\\0,1\O,0,-5.326605,-0.767571,0.928433\H,0,-4
 .368927,-0.669852,0.875914\H,0,-5.609308,0.135032,0.675216\\Version=ES
 64L-G09RevD.01\State=1-A'\HF=-76.3337594\MP2=-76.4243303\RMSD=4.479e-0
 9\PG=CS [SG(H2O1)]\\@

 I CLAIM NOT TO HAVE CONTROLLED EVENTS,

 Normal termination of Gaussian 09 at Wed Aug 26 09:03:17 2020.
