 Gaussian 09, Revision D.01,
 Gaussian 09:  ES64L-G09RevD.01 24-Apr-2013

 --------------------
 #p B2PLYPD3/Def2QZVP
 --------------------

 ---
 h2o
 ---
 Symbolic Z-matrix:
 Charge =  0 Multiplicity = 1

                         Standard orientation:
 ---------------------------------------------------------------------
 Center     Atomic      Atomic             Coordinates (Angstroms)
 Number     Number       Type             X           Y           Z
 ---------------------------------------------------------------------
      1          8           0        0.000000    0.114744    0.000000
      2          1           0        0.761855   -0.466474    0.000000
      3          1           0       -0.761855   -0.451476    0.000000
 ---------------------------------------------------------------------

 SCF Done:  E(RB2PLYPD3) =  -76.3352255071     A.U. after   10 cycles
 E2(B2PLYPD3) =    -0.8979232057D-01 E(B2PLYPD3) =    -0.76425017827711D+02

 The electronic state is 1-A'.
 Alpha  occ. eigenvalues --  -19.72994  -1.15817  -0.61763  -0.47266  -0.39975
 Alpha virt. eigenvalues --    0.04617   0.10231   0.27460   0.30404   0.31217
 Alpha virt. eigenvalues --    0.35894   0.44111   0.50568   0.56113   0.62639
 Alpha virt. eigenvalues --    0.65477   0.81197   0.93844   0.95864   1.04514

 Mulliken charges:
               1
     1  O   -0.442089
     2  H    0.223131
     3  H    0.218959
 Sum of Mulliken charges =   0.00000

 Dipole moment (field-independent basis, Debye):
    X=             -0.0044    Y=             -1.9360    Z=              0.0000  Tot=              1.9360
 Quadrupole moment (field-independent basis, Debye-Ang):
   XX=             -4.2890   YY=             -6.3635   ZZ=             -7.5847
   XY=             -0.0251   XZ=              0.0000   YZ=              0.0000

 1\1\GINC-NODE19\SP\RB2PLYPD3-FC\def2QZVP\H2O1\BOITTIER\26-Aug-2020\0\\
 #p B2PLYPD3/Def2QZVP\\h2o\\0,1\O,0,-5.326605,-0.763227,0.917153\H,0,-4
 .368927,-0.738532,0.939088\H,0,-5.609308,0.134205,0.791761\\Version=ES
 64L-G09RevD.01\State=1-A'\HF=-76.3352255\MP2=-76.4250178\RMSD=4.041e-0
 9\PG=CS [SG(H2O1)]\\@

 CONFIDENCE IS WHAT YOU FEEL BEFORE YOU FULLY

 Normal termination of Gaussian 09 at Wed Aug 26 11:00:06 2020.
