 Gaussian 09, Revision D.01,
 Gaussian 09:  ES64L-G09RevD.01 24-Apr-2013

 --------------------
 #p B2PLYPD3/Def2QZVP
 --------------------

 ---
 h2o
 ---
 Symbolic Z-matrix:
 Charge =  0 Multiplicity = 1

                         Standard orientation:
 ---------------------------------------------------------------------
 Center     Atomic      Atomic             Coordinates (Angstroms)
 Number     Number       Type             X           Y           Z
 ---------------------------------------------------------------------
      1          8           0        0.000000    0.121260    0.000000
      2          1           0        0.743274   -0.490153    0.000000
      3          1           0       -0.743274   -0.479924    0.000000
 ---------------------------------------------------------------------

 SCF Done:  E(RB2PLYPD3) =  -76.3347439053     A.U. after   10 cycles
 E2(B2PLYPD3) =    -0.9010976797D-01 E(B2PLYPD3) =    -0.76424853673304D+02

 The electronic state is 1-A'.
 Alpha  occ. eigenvalues --  -19.73263  -1.15880  -0.60676  -0.48041  -0.40037
 Alpha virt. eigenvalues --    0.04469   0.10258   0.27570   0.30403   0.30695
 Alpha virt. eigenvalues --    0.36363   0.43975   0.49739   0.56720   0.61292
 Alpha virt. eigenvalues --    0.65706   0.81281   0.94180   0.95898   1.03240

 Mulliken charges:
               1
     1  O   -0.437038
     2  H    0.219937
     3  H    0.217101
 Sum of Mulliken charges =   0.00000

 Dipole moment (field-independent basis, Debye):
    X=             -0.0035    Y=             -2.0081    Z=              0.0000  Tot=              2.0081
 Quadrupole moment (field-independent basis, Debye-Ang):
   XX=             -4.4684   YY=             -6.2358   ZZ=             -7.5891
   XY=             -0.0160   XZ=              0.0000   YZ=              0.0000

 1\1\GINC-NODE32\SP\RB2PLYPD3-FC\def2QZVP\H2O1\BOITTIER\26-Aug-2020\0\\
 #p B2PLYPD3/Def2QZVP\\h2o\\0,1\O,0,-5.326605,-0.766051,0.925929\H,0,-4
 .368927,-0.679029,0.8864\H,0,-5.609308,0.119881,0.704383\\Version=ES64
 L-G09RevD.01\State=1-A'\HF=-76.3347439\MP2=-76.4248537\RMSD=4.403e-09\
 PG=CS [SG(H2O1)]\\@

 YOU KNOW YOU'VE SPOKEN TOO LONG WHEN THE AUDIENCE STOPS LOOKING AT

 Normal termination of Gaussian 09 at Wed Aug 26 08:29:26 2020.
