 Gaussian 09, Revision D.01,
 Gaussian 09:  ES64L-G09RevD.01 24-Apr-2013

 --------------------
 #p B2PLYPD3/Def2QZVP
 --------------------

 ---
 h2o
 ---
 Symbolic Z-matrix:
 Charge =  0 Multiplicity = 1

                         Standard orientation:
 ---------------------------------------------------------------------
 Center     Atomic      Atomic             Coordinates (Angstroms)
 Number     Number       Type             X           Y           Z
 ---------------------------------------------------------------------
      1          8           0        0.000000    0.119213    0.000000
      2          1           0        0.804540   -0.406298    0.000000
      3          1           0       -0.804540   -0.547410    0.000000
 ---------------------------------------------------------------------

 SCF Done:  E(RB2PLYPD3) =  -76.3274299637     A.U. after   10 cycles
 E2(B2PLYPD3) =    -0.9139537312D-01 E(B2PLYPD3) =    -0.76418825336820D+02

 The electronic state is 1-A'.
 Alpha  occ. eigenvalues --  -19.73659  -1.13674  -0.59767  -0.46377  -0.39553
 Alpha virt. eigenvalues --    0.03947   0.09741   0.27671   0.29749   0.30522
 Alpha virt. eigenvalues --    0.34041   0.42961   0.50372   0.55255   0.62608
 Alpha virt. eigenvalues --    0.66562   0.79652   0.91555   0.96783   1.01001

 Mulliken charges:
               1
     1  O   -0.476175
     2  H    0.223345
     3  H    0.252830
 Sum of Mulliken charges =   0.00000

 Dipole moment (field-independent basis, Debye):
    X=              0.0402    Y=             -1.9502    Z=              0.0000  Tot=              1.9506
 Quadrupole moment (field-independent basis, Debye-Ang):
   XX=             -4.1365   YY=             -6.4045   ZZ=             -7.6962
   XY=              0.2457   XZ=              0.0000   YZ=              0.0000

 1\1\GINC-NODE35\SP\RB2PLYPD3-FC\def2QZVP\H2O1\BOITTIER\26-Aug-2020\0\\
 #p B2PLYPD3/Def2QZVP\\h2o\\0,1\O,0,-5.326605,-0.766557,0.913327\H,0,-4
 .368927,-0.784211,0.99071\H,0,-5.609308,0.233173,0.802465\\Version=ES6
 4L-G09RevD.01\State=1-A'\HF=-76.32743\MP2=-76.4188253\RMSD=6.318e-09\P
 G=CS [SG(H2O1)]\\@

 A MATHEMATICIAN IS A MACHINE FOR TURNING COFFEE INTO THEOREMS.

 Normal termination of Gaussian 09 at Wed Aug 26 07:53:26 2020.
