 Gaussian 09, Revision D.01,
 Gaussian 09:  ES64L-G09RevD.01 24-Apr-2013

 --------------------
 #p B2PLYPD3/Def2QZVP
 --------------------

 ---
 h2o
 ---
 Symbolic Z-matrix:
 Charge =  0 Multiplicity = 1

                         Standard orientation:
 ---------------------------------------------------------------------
 Center     Atomic      Atomic             Coordinates (Angstroms)
 Number     Number       Type             X           Y           Z
 ---------------------------------------------------------------------
      1          8           0        0.000000    0.119577    0.000000
      2          1           0        0.760404   -0.465133    0.000000
      3          1           0       -0.760404   -0.491486    0.000000
 ---------------------------------------------------------------------

 SCF Done:  E(RB2PLYPD3) =  -76.3345376972     A.U. after   10 cycles
 E2(B2PLYPD3) =    -0.9031016567D-01 E(B2PLYPD3) =    -0.76424847862905D+02

 The electronic state is 1-A'.
 Alpha  occ. eigenvalues --  -19.73308  -1.15349  -0.60701  -0.47536  -0.39918
 Alpha virt. eigenvalues --    0.04418   0.10143   0.27587   0.30429   0.30703
 Alpha virt. eigenvalues --    0.35693   0.43745   0.49998   0.56300   0.61821
 Alpha virt. eigenvalues --    0.65867   0.80996   0.93662   0.96093   1.03002

 Mulliken charges:
               1
     1  O   -0.447385
     2  H    0.220259
     3  H    0.227126
 Sum of Mulliken charges =   0.00000

 Dipole moment (field-independent basis, Debye):
    X=              0.0085    Y=             -1.9825    Z=              0.0000  Tot=              1.9825
 Quadrupole moment (field-independent basis, Debye-Ang):
   XX=             -4.3626   YY=             -6.3005   ZZ=             -7.6112
   XY=              0.0428   XZ=              0.0000   YZ=              0.0000

 1\1\GINC-NODE26\SP\RB2PLYPD3-FC\def2QZVP\H2O1\BOITTIER\26-Aug-2020\0\\
 #p B2PLYPD3/Def2QZVP\\h2o\\0,1\O,0,-5.326605,-0.765485,0.923537\H,0,-4
 .368927,-0.715481,0.902263\H,0,-5.609308,0.147281,0.727197\\Version=ES
 64L-G09RevD.01\State=1-A'\HF=-76.3345377\MP2=-76.4248479\RMSD=4.206e-0
 9\PG=CS [SG(H2O1)]\\@

 TO ERR IS HUMAN - AND TO BLAME IT ON A COMPUTER IS EVEN MORE SO.

 Normal termination of Gaussian 09 at Wed Aug 26 09:46:48 2020.
