 Gaussian 09, Revision D.01,
 Gaussian 09:  ES64L-G09RevD.01 24-Apr-2013

 --------------------
 #p B2PLYPD3/Def2QZVP
 --------------------

 ---
 h2o
 ---
 Symbolic Z-matrix:
 Charge =  0 Multiplicity = 1

                         Standard orientation:
 ---------------------------------------------------------------------
 Center     Atomic      Atomic             Coordinates (Angstroms)
 Number     Number       Type             X           Y           Z
 ---------------------------------------------------------------------
      1          8           0        0.000000    0.110026    0.000000
      2          1           0        0.809862   -0.408616    0.000000
      3          1           0       -0.809862   -0.471590    0.000000
 ---------------------------------------------------------------------

 SCF Done:  E(RB2PLYPD3) =  -76.3319383917     A.U. after   10 cycles
 E2(B2PLYPD3) =    -0.9049977768D-01 E(B2PLYPD3) =    -0.76422438169370D+02

 The electronic state is 1-A'.
 Alpha  occ. eigenvalues --  -19.73133  -1.14283  -0.61535  -0.45874  -0.39612
 Alpha virt. eigenvalues --    0.04376   0.09897   0.27491   0.30489   0.31194
 Alpha virt. eigenvalues --    0.33917   0.43393   0.51652   0.54960   0.64169
 Alpha virt. eigenvalues --    0.66041   0.79803   0.92615   0.96647   1.03414

 Mulliken charges:
               1
     1  O   -0.475144
     2  H    0.230282
     3  H    0.244862
 Sum of Mulliken charges =   0.00000

 Dipole moment (field-independent basis, Debye):
    X=              0.0149    Y=             -1.8607    Z=              0.0000  Tot=              1.8607
 Quadrupole moment (field-independent basis, Debye-Ang):
   XX=             -3.9835   YY=             -6.5432   ZZ=             -7.6550
   XY=              0.1156   XZ=              0.0000   YZ=              0.0000

 1\1\GINC-NODE35\SP\RB2PLYPD3-FC\def2QZVP\H2O1\BOITTIER\26-Aug-2020\0\\
 #p B2PLYPD3/Def2QZVP\\h2o\\0,1\O,0,-5.326605,-0.760099,0.91555\H,0,-4.
 368927,-0.846096,0.933523\H,0,-5.609308,0.191723,0.824625\\Version=ES6
 4L-G09RevD.01\State=1-A'\HF=-76.3319384\MP2=-76.4224382\RMSD=4.571e-09
 \PG=CS [SG(H2O1)]\\@

 ASKING DUMB QUESTIONS IS EASIER THAN CORECTING DUMB MISTAKES.

 Normal termination of Gaussian 09 at Wed Aug 26 08:20:33 2020.
