 Gaussian 09, Revision D.01,
 Gaussian 09:  ES64L-G09RevD.01 24-Apr-2013

 --------------------
 #p B2PLYPD3/Def2QZVP
 --------------------

 ---
 h2o
 ---
 Symbolic Z-matrix:
 Charge =  0 Multiplicity = 1

                         Standard orientation:
 ---------------------------------------------------------------------
 Center     Atomic      Atomic             Coordinates (Angstroms)
 Number     Number       Type             X           Y           Z
 ---------------------------------------------------------------------
      1          8           0        0.000000    0.114267    0.000000
      2          1           0        0.733303   -0.505895    0.000000
      3          1           0       -0.733303   -0.408243    0.000000
 ---------------------------------------------------------------------

 SCF Done:  E(RB2PLYPD3) =  -76.3322371564     A.U. after   10 cycles
 E2(B2PLYPD3) =    -0.8909112349D-01 E(B2PLYPD3) =    -0.76421328279859D+02

 The electronic state is 1-A'.
 Alpha  occ. eigenvalues --  -19.72661  -1.17180  -0.62538  -0.47899  -0.40230
 Alpha virt. eigenvalues --    0.04791   0.10476   0.27306   0.30336   0.31321
 Alpha virt. eigenvalues --    0.37233   0.44928   0.50449   0.56617   0.62323
 Alpha virt. eigenvalues --    0.64894   0.81819   0.94319   0.95447   1.05211

 Mulliken charges:
               1
     1  O   -0.414967
     2  H    0.223409
     3  H    0.191558
 Sum of Mulliken charges =   0.00000

 Dipole moment (field-independent basis, Debye):
    X=             -0.0308    Y=             -1.9470    Z=              0.0000  Tot=              1.9472
 Quadrupole moment (field-independent basis, Debye-Ang):
   XX=             -4.4182   YY=             -6.2868   ZZ=             -7.5265
   XY=             -0.1565   XZ=              0.0000   YZ=              0.0000

 1\1\GINC-NODE01\SP\RB2PLYPD3-FC\def2QZVP\H2O1\BOITTIER\26-Aug-2020\0\\
 #p B2PLYPD3/Def2QZVP\\h2o\\0,1\O,0,-5.326605,-0.761869,0.923079\H,0,-4
 .368927,-0.701887,0.88321\H,0,-5.609308,0.075839,0.752563\\Version=ES6
 4L-G09RevD.01\State=1-A'\HF=-76.3322372\MP2=-76.4213283\RMSD=6.058e-09
 \PG=CS [SG(H2O1)]\\@

 THE UNDERLYING PHYSICAL LAWS NECESSARY FOR THE

 Normal termination of Gaussian 09 at Wed Aug 26 08:31:48 2020.
