 Gaussian 09, Revision D.01,
 Gaussian 09:  ES64L-G09RevD.01 24-Apr-2013

 --------------------
 #p B2PLYPD3/Def2QZVP
 --------------------

 ---
 h2o
 ---
 Symbolic Z-matrix:
 Charge =  0 Multiplicity = 1

                         Standard orientation:
 ---------------------------------------------------------------------
 Center     Atomic      Atomic             Coordinates (Angstroms)
 Number     Number       Type             X           Y           Z
 ---------------------------------------------------------------------
      1          8           0        0.000000    0.120470    0.000000
      2          1           0        0.747014   -0.485448    0.000000
      3          1           0       -0.747014   -0.478309    0.000000
 ---------------------------------------------------------------------

 SCF Done:  E(RB2PLYPD3) =  -76.3348569677     A.U. after   10 cycles
 E2(B2PLYPD3) =    -0.9010092438D-01 E(B2PLYPD3) =    -0.76424957892045D+02

 The electronic state is 1-A'.
 Alpha  occ. eigenvalues --  -19.73244  -1.15812  -0.60781  -0.47912  -0.40018
 Alpha virt. eigenvalues --    0.04478   0.10243   0.27561   0.30406   0.30746
 Alpha virt. eigenvalues --    0.36248   0.43960   0.49835   0.56616   0.61473
 Alpha virt. eigenvalues --    0.65705   0.81250   0.94087   0.95913   1.03326

 Mulliken charges:
               1
     1  O   -0.438702
     2  H    0.220334
     3  H    0.218368
 Sum of Mulliken charges =   0.00000

 Dipole moment (field-independent basis, Debye):
    X=             -0.0024    Y=             -1.9987    Z=              0.0000  Tot=              1.9987
 Quadrupole moment (field-independent basis, Debye-Ang):
   XX=             -4.4396   YY=             -6.2552   ZZ=             -7.5911
   XY=             -0.0113   XZ=              0.0000   YZ=              0.0000

 1\1\GINC-NODE24\SP\RB2PLYPD3-FC\def2QZVP\H2O1\BOITTIER\26-Aug-2020\0\\
 #p B2PLYPD3/Def2QZVP\\h2o\\0,1\O,0,-5.326605,-0.765212,0.92698\H,0,-4.
 368927,-0.693757,0.873007\H,0,-5.609308,0.121191,0.701293\\Version=ES6
 4L-G09RevD.01\State=1-A'\HF=-76.334857\MP2=-76.4249579\RMSD=4.320e-09\
 PG=CS [SG(H2O1)]\\@

0EVERYBODY IS IGNORANT, ONLY ON DIFFERENT SUBJECTS.

 Normal termination of Gaussian 09 at Wed Aug 26 11:44:40 2020.
