 Gaussian 09, Revision D.01,
 Gaussian 09:  ES64L-G09RevD.01 24-Apr-2013

 --------------------
 #p B2PLYPD3/Def2QZVP
 --------------------

 ---
 h2o
 ---
 Symbolic Z-matrix:
 Charge =  0 Multiplicity = 1

                         Standard orientation:
 ---------------------------------------------------------------------
 Center     Atomic      Atomic             Coordinates (Angstroms)
 Number     Number       Type             X           Y           Z
 ---------------------------------------------------------------------
      1          8           0        0.000000    0.118756    0.000000
      2          1           0        0.755125   -0.473772    0.000000
      3          1           0       -0.755125   -0.476277    0.000000
 ---------------------------------------------------------------------

 SCF Done:  E(RB2PLYPD3) =  -76.3350022466     A.U. after   10 cycles
 E2(B2PLYPD3) =    -0.9008775836D-01 E(B2PLYPD3) =    -0.76425090004946D+02

 The electronic state is 1-A'.
 Alpha  occ. eigenvalues --  -19.73203  -1.15661  -0.61001  -0.47630  -0.39975
 Alpha virt. eigenvalues --    0.04496   0.10208   0.27544   0.30413   0.30856
 Alpha virt. eigenvalues --    0.35986   0.43924   0.50059   0.56390   0.61871
 Alpha virt. eigenvalues --    0.65702   0.81165   0.93892   0.95953   1.03519

 Mulliken charges:
               1
     1  O   -0.442441
     2  H    0.220881
     3  H    0.221561
 Sum of Mulliken charges =   0.00000

 Dipole moment (field-independent basis, Debye):
    X=              0.0008    Y=             -1.9780    Z=              0.0000  Tot=              1.9780
 Quadrupole moment (field-independent basis, Debye-Ang):
   XX=             -4.3768   YY=             -6.2974   ZZ=             -7.5960
   XY=              0.0041   XZ=              0.0000   YZ=              0.0000

 1\1\GINC-NODE15\SP\RB2PLYPD3-FC\def2QZVP\H2O1\BOITTIER\26-Aug-2020\0\\
 #p B2PLYPD3/Def2QZVP\\h2o\\0,1\O,0,-5.326605,-0.764547,0.925055\H,0,-4
 .368927,-0.714555,0.884364\H,0,-5.609308,0.131356,0.720814\\Version=ES
 64L-G09RevD.01\State=1-A'\HF=-76.3350022\MP2=-76.42509\RMSD=4.145e-09\
 PG=CS [SG(H2O1)]\\@

 I CLAIM NOT TO HAVE CONTROLLED EVENTS,

 Normal termination of Gaussian 09 at Wed Aug 26 09:48:57 2020.
