 Gaussian 09, Revision D.01,
 Gaussian 09:  ES64L-G09RevD.01 24-Apr-2013

 --------------------
 #p B2PLYPD3/Def2QZVP
 --------------------

 ---
 h2o
 ---
 Symbolic Z-matrix:
 Charge =  0 Multiplicity = 1

                         Standard orientation:
 ---------------------------------------------------------------------
 Center     Atomic      Atomic             Coordinates (Angstroms)
 Number     Number       Type             X           Y           Z
 ---------------------------------------------------------------------
      1          8           0        0.000000    0.115368    0.000000
      2          1           0        0.722083   -0.525628    0.000000
      3          1           0       -0.722083   -0.397313    0.000000
 ---------------------------------------------------------------------

 SCF Done:  E(RB2PLYPD3) =  -76.3297548799     A.U. after   10 cycles
 E2(B2PLYPD3) =    -0.8897467716D-01 E(B2PLYPD3) =    -0.76418729557009D+02

 The electronic state is 1-A'.
 Alpha  occ. eigenvalues --  -19.72613  -1.17598  -0.62517  -0.48200  -0.40308
 Alpha virt. eigenvalues --    0.04782   0.10546   0.27269   0.30319   0.31191
 Alpha virt. eigenvalues --    0.37632   0.45184   0.50274   0.56833   0.62003
 Alpha virt. eigenvalues --    0.64769   0.81931   0.94314   0.95428   1.05002

 Mulliken charges:
               1
     1  O   -0.405454
     2  H    0.224604
     3  H    0.180851
 Sum of Mulliken charges =   0.00000

 Dipole moment (field-independent basis, Debye):
    X=             -0.0423    Y=             -1.9632    Z=              0.0000  Tot=              1.9636
 Quadrupole moment (field-independent basis, Debye-Ang):
   XX=             -4.4844   YY=             -6.2393   ZZ=             -7.5124
   XY=             -0.2008   XZ=              0.0000   YZ=              0.0000

 1\1\GINC-NODE31\SP\RB2PLYPD3-FC\def2QZVP\H2O1\BOITTIER\26-Aug-2020\0\\
 #p B2PLYPD3/Def2QZVP\\h2o\\0,1\O,0,-5.326605,-0.760804,0.929295\H,0,-4
 .368927,-0.692259,0.82715\H,0,-5.609308,0.049167,0.70959\\Version=ES64
 L-G09RevD.01\State=1-A'\HF=-76.3297549\MP2=-76.4187296\RMSD=6.586e-09\
 PG=CS [SG(H2O1)]\\@

 AN OPTIMIST IS A GUY

 Normal termination of Gaussian 09 at Wed Aug 26 08:43:18 2020.
