 Gaussian 09, Revision D.01,
 Gaussian 09:  ES64L-G09RevD.01 24-Apr-2013

 --------------------
 #p B2PLYPD3/Def2QZVP
 --------------------

 ---
 h2o
 ---
 Symbolic Z-matrix:
 Charge =  0 Multiplicity = 1

                         Standard orientation:
 ---------------------------------------------------------------------
 Center     Atomic      Atomic             Coordinates (Angstroms)
 Number     Number       Type             X           Y           Z
 ---------------------------------------------------------------------
      1          8           0        0.000000    0.115680    0.000000
      2          1           0        0.764286   -0.463039    0.000000
      3          1           0       -0.764286   -0.462402    0.000000
 ---------------------------------------------------------------------

 SCF Done:  E(RB2PLYPD3) =  -76.3351523715     A.U. after   10 cycles
 E2(B2PLYPD3) =    -0.8995420786D-01 E(B2PLYPD3) =    -0.76425106579355D+02

 The electronic state is 1-A'.
 Alpha  occ. eigenvalues --  -19.73081  -1.15609  -0.61492  -0.47256  -0.39941
 Alpha virt. eigenvalues --    0.04560   0.10191   0.27495   0.30415   0.31103
 Alpha virt. eigenvalues --    0.35730   0.43974   0.50472   0.56097   0.62517
 Alpha virt. eigenvalues --    0.65603   0.81092   0.93738   0.95953   1.04120

 Mulliken charges:
               1
     1  O   -0.445388
     2  H    0.222781
     3  H    0.222608
 Sum of Mulliken charges =   0.00000

 Dipole moment (field-independent basis, Debye):
    X=             -0.0002    Y=             -1.9436    Z=              0.0000  Tot=              1.9436
 Quadrupole moment (field-independent basis, Debye-Ang):
   XX=             -4.2900   YY=             -6.3587   ZZ=             -7.5951
   XY=             -0.0011   XZ=              0.0000   YZ=              0.0000

 1\1\GINC-NODE07\SP\RB2PLYPD3-FC\def2QZVP\H2O1\BOITTIER\26-Aug-2020\0\\
 #p B2PLYPD3/Def2QZVP\\h2o\\0,1\O,0,-5.326605,-0.763955,0.916356\H,0,-4
 .368927,-0.736105,0.949919\H,0,-5.609308,0.143423,0.793651\\Version=ES
 64L-G09RevD.01\State=1-A'\HF=-76.3351524\MP2=-76.4251066\RMSD=3.961e-0
 9\PG=CS [SG(H2O1)]\\@

 10 WHATSOEVER THY HAND FINDETH TO DO, DO IT WITH THY

 Normal termination of Gaussian 09 at Wed Aug 26 12:04:40 2020.
