 Gaussian 09, Revision D.01,
 Gaussian 09:  ES64L-G09RevD.01 24-Apr-2013

 --------------------
 #p B2PLYPD3/Def2QZVP
 --------------------

 ---
 h2o
 ---
 Symbolic Z-matrix:
 Charge =  0 Multiplicity = 1

                         Standard orientation:
 ---------------------------------------------------------------------
 Center     Atomic      Atomic             Coordinates (Angstroms)
 Number     Number       Type             X           Y           Z
 ---------------------------------------------------------------------
      1          8           0        0.000000    0.121036    0.000000
      2          1           0        0.763708   -0.464330    0.000000
      3          1           0       -0.763708   -0.503955    0.000000
 ---------------------------------------------------------------------

 SCF Done:  E(RB2PLYPD3) =  -76.3338165298     A.U. after   10 cycles
 E2(B2PLYPD3) =    -0.9056338273D-01 E(B2PLYPD3) =    -0.76424379912535D+02

 The electronic state is 1-A'.
 Alpha  occ. eigenvalues --  -19.73437  -1.15054  -0.60304  -0.47519  -0.39871
 Alpha virt. eigenvalues --    0.04324   0.10079   0.27639   0.30444   0.30488
 Alpha virt. eigenvalues --    0.35454   0.43562   0.49855   0.56269   0.61641
 Alpha virt. eigenvalues --    0.66049   0.80838   0.93453   0.96230   1.02396

 Mulliken charges:
               1
     1  O   -0.451418
     2  H    0.220749
     3  H    0.230669
 Sum of Mulliken charges =   0.00000

 Dipole moment (field-independent basis, Debye):
    X=              0.0129    Y=             -1.9939    Z=              0.0000  Tot=              1.9940
 Quadrupole moment (field-independent basis, Debye-Ang):
   XX=             -4.3669   YY=             -6.2904   ZZ=             -7.6265
   XY=              0.0643   XZ=              0.0000   YZ=              0.0000

 1\1\GINC-NODE02\SP\RB2PLYPD3-FC\def2QZVP\H2O1\BOITTIER\26-Aug-2020\0\\
 #p B2PLYPD3/Def2QZVP\\h2o\\0,1\O,0,-5.326605,-0.767675,0.915305\H,0,-4
 .368927,-0.701096,0.981055\H,0,-5.609308,0.167945,0.779076\\Version=ES
 64L-G09RevD.01\State=1-A'\HF=-76.3338165\MP2=-76.4243799\RMSD=4.324e-0
 9\PG=CS [SG(H2O1)]\\@

 SUCCESS IS COUNTED SWEETEST

 Normal termination of Gaussian 09 at Wed Aug 26 09:20:42 2020.
