 Gaussian 09, Revision D.01,
 Gaussian 09:  ES64L-G09RevD.01 24-Apr-2013

 --------------------
 #p B2PLYPD3/Def2QZVP
 --------------------

 ---
 h2o
 ---
 Symbolic Z-matrix:
 Charge =  0 Multiplicity = 1

                         Standard orientation:
 ---------------------------------------------------------------------
 Center     Atomic      Atomic             Coordinates (Angstroms)
 Number     Number       Type             X           Y           Z
 ---------------------------------------------------------------------
      1          8           0        0.000000    0.118121    0.000000
      2          1           0        0.761016   -0.465841    0.000000
      3          1           0       -0.761016   -0.479130    0.000000
 ---------------------------------------------------------------------

 SCF Done:  E(RB2PLYPD3) =  -76.3348991849     A.U. after   10 cycles
 E2(B2PLYPD3) =    -0.9015386021D-01 E(B2PLYPD3) =    -0.76425053045140D+02

 The electronic state is 1-A'.
 Alpha  occ. eigenvalues --  -19.73216  -1.15482  -0.61015  -0.47454  -0.39934
 Alpha virt. eigenvalues --    0.04480   0.10170   0.27549   0.30422   0.30867
 Alpha virt. eigenvalues --    0.35750   0.43847   0.50165   0.56245   0.62064
 Alpha virt. eigenvalues --    0.65753   0.81057   0.93725   0.96021   1.03459

 Mulliken charges:
               1
     1  O   -0.446057
     2  H    0.221264
     3  H    0.224794
 Sum of Mulliken charges =   0.00000

 Dipole moment (field-independent basis, Debye):
    X=              0.0042    Y=             -1.9686    Z=              0.0000  Tot=              1.9686
 Quadrupole moment (field-independent basis, Debye-Ang):
   XX=             -4.3395   YY=             -6.3204   ZZ=             -7.6034
   XY=              0.0218   XZ=              0.0000   YZ=              0.0000

 1\1\GINC-NODE01\SP\RB2PLYPD3-FC\def2QZVP\H2O1\BOITTIER\26-Aug-2020\0\\
 #p B2PLYPD3/Def2QZVP\\h2o\\0,1\O,0,-5.326605,-0.765419,0.918219\H,0,-4
 .368927,-0.717018,0.944056\H,0,-5.609308,0.147765,0.769799\\Version=ES
 64L-G09RevD.01\State=1-A'\HF=-76.3348992\MP2=-76.425053\RMSD=4.078e-09
 \PG=CS [SG(H2O1)]\\@

 THE DIFFERENCE BETWEEN A NOOSE AND A HALO IS ONLY 12 INCHES.

 Normal termination of Gaussian 09 at Wed Aug 26 10:50:00 2020.
