 Gaussian 09, Revision D.01,
 Gaussian 09:  ES64L-G09RevD.01 24-Apr-2013

 --------------------
 #p B2PLYPD3/Def2QZVP
 --------------------

 ---
 h2o
 ---
 Symbolic Z-matrix:
 Charge =  0 Multiplicity = 1

                         Standard orientation:
 ---------------------------------------------------------------------
 Center     Atomic      Atomic             Coordinates (Angstroms)
 Number     Number       Type             X           Y           Z
 ---------------------------------------------------------------------
      1          8           0        0.000000    0.114531    0.000000
      2          1           0        0.711518   -0.539959    0.000000
      3          1           0       -0.711518   -0.376286    0.000000
 ---------------------------------------------------------------------

 SCF Done:  E(RB2PLYPD3) =  -76.3253241580     A.U. after   10 cycles
 E2(B2PLYPD3) =    -0.8866844242D-01 E(B2PLYPD3) =    -0.76413992600466D+02

 The electronic state is 1-A'.
 Alpha  occ. eigenvalues --  -19.72428  -1.18244  -0.62947  -0.48368  -0.40412
 Alpha virt. eigenvalues --    0.04834   0.10639   0.27169   0.30291   0.31208
 Alpha virt. eigenvalues --    0.38042   0.45631   0.50326   0.56937   0.62026
 Alpha virt. eigenvalues --    0.64505   0.82102   0.94200   0.95388   1.05156

 Mulliken charges:
               1
     1  O   -0.390898
     2  H    0.225388
     3  H    0.165509
 Sum of Mulliken charges =   0.00000

 Dipole moment (field-independent basis, Debye):
    X=             -0.0545    Y=             -1.9600    Z=              0.0000  Tot=              1.9607
 Quadrupole moment (field-independent basis, Debye-Ang):
   XX=             -4.5202   YY=             -6.2136   ZZ=             -7.4875
   XY=             -0.2530   XZ=              0.0000   YZ=              0.0000

 1\1\GINC-NODE01\SP\RB2PLYPD3-FC\def2QZVP\H2O1\BOITTIER\26-Aug-2020\0\\
 #p B2PLYPD3/Def2QZVP\\h2o\\0,1\O,0,-5.326605,-0.760215,0.92921\H,0,-4.
 368927,-0.680199,0.82402\H,0,-5.609308,0.027687,0.713693\\Version=ES64
 L-G09RevD.01\State=1-A'\HF=-76.3253242\MP2=-76.4139926\RMSD=6.748e-09\
 PG=CS [SG(H2O1)]\\@

       THE DEATH-KNELL OF THE ATOM

 Normal termination of Gaussian 09 at Wed Aug 26 09:26:03 2020.
