 Gaussian 09, Revision D.01,
 Gaussian 09:  ES64L-G09RevD.01 24-Apr-2013

 --------------------
 #p B2PLYPD3/Def2QZVP
 --------------------

 ---
 h2o
 ---
 Symbolic Z-matrix:
 Charge =  0 Multiplicity = 1

                         Standard orientation:
 ---------------------------------------------------------------------
 Center     Atomic      Atomic             Coordinates (Angstroms)
 Number     Number       Type             X           Y           Z
 ---------------------------------------------------------------------
      1          8           0        0.000000    0.117986    0.000000
      2          1           0        0.760697   -0.466151    0.000000
      3          1           0       -0.760697   -0.477739    0.000000
 ---------------------------------------------------------------------

 SCF Done:  E(RB2PLYPD3) =  -76.3349410165     A.U. after   10 cycles
 E2(B2PLYPD3) =    -0.9013058211D-01 E(B2PLYPD3) =    -0.76425071598566D+02

 The electronic state is 1-A'.
 Alpha  occ. eigenvalues --  -19.73203  -1.15510  -0.61053  -0.47456  -0.39939
 Alpha virt. eigenvalues --    0.04488   0.10175   0.27544   0.30421   0.30886
 Alpha virt. eigenvalues --    0.35773   0.43865   0.50178   0.56247   0.62081
 Alpha virt. eigenvalues --    0.65736   0.81072   0.93742   0.96008   1.03518

 Mulliken charges:
               1
     1  O   -0.445643
     2  H    0.221276
     3  H    0.224366
 Sum of Mulliken charges =   0.00000

 Dipole moment (field-independent basis, Debye):
    X=              0.0036    Y=             -1.9675    Z=              0.0000  Tot=              1.9675
 Quadrupole moment (field-independent basis, Debye-Ang):
   XX=             -4.3392   YY=             -6.3212   ZZ=             -7.6020
   XY=              0.0190   XZ=              0.0000   YZ=              0.0000

 1\1\GINC-NODE29\SP\RB2PLYPD3-FC\def2QZVP\H2O1\BOITTIER\26-Aug-2020\0\\
 #p B2PLYPD3/Def2QZVP\\h2o\\0,1\O,0,-5.326605,-0.765278,0.91859\H,0,-4.
 368927,-0.717741,0.940244\H,0,-5.609308,0.146239,0.767712\\Version=ES6
 4L-G09RevD.01\State=1-A'\HF=-76.334941\MP2=-76.4250716\RMSD=4.072e-09\
 PG=CS [SG(H2O1)]\\@

 Money is a good servant but a bad master.

 Normal termination of Gaussian 09 at Wed Aug 26 09:08:05 2020.
