 Gaussian 09, Revision D.01,
 Gaussian 09:  ES64L-G09RevD.01 24-Apr-2013

 --------------------
 #p B2PLYPD3/Def2QZVP
 --------------------

 ---
 h2o
 ---
 Symbolic Z-matrix:
 Charge =  0 Multiplicity = 1

                         Standard orientation:
 ---------------------------------------------------------------------
 Center     Atomic      Atomic             Coordinates (Angstroms)
 Number     Number       Type             X           Y           Z
 ---------------------------------------------------------------------
      1          8           0        0.000000    0.120572    0.000000
      2          1           0        0.790917   -0.426201    0.000000
      3          1           0       -0.790917   -0.538378    0.000000
 ---------------------------------------------------------------------

 SCF Done:  E(RB2PLYPD3) =  -76.3297040365     A.U. after   10 cycles
 E2(B2PLYPD3) =    -0.9119361856D-01 E(B2PLYPD3) =    -0.76420897655053D+02

 The electronic state is 1-A'.
 Alpha  occ. eigenvalues --  -19.73637  -1.14049  -0.59806  -0.46791  -0.39651
 Alpha virt. eigenvalues --    0.04056   0.09836   0.27694   0.29955   0.30499
 Alpha virt. eigenvalues --    0.34416   0.43107   0.50086   0.55614   0.62165
 Alpha virt. eigenvalues --    0.66450   0.80067   0.92149   0.96643   1.01263

 Mulliken charges:
               1
     1  O   -0.468586
     2  H    0.221988
     3  H    0.246598
 Sum of Mulliken charges =   0.00000

 Dipole moment (field-independent basis, Debye):
    X=              0.0339    Y=             -1.9720    Z=              0.0000  Tot=              1.9723
 Quadrupole moment (field-independent basis, Debye-Ang):
   XX=             -4.2249   YY=             -6.3580   ZZ=             -7.6769
   XY=              0.1901   XZ=              0.0000   YZ=              0.0000

 1\1\GINC-NODE33\SP\RB2PLYPD3-FC\def2QZVP\H2O1\BOITTIER\26-Aug-2020\0\\
 #p B2PLYPD3/Def2QZVP\\h2o\\0,1\O,0,-5.326605,-0.767476,0.913141\H,0,-4
 .368927,-0.752013,0.997549\H,0,-5.609308,0.215677,0.798015\\Version=ES
 64L-G09RevD.01\State=1-A'\HF=-76.329704\MP2=-76.4208977\RMSD=5.531e-09
 \PG=CS [SG(H2O1)]\\@

 CHINESE FORTUNE COOKIE OF JAN 1 1967 SAY....

 Normal termination of Gaussian 09 at Wed Aug 26 09:04:04 2020.
