 Gaussian 09, Revision D.01,
 Gaussian 09:  ES64L-G09RevD.01 24-Apr-2013

 --------------------
 #p B2PLYPD3/Def2QZVP
 --------------------

 ---
 h2o
 ---
 Symbolic Z-matrix:
 Charge =  0 Multiplicity = 1

                         Standard orientation:
 ---------------------------------------------------------------------
 Center     Atomic      Atomic             Coordinates (Angstroms)
 Number     Number       Type             X           Y           Z
 ---------------------------------------------------------------------
      1          8           0        0.000000    0.115347    0.000000
      2          1           0        0.776845   -0.444770    0.000000
      3          1           0       -0.776845   -0.478010    0.000000
 ---------------------------------------------------------------------

 SCF Done:  E(RB2PLYPD3) =  -76.3344340002     A.U. after   10 cycles
 E2(B2PLYPD3) =    -0.9022448987D-01 E(B2PLYPD3) =    -0.76424658490032D+02

 The electronic state is 1-A'.
 Alpha  occ. eigenvalues --  -19.73177  -1.15117  -0.61264  -0.46931  -0.39837
 Alpha virt. eigenvalues --    0.04469   0.10087   0.27530   0.30441   0.31002
 Alpha virt. eigenvalues --    0.35165   0.43724   0.50610   0.55819   0.62766
 Alpha virt. eigenvalues --    0.65803   0.80757   0.93336   0.96173   1.03603

 Mulliken charges:
               1
     1  O   -0.454697
     2  H    0.223109
     3  H    0.231589
 Sum of Mulliken charges =   0.00000

 Dipole moment (field-independent basis, Debye):
    X=              0.0096    Y=             -1.9328    Z=              0.0000  Tot=              1.9328
 Quadrupole moment (field-independent basis, Debye-Ang):
   XX=             -4.2235   YY=             -6.3948   ZZ=             -7.6180
   XY=              0.0567   XZ=              0.0000   YZ=              0.0000

 1\1\GINC-NODE26\SP\RB2PLYPD3-FC\def2QZVP\H2O1\BOITTIER\26-Aug-2020\0\\
 #p B2PLYPD3/Def2QZVP\\h2o\\0,1\O,0,-5.326605,-0.763434,0.918839\H,0,-4
 .368927,-0.762576,0.927276\H,0,-5.609308,0.161571,0.7774\\Version=ES64
 L-G09RevD.01\State=1-A'\HF=-76.334434\MP2=-76.4246585\RMSD=4.061e-09\P
 G=CS [SG(H2O1)]\\@

 DEFINE YOUR TERMS, YOU WILL PERMIT ME AGAIN TO SAY,

 Normal termination of Gaussian 09 at Wed Aug 26 10:37:20 2020.
