 Gaussian 09, Revision D.01,
 Gaussian 09:  ES64L-G09RevD.01 24-Apr-2013

 --------------------
 #p B2PLYPD3/Def2QZVP
 --------------------

 ---
 h2o
 ---
 Symbolic Z-matrix:
 Charge =  0 Multiplicity = 1

                         Standard orientation:
 ---------------------------------------------------------------------
 Center     Atomic      Atomic             Coordinates (Angstroms)
 Number     Number       Type             X           Y           Z
 ---------------------------------------------------------------------
      1          8           0        0.000000    0.114724    0.000000
      2          1           0        0.731050   -0.508721    0.000000
      3          1           0       -0.731050   -0.409070    0.000000
 ---------------------------------------------------------------------

 SCF Done:  E(RB2PLYPD3) =  -76.3320462110     A.U. after   10 cycles
 E2(B2PLYPD3) =    -0.8909114648D-01 E(B2PLYPD3) =    -0.76421137357503D+02

 The electronic state is 1-A'.
 Alpha  occ. eigenvalues --  -19.72670  -1.17232  -0.62478  -0.47976  -0.40242
 Alpha virt. eigenvalues --    0.04784   0.10486   0.27307   0.30334   0.31288
 Alpha virt. eigenvalues --    0.37310   0.44948   0.50384   0.56676   0.62214
 Alpha virt. eigenvalues --    0.64891   0.81836   0.94347   0.95441   1.05161

 Mulliken charges:
               1
     1  O   -0.413758
     2  H    0.223217
     3  H    0.190541
 Sum of Mulliken charges =   0.00000

 Dipole moment (field-independent basis, Debye):
    X=             -0.0319    Y=             -1.9526    Z=              0.0000  Tot=              1.9529
 Quadrupole moment (field-independent basis, Debye-Ang):
   XX=             -4.4348   YY=             -6.2752   ZZ=             -7.5250
   XY=             -0.1588   XZ=              0.0000   YZ=              0.0000

 1\1\GINC-NODE03\SP\RB2PLYPD3-FC\def2QZVP\H2O1\BOITTIER\26-Aug-2020\0\\
 #p B2PLYPD3/Def2QZVP\\h2o\\0,1\O,0,-5.326605,-0.762193,0.923067\H,0,-4
 .368927,-0.694815,0.88524\H,0,-5.609308,0.073949,0.750613\\Version=ES6
 4L-G09RevD.01\State=1-A'\HF=-76.3320462\MP2=-76.4211374\RMSD=6.115e-09
 \PG=CS [SG(H2O1)]\\@

 WHERE THERE IS MUCH DESIRE TO LEARN, THERE OF NECESSITY WILL BE

 Normal termination of Gaussian 09 at Wed Aug 26 08:33:16 2020.
