 Gaussian 09, Revision D.01,
 Gaussian 09:  ES64L-G09RevD.01 24-Apr-2013

 --------------------
 #p B2PLYPD3/Def2QZVP
 --------------------

 ---
 h2o
 ---
 Symbolic Z-matrix:
 Charge =  0 Multiplicity = 1

                         Standard orientation:
 ---------------------------------------------------------------------
 Center     Atomic      Atomic             Coordinates (Angstroms)
 Number     Number       Type             X           Y           Z
 ---------------------------------------------------------------------
      1          8           0        0.000000    0.122271    0.000000
      2          1           0        0.754009   -0.475764    0.000000
      3          1           0       -0.754009   -0.502401    0.000000
 ---------------------------------------------------------------------

 SCF Done:  E(RB2PLYPD3) =  -76.3341094797     A.U. after   10 cycles
 E2(B2PLYPD3) =    -0.9048224491D-01 E(B2PLYPD3) =    -0.76424591724586D+02

 The electronic state is 1-A'.
 Alpha  occ. eigenvalues --  -19.73433  -1.15314  -0.60230  -0.47818  -0.39933
 Alpha virt. eigenvalues --    0.04345   0.10138   0.27641   0.30431   0.30468
 Alpha virt. eigenvalues --    0.35802   0.43661   0.49678   0.56518   0.61297
 Alpha virt. eigenvalues --    0.65986   0.80999   0.93762   0.96141   1.02452

 Mulliken charges:
               1
     1  O   -0.446123
     2  H    0.219626
     3  H    0.226498
 Sum of Mulliken charges =   0.00000

 Dipole moment (field-independent basis, Debye):
    X=              0.0091    Y=             -2.0111    Z=              0.0000  Tot=              2.0111
 Quadrupole moment (field-independent basis, Debye-Ang):
   XX=             -4.4313   YY=             -6.2506   ZZ=             -7.6158
   XY=              0.0422   XZ=              0.0000   YZ=              0.0000

 1\1\GINC-NODE37\SP\RB2PLYPD3-FC\def2QZVP\H2O1\BOITTIER\26-Aug-2020\0\\
 #p B2PLYPD3/Def2QZVP\\h2o\\0,1\O,0,-5.326605,-0.765808,0.929152\H,0,-4
 .368927,-0.701102,0.859579\H,0,-5.609308,0.13808,0.680536\\Version=ES6
 4L-G09RevD.01\State=1-A'\HF=-76.3341095\MP2=-76.4245917\RMSD=4.337e-09
 \PG=CS [SG(H2O1)]\\@

 Other things may change us, but we start and end with family.

 Normal termination of Gaussian 09 at Wed Aug 26 08:40:36 2020.
