 Gaussian 09, Revision D.01,
 Gaussian 09:  ES64L-G09RevD.01 24-Apr-2013

 --------------------
 #p B2PLYPD3/Def2QZVP
 --------------------

 ---
 h2o
 ---
 Symbolic Z-matrix:
 Charge =  0 Multiplicity = 1

                         Standard orientation:
 ---------------------------------------------------------------------
 Center     Atomic      Atomic             Coordinates (Angstroms)
 Number     Number       Type             X           Y           Z
 ---------------------------------------------------------------------
      1          8           0        0.000000    0.118205    0.000000
      2          1           0        0.753834   -0.475900    0.000000
      3          1           0       -0.753834   -0.469737    0.000000
 ---------------------------------------------------------------------

 SCF Done:  E(RB2PLYPD3) =  -76.3351005018     A.U. after   10 cycles
 E2(B2PLYPD3) =    -0.8999332014D-01 E(B2PLYPD3) =    -0.76425093821980D+02

 The electronic state is 1-A'.
 Alpha  occ. eigenvalues --  -19.73153  -1.15778  -0.61156  -0.47635  -0.39994
 Alpha virt. eigenvalues --    0.04529   0.10231   0.27523   0.30407   0.30926
 Alpha virt. eigenvalues --    0.36081   0.44001   0.50113   0.56399   0.61941
 Alpha virt. eigenvalues --    0.65631   0.81223   0.93952   0.95899   1.03750

 Mulliken charges:
               1
     1  O   -0.440673
     2  H    0.221185
     3  H    0.219488
 Sum of Mulliken charges =   0.00000

 Dipole moment (field-independent basis, Debye):
    X=             -0.0020    Y=             -1.9736    Z=              0.0000  Tot=              1.9736
 Quadrupole moment (field-independent basis, Debye-Ang):
   XX=             -4.3754   YY=             -6.3007   ZZ=             -7.5901
   XY=             -0.0100   XZ=              0.0000   YZ=              0.0000

 1\1\GINC-NODE29\SP\RB2PLYPD3-FC\def2QZVP\H2O1\BOITTIER\26-Aug-2020\0\\
 #p B2PLYPD3/Def2QZVP\\h2o\\0,1\O,0,-5.326605,-0.764209,0.924872\H,0,-4
 .368927,-0.715365,0.883716\H,0,-5.609308,0.126747,0.724328\\Version=ES
 64L-G09RevD.01\State=1-A'\HF=-76.3351005\MP2=-76.4250938\RMSD=4.164e-0
 9\PG=CS [SG(H2O1)]\\@

 THE TRULY SUCCESSFUL PERFORMANCE OF RESEARCHES IN

 Normal termination of Gaussian 09 at Wed Aug 26 08:31:28 2020.
