 Gaussian 09, Revision D.01,
 Gaussian 09:  ES64L-G09RevD.01 24-Apr-2013

 --------------------
 #p B2PLYPD3/Def2QZVP
 --------------------

 ---
 h2o
 ---
 Symbolic Z-matrix:
 Charge =  0 Multiplicity = 1

                         Standard orientation:
 ---------------------------------------------------------------------
 Center     Atomic      Atomic             Coordinates (Angstroms)
 Number     Number       Type             X           Y           Z
 ---------------------------------------------------------------------
      1          8           0        0.000000    0.116960    0.000000
      2          1           0        0.738011   -0.510122    0.000000
      3          1           0       -0.738011   -0.425555    0.000000
 ---------------------------------------------------------------------

 SCF Done:  E(RB2PLYPD3) =  -76.3334806970     A.U. after   10 cycles
 E2(B2PLYPD3) =    -0.8949728899D-01 E(B2PLYPD3) =    -0.76422977985988D+02

 The electronic state is 1-A'.
 Alpha  occ. eigenvalues --  -19.72901  -1.16641  -0.61791  -0.47929  -0.40146
 Alpha virt. eigenvalues --    0.04656   0.10391   0.27408   0.30365   0.31052
 Alpha virt. eigenvalues --    0.36882   0.44551   0.50173   0.56632   0.61944
 Alpha virt. eigenvalues --    0.65209   0.81594   0.94208   0.95633   1.04381

 Mulliken charges:
               1
     1  O   -0.424645
     2  H    0.225232
     3  H    0.199414
 Sum of Mulliken charges =   0.00000

 Dipole moment (field-independent basis, Debye):
    X=             -0.0275    Y=             -1.9702    Z=              0.0000  Tot=              1.9704
 Quadrupole moment (field-independent basis, Debye-Ang):
   XX=             -4.4330   YY=             -6.2693   ZZ=             -7.5525
   XY=             -0.1346   XZ=              0.0000   YZ=              0.0000

 1\1\GINC-NODE14\SP\RB2PLYPD3-FC\def2QZVP\H2O1\BOITTIER\26-Aug-2020\0\\
 #p B2PLYPD3/Def2QZVP\\h2o\\0,1\O,0,-5.326605,-0.760415,0.933196\H,0,-4
 .368927,-0.722941,0.794129\H,0,-5.609308,0.07363,0.681344\\Version=ES6
 4L-G09RevD.01\State=1-A'\HF=-76.3334807\MP2=-76.422978\RMSD=5.590e-09\
 PG=CS [SG(H2O1)]\\@

 ABALONE: AN EXPRESSION OF DISBELIEF.

 Normal termination of Gaussian 09 at Wed Aug 26 08:49:31 2020.
