 Gaussian 09, Revision D.01,
 Gaussian 09:  ES64L-G09RevD.01 24-Apr-2013

 --------------------
 #p B2PLYPD3/Def2QZVP
 --------------------

 ---
 h2o
 ---
 Symbolic Z-matrix:
 Charge =  0 Multiplicity = 1

                         Standard orientation:
 ---------------------------------------------------------------------
 Center     Atomic      Atomic             Coordinates (Angstroms)
 Number     Number       Type             X           Y           Z
 ---------------------------------------------------------------------
      1          8           0        0.000000    0.114287    0.000000
      2          1           0        0.740560   -0.495825    0.000000
      3          1           0       -0.740560   -0.418467    0.000000
 ---------------------------------------------------------------------

 SCF Done:  E(RB2PLYPD3) =  -76.3335581537     A.U. after   10 cycles
 E2(B2PLYPD3) =    -0.8925263103D-01 E(B2PLYPD3) =    -0.76422810784733D+02

 The electronic state is 1-A'.
 Alpha  occ. eigenvalues --  -19.72742  -1.16833  -0.62368  -0.47737  -0.40167
 Alpha virt. eigenvalues --    0.04759   0.10417   0.27346   0.30352   0.31323
 Alpha virt. eigenvalues --    0.36914   0.44712   0.50486   0.56495   0.62416
 Alpha virt. eigenvalues --    0.65034   0.81688   0.94263   0.95518   1.05130

 Mulliken charges:
               1
     1  O   -0.422224
     2  H    0.223240
     3  H    0.198984
 Sum of Mulliken charges =   0.00000

 Dipole moment (field-independent basis, Debye):
    X=             -0.0240    Y=             -1.9434    Z=              0.0000  Tot=              1.9435
 Quadrupole moment (field-independent basis, Debye-Ang):
   XX=             -4.3846   YY=             -6.3084   ZZ=             -7.5405
   XY=             -0.1254   XZ=              0.0000   YZ=              0.0000

 1\1\GINC-NODE40\SP\RB2PLYPD3-FC\def2QZVP\H2O1\BOITTIER\26-Aug-2020\0\\
 #p B2PLYPD3/Def2QZVP\\h2o\\0,1\O,0,-5.326605,-0.762027,0.922458\H,0,-4
 .368927,-0.712882,0.889242\H,0,-5.609308,0.089352,0.756662\\Version=ES
 64L-G09RevD.01\State=1-A'\HF=-76.3335582\MP2=-76.4228108\RMSD=5.511e-0
 9\PG=CS [SG(H2O1)]\\@

 THE MORE PROGRESS PHYSICAL SCIENCES MAKE, THE MORE THEY TEND TO ENTER

 Normal termination of Gaussian 09 at Wed Aug 26 11:43:44 2020.
