 Gaussian 09, Revision D.01,
 Gaussian 09:  ES64L-G09RevD.01 24-Apr-2013

 --------------------
 #p B2PLYPD3/Def2QZVP
 --------------------

 ---
 h2o
 ---
 Symbolic Z-matrix:
 Charge =  0 Multiplicity = 1

                         Standard orientation:
 ---------------------------------------------------------------------
 Center     Atomic      Atomic             Coordinates (Angstroms)
 Number     Number       Type             X           Y           Z
 ---------------------------------------------------------------------
      1          8           0        0.000000    0.115871    0.000000
      2          1           0        0.738619   -0.497552    0.000000
      3          1           0       -0.738619   -0.429413    0.000000
 ---------------------------------------------------------------------

 SCF Done:  E(RB2PLYPD3) =  -76.3339360135     A.U. after   10 cycles
 E2(B2PLYPD3) =    -0.8938178830D-01 E(B2PLYPD3) =    -0.76423317801835D+02

 The electronic state is 1-A'.
 Alpha  occ. eigenvalues --  -19.72834  -1.16732  -0.62036  -0.47873  -0.40159
 Alpha virt. eigenvalues --    0.04711   0.10406   0.27384   0.30359   0.31205
 Alpha virt. eigenvalues --    0.36924   0.44607   0.50292   0.56601   0.62115
 Alpha virt. eigenvalues --    0.65137   0.81651   0.94312   0.95552   1.04846

 Mulliken charges:
               1
     1  O   -0.423698
     2  H    0.222388
     3  H    0.201310
 Sum of Mulliken charges =   0.00000

 Dipole moment (field-independent basis, Debye):
    X=             -0.0218    Y=             -1.9598    Z=              0.0000  Tot=              1.9599
 Quadrupole moment (field-independent basis, Debye-Ang):
   XX=             -4.4154   YY=             -6.2855   ZZ=             -7.5465
   XY=             -0.1092   XZ=              0.0000   YZ=              0.0000

 1\1\GINC-NODE06\SP\RB2PLYPD3-FC\def2QZVP\H2O1\BOITTIER\26-Aug-2020\0\\
 #p B2PLYPD3/Def2QZVP\\h2o\\0,1\O,0,-5.326605,-0.763296,0.921694\H,0,-4
 .368927,-0.697333,0.903035\H,0,-5.609308,0.094107,0.754864\\Version=ES
 64L-G09RevD.01\State=1-A'\HF=-76.333936\MP2=-76.4233178\RMSD=5.303e-09
 \PG=CS [SG(H2O1)]\\@

 You can't act like a skunk without someone's getting wind of it.

 Normal termination of Gaussian 09 at Wed Aug 26 08:29:47 2020.
