 Gaussian 09, Revision D.01,
 Gaussian 09:  ES64L-G09RevD.01 24-Apr-2013

 --------------------
 #p B2PLYPD3/Def2QZVP
 --------------------

 ---
 h2o
 ---
 Symbolic Z-matrix:
 Charge =  0 Multiplicity = 1

                         Standard orientation:
 ---------------------------------------------------------------------
 Center     Atomic      Atomic             Coordinates (Angstroms)
 Number     Number       Type             X           Y           Z
 ---------------------------------------------------------------------
      1          8           0        0.000000    0.118074    0.000000
      2          1           0        0.774078   -0.446391    0.000000
      3          1           0       -0.774078   -0.498204    0.000000
 ---------------------------------------------------------------------

 SCF Done:  E(RB2PLYPD3) =  -76.3337720121     A.U. after   10 cycles
 E2(B2PLYPD3) =    -0.9046805175D-01 E(B2PLYPD3) =    -0.76424240063831D+02

 The electronic state is 1-A'.
 Alpha  occ. eigenvalues --  -19.73332  -1.14950  -0.60728  -0.47123  -0.39824
 Alpha virt. eigenvalues --    0.04367   0.10053   0.27591   0.30451   0.30688
 Alpha virt. eigenvalues --    0.35168   0.43582   0.50258   0.55954   0.62279
 Alpha virt. eigenvalues --    0.65977   0.80709   0.93222   0.96257   1.02799

 Mulliken charges:
               1
     1  O   -0.455463
     2  H    0.221293
     3  H    0.234171
 Sum of Mulliken charges =   0.00000

 Dipole moment (field-independent basis, Debye):
    X=              0.0157    Y=             -1.9601    Z=              0.0000  Tot=              1.9602
 Quadrupole moment (field-independent basis, Debye-Ang):
   XX=             -4.2746   YY=             -6.3531   ZZ=             -7.6287
   XY=              0.0867   XZ=              0.0000   YZ=              0.0000

 1\1\GINC-NODE39\SP\RB2PLYPD3-FC\def2QZVP\H2O1\BOITTIER\26-Aug-2020\0\\
 #p B2PLYPD3/Def2QZVP\\h2o\\0,1\O,0,-5.326605,-0.765196,0.919619\H,0,-4
 .368927,-0.742348,0.931844\H,0,-5.609308,0.169524,0.760328\\Version=ES
 64L-G09RevD.01\State=1-A'\HF=-76.333772\MP2=-76.4242401\RMSD=4.393e-09
 \PG=CS [SG(H2O1)]\\@

 THE ONLY DIFFERENCE BETWEEN ECCENTRICS AND JOGGERS

 Normal termination of Gaussian 09 at Wed Aug 26 10:46:56 2020.
