 Gaussian 09, Revision D.01,
 Gaussian 09:  ES64L-G09RevD.01 24-Apr-2013

 --------------------
 #p B2PLYPD3/Def2QZVP
 --------------------

 ---
 h2o
 ---
 Symbolic Z-matrix:
 Charge =  0 Multiplicity = 1

                         Standard orientation:
 ---------------------------------------------------------------------
 Center     Atomic      Atomic             Coordinates (Angstroms)
 Number     Number       Type             X           Y           Z
 ---------------------------------------------------------------------
      1          8           0        0.000000    0.115028    0.000000
      2          1           0        0.764651   -0.461888    0.000000
      3          1           0       -0.764651   -0.458338    0.000000
 ---------------------------------------------------------------------

 SCF Done:  E(RB2PLYPD3) =  -76.3351943573     A.U. after   10 cycles
 E2(B2PLYPD3) =    -0.8989045269D-01 E(B2PLYPD3) =    -0.76425084809979D+02

 The electronic state is 1-A'.
 Alpha  occ. eigenvalues --  -19.73040  -1.15664  -0.61631  -0.47214  -0.39947
 Alpha virt. eigenvalues --    0.04585   0.10201   0.27479   0.30412   0.31169
 Alpha virt. eigenvalues --    0.35746   0.44020   0.50554   0.56067   0.62633
 Alpha virt. eigenvalues --    0.65553   0.81112   0.93756   0.95928   1.04318

 Mulliken charges:
               1
     1  O   -0.444791
     2  H    0.222880
     3  H    0.221911
 Sum of Mulliken charges =   0.00000

 Dipole moment (field-independent basis, Debye):
    X=             -0.0011    Y=             -1.9371    Z=              0.0000  Tot=              1.9371
 Quadrupole moment (field-independent basis, Debye-Ang):
   XX=             -4.2793   YY=             -6.3675   ZZ=             -7.5919
   XY=             -0.0060   XZ=              0.0000   YZ=              0.0000

 1\1\GINC-NODE22\SP\RB2PLYPD3-FC\def2QZVP\H2O1\BOITTIER\26-Aug-2020\0\\
 #p B2PLYPD3/Def2QZVP\\h2o\\0,1\O,0,-5.326605,-0.763154,0.919218\H,0,-4
 .368927,-0.743994,0.922313\H,0,-5.609308,0.138497,0.775886\\Version=ES
 64L-G09RevD.01\State=1-A'\HF=-76.3351944\MP2=-76.4250848\RMSD=3.952e-0
 9\PG=CS [SG(H2O1)]\\@

 NOT WHAT WE DID SHALL BE THE TEST

 Normal termination of Gaussian 09 at Wed Aug 26 10:23:47 2020.
