 Gaussian 09, Revision D.01,
 Gaussian 09:  ES64L-G09RevD.01 24-Apr-2013

 --------------------
 #p B2PLYPD3/Def2QZVP
 --------------------

 ---
 h2o
 ---
 Symbolic Z-matrix:
 Charge =  0 Multiplicity = 1

                         Standard orientation:
 ---------------------------------------------------------------------
 Center     Atomic      Atomic             Coordinates (Angstroms)
 Number     Number       Type             X           Y           Z
 ---------------------------------------------------------------------
      1          8           0        0.000000    0.114522    0.000000
      2          1           0        0.704450   -0.548100    0.000000
      3          1           0       -0.704450   -0.368080    0.000000
 ---------------------------------------------------------------------

 SCF Done:  E(RB2PLYPD3) =  -76.3224571321     A.U. after   10 cycles
 E2(B2PLYPD3) =    -0.8852473229D-01 E(B2PLYPD3) =    -0.76410981864413D+02

 The electronic state is 1-A'.
 Alpha  occ. eigenvalues --  -19.72343  -1.18612  -0.63097  -0.48517  -0.40473
 Alpha virt. eigenvalues --    0.04849   0.10692   0.27118   0.30276   0.31191
 Alpha virt. eigenvalues --    0.38278   0.45872   0.50300   0.57033   0.61944
 Alpha virt. eigenvalues --    0.64383   0.82180   0.94147   0.95377   1.05220

 Mulliken charges:
               1
     1  O   -0.382299
     2  H    0.225369
     3  H    0.156931
 Sum of Mulliken charges =   0.00000

 Dipole moment (field-independent basis, Debye):
    X=             -0.0608    Y=             -1.9632    Z=              0.0000  Tot=              1.9642
 Quadrupole moment (field-independent basis, Debye-Ang):
   XX=             -4.5511   YY=             -6.1908   ZZ=             -7.4743
   XY=             -0.2751   XZ=              0.0000   YZ=              0.0000

 1\1\GINC-NODE18\SP\RB2PLYPD3-FC\def2QZVP\H2O1\BOITTIER\26-Aug-2020\0\\
 #p B2PLYPD3/Def2QZVP\\h2o\\0,1\O,0,-5.326605,-0.760536,0.928278\H,0,-4
 .368927,-0.664942,0.833242\H,0,-5.609308,0.017556,0.718979\\Version=ES
 64L-G09RevD.01\State=1-A'\HF=-76.3224571\MP2=-76.4109819\RMSD=6.598e-0
 9\PG=CS [SG(H2O1)]\\@

 ...THE PHYSICISTS HAVE MADE THEIR UNIVERSE, AND IF YOU DO NOT LIKE

 Normal termination of Gaussian 09 at Wed Aug 26 09:00:32 2020.
