 Gaussian 09, Revision D.01,
 Gaussian 09:  ES64L-G09RevD.01 24-Apr-2013

 --------------------
 #p B2PLYPD3/Def2QZVP
 --------------------

 ---
 h2o
 ---
 Symbolic Z-matrix:
 Charge =  0 Multiplicity = 1

                         Standard orientation:
 ---------------------------------------------------------------------
 Center     Atomic      Atomic             Coordinates (Angstroms)
 Number     Number       Type             X           Y           Z
 ---------------------------------------------------------------------
      1          8           0        0.000000    0.117746    0.000000
      2          1           0        0.764266   -0.462001    0.000000
      3          1           0       -0.764266   -0.479964    0.000000
 ---------------------------------------------------------------------

 SCF Done:  E(RB2PLYPD3) =  -76.3348108003     A.U. after   10 cycles
 E2(B2PLYPD3) =    -0.9018846814D-01 E(B2PLYPD3) =    -0.76424999268400D+02

 The electronic state is 1-A'.
 Alpha  occ. eigenvalues --  -19.73221  -1.15386  -0.61026  -0.47356  -0.39912
 Alpha virt. eigenvalues --    0.04471   0.10149   0.27550   0.30427   0.30875
 Alpha virt. eigenvalues --    0.35621   0.43807   0.50229   0.56163   0.62175
 Alpha virt. eigenvalues --    0.65779   0.80994   0.93634   0.96059   1.03432

 Mulliken charges:
               1
     1  O   -0.448029
     2  H    0.221655
     3  H    0.226374
 Sum of Mulliken charges =   0.00000

 Dipole moment (field-independent basis, Debye):
    X=              0.0056    Y=             -1.9631    Z=              0.0000  Tot=              1.9631
 Quadrupole moment (field-independent basis, Debye-Ang):
   XX=             -4.3184   YY=             -6.3333   ZZ=             -7.6075
   XY=              0.0297   XZ=              0.0000   YZ=              0.0000

 1\1\GINC-NODE38\SP\RB2PLYPD3-FC\def2QZVP\H2O1\BOITTIER\26-Aug-2020\0\\
 #p B2PLYPD3/Def2QZVP\\h2o\\0,1\O,0,-5.326605,-0.765309,0.916952\H,0,-4
 .368927,-0.723765,0.953497\H,0,-5.609308,0.152756,0.780587\\Version=ES
 64L-G09RevD.01\State=1-A'\HF=-76.3348108\MP2=-76.4249993\RMSD=4.058e-0
 9\PG=CS [SG(H2O1)]\\@

 I WANT IT ALL - RICH, THIN, AND CHOCOLATE.

 Normal termination of Gaussian 09 at Wed Aug 26 09:52:36 2020.
