 Gaussian 09, Revision D.01,
 Gaussian 09:  ES64L-G09RevD.01 24-Apr-2013

 --------------------
 #p B2PLYPD3/Def2QZVP
 --------------------

 ---
 h2o
 ---
 Symbolic Z-matrix:
 Charge =  0 Multiplicity = 1

                         Standard orientation:
 ---------------------------------------------------------------------
 Center     Atomic      Atomic             Coordinates (Angstroms)
 Number     Number       Type             X           Y           Z
 ---------------------------------------------------------------------
      1          8           0        0.000000    0.120103    0.000000
      2          1           0        0.760775   -0.472333    0.000000
      3          1           0       -0.760775   -0.488490    0.000000
 ---------------------------------------------------------------------

 SCF Done:  E(RB2PLYPD3) =  -76.3344719281     A.U. after   10 cycles
 E2(B2PLYPD3) =    -0.9038006849D-01 E(B2PLYPD3) =    -0.76424851996642D+02

 The electronic state is 1-A'.
 Alpha  occ. eigenvalues --  -19.73348  -1.15274  -0.60575  -0.47554  -0.39908
 Alpha virt. eigenvalues --    0.04395   0.10128   0.27604   0.30433   0.30652
 Alpha virt. eigenvalues --    0.35640   0.43689   0.49941   0.56312   0.61739
 Alpha virt. eigenvalues --    0.65922   0.80962   0.93644   0.96123   1.02848

 Mulliken charges:
               1
     1  O   -0.448380
     2  H    0.222106
     3  H    0.226274
 Sum of Mulliken charges =   0.00000

 Dipole moment (field-independent basis, Debye):
    X=              0.0052    Y=             -1.9872    Z=              0.0000  Tot=              1.9872
 Quadrupole moment (field-independent basis, Debye-Ang):
   XX=             -4.3682   YY=             -6.2953   ZZ=             -7.6151
   XY=              0.0262   XZ=              0.0000   YZ=              0.0000

 1\1\GINC-NODE12\SP\RB2PLYPD3-FC\def2QZVP\H2O1\BOITTIER\26-Aug-2020\0\\
 #p B2PLYPD3/Def2QZVP\\h2o\\0,1\O,0,-5.326605,-0.767181,0.912228\H,0,-4
 .368927,-0.7002,1.002373\H,0,-5.609308,0.159134,0.806471\\Version=ES64
 L-G09RevD.01\State=1-A'\HF=-76.3344719\MP2=-76.424852\RMSD=4.127e-09\P
 G=CS [SG(H2O1)]\\@

 WORK FAITHFULLY FOR EIGHT HOURS A DAY AND DON'T WORRY.

 Normal termination of Gaussian 09 at Wed Aug 26 08:08:04 2020.
