 Gaussian 09, Revision D.01,
 Gaussian 09:  ES64L-G09RevD.01 24-Apr-2013

 --------------------
 #p B2PLYPD3/Def2QZVP
 --------------------

 ---
 h2o
 ---
 Symbolic Z-matrix:
 Charge =  0 Multiplicity = 1

                         Standard orientation:
 ---------------------------------------------------------------------
 Center     Atomic      Atomic             Coordinates (Angstroms)
 Number     Number       Type             X           Y           Z
 ---------------------------------------------------------------------
      1          8           0        0.000000    0.117153    0.000000
      2          1           0        0.747930   -0.495188    0.000000
      3          1           0       -0.747930   -0.442039    0.000000
 ---------------------------------------------------------------------

 SCF Done:  E(RB2PLYPD3) =  -76.3346600891     A.U. after   10 cycles
 E2(B2PLYPD3) =    -0.8973988458D-01 E(B2PLYPD3) =    -0.76424399973708D+02

 The electronic state is 1-A'.
 Alpha  occ. eigenvalues --  -19.73019  -1.16163  -0.61528  -0.47715  -0.40059
 Alpha virt. eigenvalues --    0.04602   0.10304   0.27464   0.30388   0.31029
 Alpha virt. eigenvalues --    0.36422   0.44254   0.50201   0.56466   0.62040
 Alpha virt. eigenvalues --    0.65421   0.81397   0.94070   0.95767   1.04156

 Mulliken charges:
               1
     1  O   -0.433954
     2  H    0.224650
     3  H    0.209304
 Sum of Mulliken charges =   0.00000

 Dipole moment (field-independent basis, Debye):
    X=             -0.0170    Y=             -1.9668    Z=              0.0000  Tot=              1.9669
 Quadrupole moment (field-independent basis, Debye-Ang):
   XX=             -4.3890   YY=             -6.2961   ZZ=             -7.5724
   XY=             -0.0858   XZ=              0.0000   YZ=              0.0000

 1\1\GINC-NODE11\SP\RB2PLYPD3-FC\def2QZVP\H2O1\BOITTIER\26-Aug-2020\0\\
 #p B2PLYPD3/Def2QZVP\\h2o\\0,1\O,0,-5.326605,-0.760915,0.932397\H,0,-4
 .368927,-0.735304,0.803719\H,0,-5.609308,0.093992,0.684793\\Version=ES
 64L-G09RevD.01\State=1-A'\HF=-76.3346601\MP2=-76.4244\RMSD=4.779e-09\P
 G=CS [SG(H2O1)]\\@

 A MAN IS NEVER SO BRILLIANT AS WHEN HE TAKES THE WORDS RIGHT OUT

 Normal termination of Gaussian 09 at Wed Aug 26 09:15:50 2020.
