 Gaussian 09, Revision D.01,
 Gaussian 09:  ES64L-G09RevD.01 24-Apr-2013

 --------------------
 #p B2PLYPD3/Def2QZVP
 --------------------

 ---
 h2o
 ---
 Symbolic Z-matrix:
 Charge =  0 Multiplicity = 1

                         Standard orientation:
 ---------------------------------------------------------------------
 Center     Atomic      Atomic             Coordinates (Angstroms)
 Number     Number       Type             X           Y           Z
 ---------------------------------------------------------------------
      1          8           0        0.000000    0.118715    0.000000
      2          1           0        0.775763   -0.452671    0.000000
      3          1           0       -0.775763   -0.497048    0.000000
 ---------------------------------------------------------------------

 SCF Done:  E(RB2PLYPD3) =  -76.3335930354     A.U. after   10 cycles
 E2(B2PLYPD3) =    -0.9058114249D-01 E(B2PLYPD3) =    -0.76424174177915D+02

 The electronic state is 1-A'.
 Alpha  occ. eigenvalues --  -19.73391  -1.14811  -0.60549  -0.47117  -0.39802
 Alpha virt. eigenvalues --    0.04329   0.10023   0.27616   0.30458   0.30617
 Alpha virt. eigenvalues --    0.35050   0.43490   0.50191   0.55944   0.62194
 Alpha virt. eigenvalues --    0.66066   0.80637   0.93156   0.96304   1.02588

 Mulliken charges:
               1
     1  O   -0.457486
     2  H    0.223329
     3  H    0.234157
 Sum of Mulliken charges =   0.00000

 Dipole moment (field-independent basis, Debye):
    X=              0.0136    Y=             -1.9652    Z=              0.0000  Tot=              1.9652
 Quadrupole moment (field-independent basis, Debye-Ang):
   XX=             -4.2752   YY=             -6.3500   ZZ=             -7.6357
   XY=              0.0742   XZ=              0.0000   YZ=              0.0000

 1\1\GINC-NODE11\SP\RB2PLYPD3-FC\def2QZVP\H2O1\BOITTIER\26-Aug-2020\0\\
 #p B2PLYPD3/Def2QZVP\\h2o\\0,1\O,0,-5.326605,-0.766244,0.91041\H,0,-4.
 368927,-0.735371,1.01135\H,0,-5.609308,0.179317,0.826956\\Version=ES64
 L-G09RevD.01\State=1-A'\HF=-76.333593\MP2=-76.4241742\RMSD=4.243e-09\P
 G=CS [SG(H2O1)]\\@

 I CLAIM NOT TO HAVE CONTROLLED EVENTS,

 Normal termination of Gaussian 09 at Wed Aug 26 09:19:40 2020.
