 Gaussian 09, Revision D.01,
 Gaussian 09:  ES64L-G09RevD.01 24-Apr-2013

 --------------------
 #p B2PLYPD3/Def2QZVP
 --------------------

 ---
 h2o
 ---
 Symbolic Z-matrix:
 Charge =  0 Multiplicity = 1

                         Standard orientation:
 ---------------------------------------------------------------------
 Center     Atomic      Atomic             Coordinates (Angstroms)
 Number     Number       Type             X           Y           Z
 ---------------------------------------------------------------------
      1          8           0        0.000000    0.113597    0.000000
      2          1           0        0.729873   -0.514522    0.000000
      3          1           0       -0.729873   -0.394253    0.000000
 ---------------------------------------------------------------------

 SCF Done:  E(RB2PLYPD3) =  -76.3306245559     A.U. after   10 cycles
 E2(B2PLYPD3) =    -0.8895008176D-01 E(B2PLYPD3) =    -0.76419574637613D+02

 The electronic state is 1-A'.
 Alpha  occ. eigenvalues --  -19.72572  -1.17436  -0.62776  -0.47924  -0.40269
 Alpha virt. eigenvalues --    0.04819   0.10512   0.27261   0.30324   0.31332
 Alpha virt. eigenvalues --    0.37393   0.45118   0.50515   0.56626   0.62406
 Alpha virt. eigenvalues --    0.64767   0.81899   0.94252   0.95427   1.05221

 Mulliken charges:
               1
     1  O   -0.409381
     2  H    0.224876
     3  H    0.184505
 Sum of Mulliken charges =   0.00000

 Dipole moment (field-independent basis, Debye):
    X=             -0.0379    Y=             -1.9420    Z=              0.0000  Tot=              1.9424
 Quadrupole moment (field-independent basis, Debye-Ang):
   XX=             -4.4247   YY=             -6.2820   ZZ=             -7.5162
   XY=             -0.1925   XZ=              0.0000   YZ=              0.0000

 1\1\GINC-NODE23\SP\RB2PLYPD3-FC\def2QZVP\H2O1\BOITTIER\26-Aug-2020\0\\
 #p B2PLYPD3/Def2QZVP\\h2o\\0,1\O,0,-5.326605,-0.760199,0.927333\H,0,-4
 .368927,-0.711954,0.839167\H,0,-5.609308,0.059182,0.72904\\Version=ES6
 4L-G09RevD.01\State=1-A'\HF=-76.3306246\MP2=-76.4195746\RMSD=6.476e-09
 \PG=CS [SG(H2O1)]\\@

 ONLY A FOOL KNOWS EVERYTHING.

 Normal termination of Gaussian 09 at Wed Aug 26 09:20:17 2020.
