 Gaussian 09, Revision D.01,
 Gaussian 09:  ES64L-G09RevD.01 24-Apr-2013

 --------------------
 #p B2PLYPD3/Def2QZVP
 --------------------

 ---
 h2o
 ---
 Symbolic Z-matrix:
 Charge =  0 Multiplicity = 1

                         Standard orientation:
 ---------------------------------------------------------------------
 Center     Atomic      Atomic             Coordinates (Angstroms)
 Number     Number       Type             X           Y           Z
 ---------------------------------------------------------------------
      1          8           0        0.000000    0.110840    0.000000
      2          1           0        0.756386   -0.477269    0.000000
      3          1           0       -0.756386   -0.409449    0.000000
 ---------------------------------------------------------------------

 SCF Done:  E(RB2PLYPD3) =  -76.3340568441     A.U. after   10 cycles
 E2(B2PLYPD3) =    -0.8925150301D-01 E(B2PLYPD3) =    -0.76423308347156D+02

 The electronic state is 1-A'.
 Alpha  occ. eigenvalues --  -19.72668  -1.16499  -0.62797  -0.47174  -0.40079
 Alpha virt. eigenvalues --    0.04798   0.10344   0.27328   0.30365   0.31566
 Alpha virt. eigenvalues --    0.36328   0.44607   0.51022   0.56053   0.63248
 Alpha virt. eigenvalues --    0.65039   0.81485   0.94031   0.95620   1.05531

 Mulliken charges:
               1
     1  O   -0.430520
     2  H    0.225523
     3  H    0.204997
 Sum of Mulliken charges =   0.00000

 Dipole moment (field-independent basis, Debye):
    X=             -0.0191    Y=             -1.9008    Z=              0.0000  Tot=              1.9009
 Quadrupole moment (field-independent basis, Debye-Ang):
   XX=             -4.2629   YY=             -6.3920   ZZ=             -7.5510
   XY=             -0.1148   XZ=              0.0000   YZ=              0.0000

 1\1\GINC-NODE04\SP\RB2PLYPD3-FC\def2QZVP\H2O1\BOITTIER\26-Aug-2020\0\\
 #p B2PLYPD3/Def2QZVP\\h2o\\0,1\O,0,-5.326605,-0.760724,0.914756\H,0,-4
 .368927,-0.752577,0.942664\H,0,-5.609308,0.108205,0.826087\\Version=ES
 64L-G09RevD.01\State=1-A'\HF=-76.3340568\MP2=-76.4233083\RMSD=5.135e-0
 9\PG=CS [SG(H2O1)]\\@

      HUMANKIND PERIODICALLY GOES THROUGH A SPEEDUP OF ITS AFFAIRS,

 Normal termination of Gaussian 09 at Wed Aug 26 08:45:44 2020.
