 Gaussian 09, Revision D.01,
 Gaussian 09:  ES64L-G09RevD.01 24-Apr-2013

 --------------------
 #p B2PLYPD3/Def2QZVP
 --------------------

 ---
 h2o
 ---
 Symbolic Z-matrix:
 Charge =  0 Multiplicity = 1

                         Standard orientation:
 ---------------------------------------------------------------------
 Center     Atomic      Atomic             Coordinates (Angstroms)
 Number     Number       Type             X           Y           Z
 ---------------------------------------------------------------------
      1          8           0        0.000000    0.115851    0.000000
      2          1           0        0.753607   -0.477047    0.000000
      3          1           0       -0.753607   -0.449761    0.000000
 ---------------------------------------------------------------------

 SCF Done:  E(RB2PLYPD3) =  -76.3351410598     A.U. after   10 cycles
 E2(B2PLYPD3) =    -0.8972068603D-01 E(B2PLYPD3) =    -0.76424861745848D+02

 The electronic state is 1-A'.
 Alpha  occ. eigenvalues --  -19.72988  -1.16055  -0.61702  -0.47521  -0.40030
 Alpha virt. eigenvalues --    0.04628   0.10280   0.27455   0.30392   0.31159
 Alpha virt. eigenvalues --    0.36228   0.44214   0.50380   0.56318   0.62330
 Alpha virt. eigenvalues --    0.65419   0.81344   0.94024   0.95773   1.04471

 Mulliken charges:
               1
     1  O   -0.436904
     2  H    0.222351
     3  H    0.214553
 Sum of Mulliken charges =   0.00000

 Dipole moment (field-independent basis, Debye):
    X=             -0.0084    Y=             -1.9514    Z=              0.0000  Tot=              1.9514
 Quadrupole moment (field-independent basis, Debye-Ang):
   XX=             -4.3441   YY=             -6.3281   ZZ=             -7.5752
   XY=             -0.0448   XZ=              0.0000   YZ=              0.0000

 1\1\GINC-NODE06\SP\RB2PLYPD3-FC\def2QZVP\H2O1\BOITTIER\26-Aug-2020\0\\
 #p B2PLYPD3/Def2QZVP\\h2o\\0,1\O,0,-5.326605,-0.763045,0.922852\H,0,-4
 .368927,-0.725767,0.892608\H,0,-5.609308,0.118531,0.747515\\Version=ES
 64L-G09RevD.01\State=1-A'\HF=-76.3351411\MP2=-76.4248617\RMSD=4.293e-0
 9\PG=CS [SG(H2O1)]\\@

 ADAM SMITH SAID, "THE REAL PRICE OF ANYTHING IS THE TOIL AND TROUBLE

 Normal termination of Gaussian 09 at Wed Aug 26 10:28:54 2020.
