 Gaussian 09, Revision D.01,
 Gaussian 09:  ES64L-G09RevD.01 24-Apr-2013

 --------------------
 #p B2PLYPD3/Def2QZVP
 --------------------

 ---
 h2o
 ---
 Symbolic Z-matrix:
 Charge =  0 Multiplicity = 1

                         Standard orientation:
 ---------------------------------------------------------------------
 Center     Atomic      Atomic             Coordinates (Angstroms)
 Number     Number       Type             X           Y           Z
 ---------------------------------------------------------------------
      1          8           0        0.000000    0.119281    0.000000
      2          1           0        0.763258   -0.463146    0.000000
      3          1           0       -0.763258   -0.491098    0.000000
 ---------------------------------------------------------------------

 SCF Done:  E(RB2PLYPD3) =  -76.3344571241     A.U. after   10 cycles
 E2(B2PLYPD3) =    -0.9034335260D-01 E(B2PLYPD3) =    -0.76424800476662D+02

 The electronic state is 1-A'.
 Alpha  occ. eigenvalues --  -19.73315  -1.15262  -0.60705  -0.47452  -0.39899
 Alpha virt. eigenvalues --    0.04409   0.10124   0.27589   0.30434   0.30706
 Alpha virt. eigenvalues --    0.35580   0.43707   0.50047   0.56230   0.61912
 Alpha virt. eigenvalues --    0.65892   0.80941   0.93580   0.96125   1.02971

 Mulliken charges:
               1
     1  O   -0.449118
     2  H    0.220954
     3  H    0.228164
 Sum of Mulliken charges =   0.00000

 Dipole moment (field-independent basis, Debye):
    X=              0.0089    Y=             -1.9780    Z=              0.0000  Tot=              1.9780
 Quadrupole moment (field-independent basis, Debye-Ang):
   XX=             -4.3446   YY=             -6.3115   ZZ=             -7.6149
   XY=              0.0457   XZ=              0.0000   YZ=              0.0000

 1\1\GINC-NODE08\SP\RB2PLYPD3-FC\def2QZVP\H2O1\BOITTIER\26-Aug-2020\0\\
 #p B2PLYPD3/Def2QZVP\\h2o\\0,1\O,0,-5.326605,-0.76634,0.917068\H,0,-4.
 368927,-0.71259,0.958875\H,0,-5.609308,0.158071,0.773303\\Version=ES64
 L-G09RevD.01\State=1-A'\HF=-76.3344571\MP2=-76.4248005\RMSD=4.179e-09\
 PG=CS [SG(H2O1)]\\@

 POCKETA-POCKETA

 Normal termination of Gaussian 09 at Wed Aug 26 11:38:16 2020.
