 Gaussian 09, Revision D.01,
 Gaussian 09:  ES64L-G09RevD.01 24-Apr-2013

 --------------------
 #p B2PLYPD3/Def2QZVP
 --------------------

 ---
 h2o
 ---
 Symbolic Z-matrix:
 Charge =  0 Multiplicity = 1

                         Standard orientation:
 ---------------------------------------------------------------------
 Center     Atomic      Atomic             Coordinates (Angstroms)
 Number     Number       Type             X           Y           Z
 ---------------------------------------------------------------------
      1          8           0        0.000000    0.116851    0.000000
      2          1           0        0.753506   -0.478948    0.000000
      3          1           0       -0.753506   -0.455862    0.000000
 ---------------------------------------------------------------------

 SCF Done:  E(RB2PLYPD3) =  -76.3351387527     A.U. after   10 cycles
 E2(B2PLYPD3) =    -0.8983109911D-01 E(B2PLYPD3) =    -0.76424969851809D+02

 The electronic state is 1-A'.
 Alpha  occ. eigenvalues --  -19.73056  -1.15946  -0.61474  -0.47575  -0.40016
 Alpha virt. eigenvalues --    0.04587   0.10262   0.27483   0.30398   0.31060
 Alpha virt. eigenvalues --    0.36177   0.44129   0.50264   0.56356   0.62161
 Alpha virt. eigenvalues --    0.65505   0.81298   0.93996   0.95824   1.04167

 Mulliken charges:
               1
     1  O   -0.438367
     2  H    0.222434
     3  H    0.215932
 Sum of Mulliken charges =   0.00000

 Dipole moment (field-independent basis, Debye):
    X=             -0.0072    Y=             -1.9610    Z=              0.0000  Tot=              1.9610
 Quadrupole moment (field-independent basis, Debye-Ang):
   XX=             -4.3583   YY=             -6.3159   ZZ=             -7.5811
   XY=             -0.0377   XZ=              0.0000   YZ=              0.0000

 1\1\GINC-NODE39\SP\RB2PLYPD3-FC\def2QZVP\H2O1\BOITTIER\26-Aug-2020\0\\
 #p B2PLYPD3/Def2QZVP\\h2o\\0,1\O,0,-5.326605,-0.762752,0.926695\H,0,-4
 .368927,-0.728176,0.860319\H,0,-5.609308,0.116249,0.718828\\Version=ES
 64L-G09RevD.01\State=1-A'\HF=-76.3351388\MP2=-76.4249699\RMSD=4.254e-0
 9\PG=CS [SG(H2O1)]\\@

 PENOTUS DIED A HUNDRED YEARS OLD WANTING BUT TWO...

 Normal termination of Gaussian 09 at Wed Aug 26 11:51:02 2020.
