 Gaussian 09, Revision D.01,
 Gaussian 09:  ES64L-G09RevD.01 24-Apr-2013

 --------------------
 #p B2PLYPD3/Def2QZVP
 --------------------

 ---
 h2o
 ---
 Symbolic Z-matrix:
 Charge =  0 Multiplicity = 1

                         Standard orientation:
 ---------------------------------------------------------------------
 Center     Atomic      Atomic             Coordinates (Angstroms)
 Number     Number       Type             X           Y           Z
 ---------------------------------------------------------------------
      1          8           0        0.000000    0.121576    0.000000
      2          1           0        0.725668   -0.516266    0.000000
      3          1           0       -0.725668   -0.456344    0.000000
 ---------------------------------------------------------------------

 SCF Done:  E(RB2PLYPD3) =  -76.3336588091     A.U. after   10 cycles
 E2(B2PLYPD3) =    -0.8975648246D-01 E(B2PLYPD3) =    -0.76423415291530D+02

 The electronic state is 1-A'.
 Alpha  occ. eigenvalues --  -19.73109  -1.16624  -0.60947  -0.48481  -0.40178
 Alpha virt. eigenvalues --    0.04549   0.10405   0.27498   0.30368   0.30755
 Alpha virt. eigenvalues --    0.37127   0.44389   0.49653   0.57073   0.61000
 Alpha virt. eigenvalues --    0.65394   0.81562   0.94583   0.95653   1.03782

 Mulliken charges:
               1
     1  O   -0.423444
     2  H    0.220791
     3  H    0.202653
 Sum of Mulliken charges =   0.00000

 Dipole moment (field-independent basis, Debye):
    X=             -0.0215    Y=             -2.0207    Z=              0.0000  Tot=              2.0208
 Quadrupole moment (field-independent basis, Debye-Ang):
   XX=             -4.5550   YY=             -6.1837   ZZ=             -7.5583
   XY=             -0.0911   XZ=              0.0000   YZ=              0.0000

 1\1\GINC-NODE08\SP\RB2PLYPD3-FC\def2QZVP\H2O1\BOITTIER\26-Aug-2020\0\\
 #p B2PLYPD3/Def2QZVP\\h2o\\0,1\O,0,-5.326605,-0.766455,0.92517\H,0,-4.
 368927,-0.642554,0.89454\H,0,-5.609308,0.089879,0.707553\\Version=ES64
 L-G09RevD.01\State=1-A'\HF=-76.3336588\MP2=-76.4234153\RMSD=5.328e-09\
 PG=CS [SG(H2O1)]\\@

 A FOOL CAN ASK MORE QUESTIONS THAN

 Normal termination of Gaussian 09 at Wed Aug 26 08:49:09 2020.
