 Gaussian 09, Revision D.01,
 Gaussian 09:  ES64L-G09RevD.01 24-Apr-2013

 --------------------
 #p B2PLYPD3/Def2QZVP
 --------------------

 ---
 h2o
 ---
 Symbolic Z-matrix:
 Charge =  0 Multiplicity = 1

                         Standard orientation:
 ---------------------------------------------------------------------
 Center     Atomic      Atomic             Coordinates (Angstroms)
 Number     Number       Type             X           Y           Z
 ---------------------------------------------------------------------
      1          8           0        0.000000    0.118355    0.000000
      2          1           0        0.769247   -0.453137    0.000000
      3          1           0       -0.769247   -0.493702    0.000000
 ---------------------------------------------------------------------

 SCF Done:  E(RB2PLYPD3) =  -76.3341953562     A.U. after   10 cycles
 E2(B2PLYPD3) =    -0.9038113116D-01 E(B2PLYPD3) =    -0.76424576487348D+02

 The electronic state is 1-A'.
 Alpha  occ. eigenvalues --  -19.73307  -1.15117  -0.60777  -0.47258  -0.39861
 Alpha virt. eigenvalues --    0.04399   0.10091   0.27583   0.30442   0.30730
 Alpha virt. eigenvalues --    0.35365   0.43658   0.50191   0.56070   0.62157
 Alpha virt. eigenvalues --    0.65917   0.80830   0.93399   0.96184   1.02963

 Mulliken charges:
               1
     1  O   -0.452334
     2  H    0.221021
     3  H    0.231313
 Sum of Mulliken charges =   0.00000

 Dipole moment (field-independent basis, Debye):
    X=              0.0125    Y=             -1.9657    Z=              0.0000  Tot=              1.9658
 Quadrupole moment (field-independent basis, Debye-Ang):
   XX=             -4.3024   YY=             -6.3378   ZZ=             -7.6209
   XY=              0.0673   XZ=              0.0000   YZ=              0.0000

 1\1\GINC-NODE38\SP\RB2PLYPD3-FC\def2QZVP\H2O1\BOITTIER\26-Aug-2020\0\\
 #p B2PLYPD3/Def2QZVP\\h2o\\0,1\O,0,-5.326605,-0.765345,0.919885\H,0,-4
 .368927,-0.732435,0.93055\H,0,-5.609308,0.161999,0.757201\\Version=ES6
 4L-G09RevD.01\State=1-A'\HF=-76.3341954\MP2=-76.4245765\RMSD=4.258e-09
 \PG=CS [SG(H2O1)]\\@

 GETTING A SIMPLE ANSWER FROM A PROFESSOR IS LIKE

 Normal termination of Gaussian 09 at Wed Aug 26 08:59:29 2020.
