 Gaussian 09, Revision D.01,
 Gaussian 09:  ES64L-G09RevD.01 24-Apr-2013

 --------------------
 #p B2PLYPD3/Def2QZVP
 --------------------

 ---
 h2o
 ---
 Symbolic Z-matrix:
 Charge =  0 Multiplicity = 1

                         Standard orientation:
 ---------------------------------------------------------------------
 Center     Atomic      Atomic             Coordinates (Angstroms)
 Number     Number       Type             X           Y           Z
 ---------------------------------------------------------------------
      1          8           0        0.000000    0.115420    0.000000
      2          1           0        0.765063   -0.461025    0.000000
      3          1           0       -0.765063   -0.462334    0.000000
 ---------------------------------------------------------------------

 SCF Done:  E(RB2PLYPD3) =  -76.3351538106     A.U. after   10 cycles
 E2(B2PLYPD3) =    -0.8994385496D-01 E(B2PLYPD3) =    -0.76425097665521D+02

 The electronic state is 1-A'.
 Alpha  occ. eigenvalues --  -19.73071  -1.15604  -0.61532  -0.47224  -0.39938
 Alpha virt. eigenvalues --    0.04565   0.10190   0.27491   0.30415   0.31124
 Alpha virt. eigenvalues --    0.35707   0.43978   0.50509   0.56072   0.62573
 Alpha virt. eigenvalues --    0.65594   0.81084   0.93726   0.95954   1.04171

 Mulliken charges:
               1
     1  O   -0.445657
     2  H    0.222651
     3  H    0.223006
 Sum of Mulliken charges =   0.00000

 Dipole moment (field-independent basis, Debye):
    X=              0.0004    Y=             -1.9406    Z=              0.0000  Tot=              1.9406
 Quadrupole moment (field-independent basis, Debye-Ang):
   XX=             -4.2826   YY=             -6.3639   ZZ=             -7.5950
   XY=              0.0022   XZ=              0.0000   YZ=              0.0000

 1\1\GINC-NODE15\SP\RB2PLYPD3-FC\def2QZVP\H2O1\BOITTIER\26-Aug-2020\0\\
 #p B2PLYPD3/Def2QZVP\\h2o\\0,1\O,0,-5.326605,-0.763164,0.920795\H,0,-4
 .368927,-0.744612,0.909879\H,0,-5.609308,0.139279,0.763325\\Version=ES
 64L-G09RevD.01\State=1-A'\HF=-76.3351538\MP2=-76.4250977\RMSD=3.947e-0
 9\PG=CS [SG(H2O1)]\\@

 MEMORIES ARE LIKE AN ENGLISH GRAMMER LESSON -

 Normal termination of Gaussian 09 at Wed Aug 26 11:04:27 2020.
