 Gaussian 09, Revision D.01,
 Gaussian 09:  ES64L-G09RevD.01 24-Apr-2013

 --------------------
 #p B2PLYPD3/Def2QZVP
 --------------------

 ---
 h2o
 ---
 Symbolic Z-matrix:
 Charge =  0 Multiplicity = 1

                         Standard orientation:
 ---------------------------------------------------------------------
 Center     Atomic      Atomic             Coordinates (Angstroms)
 Number     Number       Type             X           Y           Z
 ---------------------------------------------------------------------
      1          8           0        0.000000    0.116575    0.000000
      2          1           0        0.732147   -0.507353    0.000000
      3          1           0       -0.732147   -0.425250    0.000000
 ---------------------------------------------------------------------

 SCF Done:  E(RB2PLYPD3) =  -76.3331683759     A.U. after   10 cycles
 E2(B2PLYPD3) =    -0.8931808989D-01 E(B2PLYPD3) =    -0.76422486465833D+02

 The electronic state is 1-A'.
 Alpha  occ. eigenvalues --  -19.72815  -1.16950  -0.62009  -0.48059  -0.40203
 Alpha virt. eigenvalues --    0.04713   0.10447   0.27371   0.30349   0.31150
 Alpha virt. eigenvalues --    0.37172   0.44724   0.50182   0.56744   0.61911
 Alpha virt. eigenvalues --    0.65074   0.81727   0.94389   0.95511   1.04790

 Mulliken charges:
               1
     1  O   -0.419022
     2  H    0.222518
     3  H    0.196504
 Sum of Mulliken charges =   0.00000

 Dipole moment (field-independent basis, Debye):
    X=             -0.0270    Y=             -1.9700    Z=              0.0000  Tot=              1.9702
 Quadrupole moment (field-independent basis, Debye-Ang):
   XX=             -4.4552   YY=             -6.2586   ZZ=             -7.5386
   XY=             -0.1297   XZ=              0.0000   YZ=              0.0000

 1\1\GINC-NODE09\SP\RB2PLYPD3-FC\def2QZVP\H2O1\BOITTIER\26-Aug-2020\0\\
 #p B2PLYPD3/Def2QZVP\\h2o\\0,1\O,0,-5.326605,-0.762981,0.925147\H,0,-4
 .368927,-0.688686,0.873582\H,0,-5.609308,0.080422,0.729279\\Version=ES
 64L-G09RevD.01\State=1-A'\HF=-76.3331684\MP2=-76.4224865\RMSD=5.698e-0
 9\PG=CS [SG(H2O1)]\\@

 MAN IS A SINGULAR CREATURE.  HE HAS A SET OF GIFTS

 Normal termination of Gaussian 09 at Wed Aug 26 08:44:11 2020.
