 Gaussian 09, Revision D.01,
 Gaussian 09:  ES64L-G09RevD.01 24-Apr-2013

 --------------------
 #p B2PLYPD3/Def2QZVP
 --------------------

 ---
 h2o
 ---
 Symbolic Z-matrix:
 Charge =  0 Multiplicity = 1

                         Standard orientation:
 ---------------------------------------------------------------------
 Center     Atomic      Atomic             Coordinates (Angstroms)
 Number     Number       Type             X           Y           Z
 ---------------------------------------------------------------------
      1          8           0        0.000000    0.120307    0.000000
      2          1           0        0.747857   -0.483614    0.000000
      3          1           0       -0.747857   -0.478840    0.000000
 ---------------------------------------------------------------------

 SCF Done:  E(RB2PLYPD3) =  -76.3348794043     A.U. after   10 cycles
 E2(B2PLYPD3) =    -0.9010096199D-01 E(B2PLYPD3) =    -0.76424980366251D+02

 The electronic state is 1-A'.
 Alpha  occ. eigenvalues --  -19.73240  -1.15794  -0.60801  -0.47883  -0.40013
 Alpha virt. eigenvalues --    0.04480   0.10239   0.27560   0.30407   0.30756
 Alpha virt. eigenvalues --    0.36221   0.43955   0.49855   0.56593   0.61512
 Alpha virt. eigenvalues --    0.65706   0.81242   0.94066   0.95918   1.03341

 Mulliken charges:
               1
     1  O   -0.439108
     2  H    0.220210
     3  H    0.218898
 Sum of Mulliken charges =   0.00000

 Dipole moment (field-independent basis, Debye):
    X=             -0.0016    Y=             -1.9967    Z=              0.0000  Tot=              1.9967
 Quadrupole moment (field-independent basis, Debye-Ang):
   XX=             -4.4333   YY=             -6.2595   ZZ=             -7.5917
   XY=             -0.0076   XZ=              0.0000   YZ=              0.0000

 1\1\GINC-NODE06\SP\RB2PLYPD3-FC\def2QZVP\H2O1\BOITTIER\26-Aug-2020\0\\
 #p B2PLYPD3/Def2QZVP\\h2o\\0,1\O,0,-5.326605,-0.765491,0.925559\H,0,-4
 .368927,-0.692698,0.886\H,0,-5.609308,0.124594,0.71086\\Version=ES64L-
 G09RevD.01\State=1-A'\HF=-76.3348794\MP2=-76.4249804\RMSD=4.299e-09\PG
 =CS [SG(H2O1)]\\@

 A FOOL CAN ASK MORE QUESTIONS THAN

 Normal termination of Gaussian 09 at Wed Aug 26 12:33:29 2020.
