 Gaussian 09, Revision D.01,
 Gaussian 09:  ES64L-G09RevD.01 24-Apr-2013

 --------------------
 #p B2PLYPD3/Def2QZVP
 --------------------

 ---
 h2o
 ---
 Symbolic Z-matrix:
 Charge =  0 Multiplicity = 1

                         Standard orientation:
 ---------------------------------------------------------------------
 Center     Atomic      Atomic             Coordinates (Angstroms)
 Number     Number       Type             X           Y           Z
 ---------------------------------------------------------------------
      1          8           0        0.000000    0.113804    0.000000
      2          1           0        0.719407   -0.529873    0.000000
      3          1           0       -0.719407   -0.380561    0.000000
 ---------------------------------------------------------------------

 SCF Done:  E(RB2PLYPD3) =  -76.3274667813     A.U. after   10 cycles
 E2(B2PLYPD3) =    -0.8875374168D-01 E(B2PLYPD3) =    -0.76416220522945D+02

 The electronic state is 1-A'.
 Alpha  occ. eigenvalues --  -19.72466  -1.17936  -0.62957  -0.48156  -0.40355
 Alpha virt. eigenvalues --    0.04839   0.10590   0.27199   0.30303   0.31277
 Alpha virt. eigenvalues --    0.37784   0.45442   0.50443   0.56787   0.62246
 Alpha virt. eigenvalues --    0.64589   0.82039   0.94209   0.95397   1.05196

 Mulliken charges:
               1
     1  O   -0.398039
     2  H    0.225470
     3  H    0.172569
 Sum of Mulliken charges =   0.00000

 Dipole moment (field-independent basis, Debye):
    X=             -0.0483    Y=             -1.9491    Z=              0.0000  Tot=              1.9497
 Quadrupole moment (field-independent basis, Debye-Ang):
   XX=             -4.4750   YY=             -6.2461   ZZ=             -7.4978
   XY=             -0.2348   XZ=              0.0000   YZ=              0.0000

 1\1\GINC-NODE26\SP\RB2PLYPD3-FC\def2QZVP\H2O1\BOITTIER\26-Aug-2020\0\\
 #p B2PLYPD3/Def2QZVP\\h2o\\0,1\O,0,-5.326605,-0.759819,0.928854\H,0,-4
 .368927,-0.697809,0.824573\H,0,-5.609308,0.038951,0.719119\\Version=ES
 64L-G09RevD.01\State=1-A'\HF=-76.3274668\MP2=-76.4162205\RMSD=6.765e-0
 9\PG=CS [SG(H2O1)]\\@

  DISAPPOINTMENT IS THE NURSE OF WISDOM.

 Normal termination of Gaussian 09 at Wed Aug 26 09:18:23 2020.
