 Gaussian 09, Revision D.01,
 Gaussian 09:  ES64L-G09RevD.01 24-Apr-2013

 --------------------
 #p B2PLYPD3/Def2QZVP
 --------------------

 ---
 h2o
 ---
 Symbolic Z-matrix:
 Charge =  0 Multiplicity = 1

                         Standard orientation:
 ---------------------------------------------------------------------
 Center     Atomic      Atomic             Coordinates (Angstroms)
 Number     Number       Type             X           Y           Z
 ---------------------------------------------------------------------
      1          8           0        0.000000    0.118648    0.000000
      2          1           0        0.738845   -0.496804    0.000000
      3          1           0       -0.738845   -0.452379    0.000000
 ---------------------------------------------------------------------

 SCF Done:  E(RB2PLYPD3) =  -76.3346025550     A.U. after   10 cycles
 E2(B2PLYPD3) =    -0.8970095334D-01 E(B2PLYPD3) =    -0.76424303508286D+02

 The electronic state is 1-A'.
 Alpha  occ. eigenvalues --  -19.73035  -1.16386  -0.61375  -0.48019  -0.40114
 Alpha virt. eigenvalues --    0.04603   0.10352   0.27470   0.30377   0.30971
 Alpha virt. eigenvalues --    0.36750   0.44327   0.49989   0.56713   0.61652
 Alpha virt. eigenvalues --    0.65389   0.81506   0.94324   0.95682   1.04156

 Mulliken charges:
               1
     1  O   -0.429209
     2  H    0.221178
     3  H    0.208031
 Sum of Mulliken charges =   0.00000

 Dipole moment (field-independent basis, Debye):
    X=             -0.0148    Y=             -1.9862    Z=              0.0000  Tot=              1.9863
 Quadrupole moment (field-independent basis, Debye-Ang):
   XX=             -4.4528   YY=             -6.2548   ZZ=             -7.5642
   XY=             -0.0701   XZ=              0.0000   YZ=              0.0000

 1\1\GINC-NODE04\SP\RB2PLYPD3-FC\def2QZVP\H2O1\BOITTIER\26-Aug-2020\0\\
 #p B2PLYPD3/Def2QZVP\\h2o\\0,1\O,0,-5.326605,-0.764689,0.924146\H,0,-4
 .368927,-0.684067,0.892117\H,0,-5.609308,0.10313,0.726831\\Version=ES6
 4L-G09RevD.01\State=1-A'\HF=-76.3346026\MP2=-76.4243035\RMSD=4.812e-09
 \PG=CS [SG(H2O1)]\\@

 THERE IS NO CURE FOR BIRTH AND DEATH SAVE TO ENJOY THE INTERVAL.

 Normal termination of Gaussian 09 at Wed Aug 26 11:37:48 2020.
