 Gaussian 09, Revision D.01,
 Gaussian 09:  ES64L-G09RevD.01 24-Apr-2013

 --------------------
 #p B2PLYPD3/Def2QZVP
 --------------------

 ---
 h2o
 ---
 Symbolic Z-matrix:
 Charge =  0 Multiplicity = 1

                         Standard orientation:
 ---------------------------------------------------------------------
 Center     Atomic      Atomic             Coordinates (Angstroms)
 Number     Number       Type             X           Y           Z
 ---------------------------------------------------------------------
      1          8           0        0.000000    0.127209    0.000000
      2          1           0        0.742895   -0.493909    0.000000
      3          1           0       -0.742895   -0.523764    0.000000
 ---------------------------------------------------------------------

 SCF Done:  E(RB2PLYPD3) =  -76.3327820862     A.U. after   10 cycles
 E2(B2PLYPD3) =    -0.9084723462D-01 E(B2PLYPD3) =    -0.76423629320831D+02

 The electronic state is 1-A'.
 Alpha  occ. eigenvalues --  -19.73670  -1.15203  -0.59332  -0.48308  -0.39951
 Alpha virt. eigenvalues --    0.04195   0.10114   0.27750   0.30028   0.30434
 Alpha virt. eigenvalues --    0.35885   0.43484   0.49175   0.56898   0.60379
 Alpha virt. eigenvalues --    0.66208   0.80940   0.93962   0.96273   1.01483

 Mulliken charges:
               1
     1  O   -0.444605
     2  H    0.218551
     3  H    0.226055
 Sum of Mulliken charges =   0.00000

 Dipole moment (field-independent basis, Debye):
    X=              0.0111    Y=             -2.0620    Z=              0.0000  Tot=              2.0621
 Quadrupole moment (field-independent basis, Debye-Ang):
   XX=             -4.5547   YY=             -6.1598   ZZ=             -7.6268
   XY=              0.0452   XZ=              0.0000   YZ=              0.0000

 1\1\GINC-NODE39\SP\RB2PLYPD3-FC\def2QZVP\H2O1\BOITTIER\26-Aug-2020\0\\
 #p B2PLYPD3/Def2QZVP\\h2o\\0,1\O,0,-5.326605,-0.767668,0.933597\H,0,-4
 .368927,-0.663236,0.835479\H,0,-5.609308,0.12996,0.633595\\Version=ES6
 4L-G09RevD.01\State=1-A'\HF=-76.3327821\MP2=-76.4236293\RMSD=4.616e-09
 \PG=CS [SG(H2O1)]\\@

 Any fool can criticize, condemn, and complain -- and most do.

 Normal termination of Gaussian 09 at Wed Aug 26 09:09:30 2020.
