 Gaussian 09, Revision D.01,
 Gaussian 09:  ES64L-G09RevD.01 24-Apr-2013

 --------------------
 #p B2PLYPD3/Def2QZVP
 --------------------

 ---
 h2o
 ---
 Symbolic Z-matrix:
 Charge =  0 Multiplicity = 1

                         Standard orientation:
 ---------------------------------------------------------------------
 Center     Atomic      Atomic             Coordinates (Angstroms)
 Number     Number       Type             X           Y           Z
 ---------------------------------------------------------------------
      1          8           0        0.000000    0.119387    0.000000
      2          1           0        0.785663   -0.429686    0.000000
      3          1           0       -0.785663   -0.525406    0.000000
 ---------------------------------------------------------------------

 SCF Done:  E(RB2PLYPD3) =  -76.3312948051     A.U. after   10 cycles
 E2(B2PLYPD3) =    -0.9091762165D-01 E(B2PLYPD3) =    -0.76422212426785D+02

 The electronic state is 1-A'.
 Alpha  occ. eigenvalues --  -19.73517  -1.14365  -0.60176  -0.46877  -0.39709
 Alpha virt. eigenvalues --    0.04176   0.09915   0.27653   0.30246   0.30482
 Alpha virt. eigenvalues --    0.34655   0.43280   0.50190   0.55711   0.62266
 Alpha virt. eigenvalues --    0.66271   0.80290   0.92535   0.96523   1.01776

 Mulliken charges:
               1
     1  O   -0.464339
     2  H    0.221182
     3  H    0.243157
 Sum of Mulliken charges =   0.00000

 Dipole moment (field-independent basis, Debye):
    X=              0.0288    Y=             -1.9646    Z=              0.0000  Tot=              1.9648
 Quadrupole moment (field-independent basis, Debye-Ang):
   XX=             -4.2349   YY=             -6.3620   ZZ=             -7.6596
   XY=              0.1620   XZ=              0.0000   YZ=              0.0000

 1\1\GINC-NODE07\SP\RB2PLYPD3-FC\def2QZVP\H2O1\BOITTIER\26-Aug-2020\0\\
 #p B2PLYPD3/Def2QZVP\\h2o\\0,1\O,0,-5.326605,-0.76636,0.917599\H,0,-4.
 368927,-0.752798,0.955238\H,0,-5.609308,0.198599,0.76942\\Version=ES64
 L-G09RevD.01\State=1-A'\HF=-76.3312948\MP2=-76.4222124\RMSD=5.212e-09\
 PG=CS [SG(H2O1)]\\@

 IN THE WOODS WE RETURN TO REASON AND FAITH.

 Normal termination of Gaussian 09 at Wed Aug 26 11:59:20 2020.
