 Gaussian 09, Revision D.01,
 Gaussian 09:  ES64L-G09RevD.01 24-Apr-2013

 --------------------
 #p B2PLYPD3/Def2QZVP
 --------------------

 ---
 h2o
 ---
 Symbolic Z-matrix:
 Charge =  0 Multiplicity = 1

                         Standard orientation:
 ---------------------------------------------------------------------
 Center     Atomic      Atomic             Coordinates (Angstroms)
 Number     Number       Type             X           Y           Z
 ---------------------------------------------------------------------
      1          8           0        0.000000    0.114177    0.000000
      2          1           0        0.730698   -0.510401    0.000000
      3          1           0       -0.730698   -0.403013    0.000000
 ---------------------------------------------------------------------

 SCF Done:  E(RB2PLYPD3) =  -76.3315241516     A.U. after   10 cycles
 E2(B2PLYPD3) =    -0.8902601788D-01 E(B2PLYPD3) =    -0.76420550169484D+02

 The electronic state is 1-A'.
 Alpha  occ. eigenvalues --  -19.72625  -1.17319  -0.62618  -0.47949  -0.40253
 Alpha virt. eigenvalues --    0.04802   0.10498   0.27287   0.30330   0.31317
 Alpha virt. eigenvalues --    0.37345   0.45020   0.50447   0.56652   0.62307
 Alpha virt. eigenvalues --    0.64835   0.81865   0.94314   0.95430   1.05220

 Mulliken charges:
               1
     1  O   -0.411980
     2  H    0.223777
     3  H    0.188203
 Sum of Mulliken charges =   0.00000

 Dipole moment (field-independent basis, Debye):
    X=             -0.0341    Y=             -1.9474    Z=              0.0000  Tot=              1.9477
 Quadrupole moment (field-independent basis, Debye-Ang):
   XX=             -4.4289   YY=             -6.2795   ZZ=             -7.5211
   XY=             -0.1715   XZ=              0.0000   YZ=              0.0000

 1\1\GINC-NODE11\SP\RB2PLYPD3-FC\def2QZVP\H2O1\BOITTIER\26-Aug-2020\0\\
 #p B2PLYPD3/Def2QZVP\\h2o\\0,1\O,0,-5.326605,-0.761386,0.924747\H,0,-4
 .368927,-0.701959,0.866962\H,0,-5.609308,0.06818,0.742251\\Version=ES6
 4L-G09RevD.01\State=1-A'\HF=-76.3315242\MP2=-76.4205502\RMSD=6.267e-09
 \PG=CS [SG(H2O1)]\\@

 WERE I TO AWAIT PERFECTION, MY BOOK WOULD NEVER BE FINISHED.

 Normal termination of Gaussian 09 at Wed Aug 26 09:20:09 2020.
