 Gaussian 09, Revision D.01,
 Gaussian 09:  ES64L-G09RevD.01 24-Apr-2013

 --------------------
 #p B2PLYPD3/Def2QZVP
 --------------------

 ---
 h2o
 ---
 Symbolic Z-matrix:
 Charge =  0 Multiplicity = 1

                         Standard orientation:
 ---------------------------------------------------------------------
 Center     Atomic      Atomic             Coordinates (Angstroms)
 Number     Number       Type             X           Y           Z
 ---------------------------------------------------------------------
      1          8           0        0.000000    0.117515    0.000000
      2          1           0        0.765760   -0.459136    0.000000
      3          1           0       -0.765760   -0.480983    0.000000
 ---------------------------------------------------------------------

 SCF Done:  E(RB2PLYPD3) =  -76.3347589456     A.U. after   10 cycles
 E2(B2PLYPD3) =    -0.9019817065D-01 E(B2PLYPD3) =    -0.76424957116275D+02

 The electronic state is 1-A'.
 Alpha  occ. eigenvalues --  -19.73219  -1.15349  -0.61044  -0.47308  -0.39902
 Alpha virt. eigenvalues --    0.04468   0.10140   0.27549   0.30429   0.30883
 Alpha virt. eigenvalues --    0.35566   0.43794   0.50265   0.56124   0.62236
 Alpha virt. eigenvalues --    0.65786   0.80966   0.93592   0.96074   1.03432

 Mulliken charges:
               1
     1  O   -0.448855
     2  H    0.221570
     3  H    0.227285
 Sum of Mulliken charges =   0.00000

 Dipole moment (field-independent basis, Debye):
    X=              0.0067    Y=             -1.9600    Z=              0.0000  Tot=              1.9600
 Quadrupole moment (field-independent basis, Debye-Ang):
   XX=             -4.3079   YY=             -6.3399   ZZ=             -7.6090
   XY=              0.0362   XZ=              0.0000   YZ=              0.0000

 1\1\GINC-NODE09\SP\RB2PLYPD3-FC\def2QZVP\H2O1\BOITTIER\26-Aug-2020\0\\
 #p B2PLYPD3/Def2QZVP\\h2o\\0,1\O,0,-5.326605,-0.764991,0.918335\H,0,-4
 .368927,-0.729333,0.940604\H,0,-5.609308,0.153234,0.771603\\Version=ES
 64L-G09RevD.01\State=1-A'\HF=-76.3347589\MP2=-76.4249571\RMSD=4.067e-0
 9\PG=CS [SG(H2O1)]\\@

 MOM AND DAD WENT TO ALPHA CENTAURI AND ALL

 Normal termination of Gaussian 09 at Wed Aug 26 08:55:14 2020.
