 Gaussian 09, Revision D.01,
 Gaussian 09:  ES64L-G09RevD.01 24-Apr-2013

 --------------------
 #p B2PLYPD3/Def2QZVP
 --------------------

 ---
 h2o
 ---
 Symbolic Z-matrix:
 Charge =  0 Multiplicity = 1

                         Standard orientation:
 ---------------------------------------------------------------------
 Center     Atomic      Atomic             Coordinates (Angstroms)
 Number     Number       Type             X           Y           Z
 ---------------------------------------------------------------------
      1          8           0        0.000000    0.125574    0.000000
      2          1           0        0.718820   -0.528558    0.000000
      3          1           0       -0.718820   -0.476035    0.000000
 ---------------------------------------------------------------------

 SCF Done:  E(RB2PLYPD3) =  -76.3330775284     A.U. after   10 cycles
 E2(B2PLYPD3) =    -0.9010396921D-01 E(B2PLYPD3) =    -0.76423181497656D+02

 The electronic state is 1-A'.
 Alpha  occ. eigenvalues --  -19.73329  -1.16424  -0.60123  -0.48839  -0.40169
 Alpha virt. eigenvalues --    0.04412   0.10375   0.27597   0.30378   0.30417
 Alpha virt. eigenvalues --    0.37068   0.44167   0.49300   0.57350   0.60289
 Alpha virt. eigenvalues --    0.65608   0.81427   0.94760   0.95775   1.02966

 Mulliken charges:
               1
     1  O   -0.425213
     2  H    0.220309
     3  H    0.204904
 Sum of Mulliken charges =   0.00000

 Dipole moment (field-independent basis, Debye):
    X=             -0.0201    Y=             -2.0611    Z=              0.0000  Tot=              2.0612
 Quadrupole moment (field-independent basis, Debye-Ang):
   XX=             -4.6434   YY=             -6.1175   ZZ=             -7.5723
   XY=             -0.0771   XZ=              0.0000   YZ=              0.0000

 1\1\GINC-NODE27\SP\RB2PLYPD3-FC\def2QZVP\H2O1\BOITTIER\26-Aug-2020\0\\
 #p B2PLYPD3/Def2QZVP\\h2o\\0,1\O,0,-5.326605,-0.767912,0.929677\H,0,-4
 .368927,-0.614341,0.867548\H,0,-5.609308,0.084976,0.662661\\Version=ES
 64L-G09RevD.01\State=1-A'\HF=-76.3330775\MP2=-76.4231815\RMSD=5.356e-0
 9\PG=CS [SG(H2O1)]\\@

 IT MATTERS NOT HOW DEEP YOU PLOW,

 Normal termination of Gaussian 09 at Wed Aug 26 09:22:18 2020.
