 Gaussian 09, Revision D.01,
 Gaussian 09:  ES64L-G09RevD.01 24-Apr-2013

 --------------------
 #p B2PLYPD3/Def2QZVP
 --------------------

 ---
 h2o
 ---
 Symbolic Z-matrix:
 Charge =  0 Multiplicity = 1

                         Standard orientation:
 ---------------------------------------------------------------------
 Center     Atomic      Atomic             Coordinates (Angstroms)
 Number     Number       Type             X           Y           Z
 ---------------------------------------------------------------------
      1          8           0        0.000000    0.119477    0.000000
      2          1           0        0.773491   -0.445986    0.000000
      3          1           0       -0.773491   -0.509831    0.000000
 ---------------------------------------------------------------------

 SCF Done:  E(RB2PLYPD3) =  -76.3331880780     A.U. after   10 cycles
 E2(B2PLYPD3) =    -0.9061928779D-01 E(B2PLYPD3) =    -0.76423807365788D+02

 The electronic state is 1-A'.
 Alpha  occ. eigenvalues --  -19.73419  -1.14831  -0.60434  -0.47197  -0.39810
 Alpha virt. eigenvalues --    0.04302   0.10026   0.27625   0.30457   0.30501
 Alpha virt. eigenvalues --    0.35129   0.43497   0.50091   0.55999   0.62049
 Alpha virt. eigenvalues --    0.66080   0.80653   0.93114   0.96321   1.02363

 Mulliken charges:
               1
     1  O   -0.456366
     2  H    0.220394
     3  H    0.235972
 Sum of Mulliken charges =   0.00000

 Dipole moment (field-independent basis, Debye):
    X=              0.0198    Y=             -1.9734    Z=              0.0000  Tot=              1.9735
 Quadrupole moment (field-independent basis, Debye-Ang):
   XX=             -4.2969   YY=             -6.3332   ZZ=             -7.6361
   XY=              0.1060   XZ=              0.0000   YZ=              0.0000

 1\1\GINC-NODE11\SP\RB2PLYPD3-FC\def2QZVP\H2O1\BOITTIER\26-Aug-2020\0\\
 #p B2PLYPD3/Def2QZVP\\h2o\\0,1\O,0,-5.326605,-0.765816,0.921623\H,0,-4
 .368927,-0.73604,0.919735\H,0,-5.609308,0.173135,0.740603\\Version=ES6
 4L-G09RevD.01\State=1-A'\HF=-76.3331881\MP2=-76.4238074\RMSD=4.610e-09
 \PG=CS [SG(H2O1)]\\@

 LAW OF COMPENSATION:

 Normal termination of Gaussian 09 at Wed Aug 26 12:18:03 2020.
