 Gaussian 09, Revision D.01,
 Gaussian 09:  ES64L-G09RevD.01 24-Apr-2013

 --------------------
 #p B2PLYPD3/Def2QZVP
 --------------------

 ---
 h2o
 ---
 Symbolic Z-matrix:
 Charge =  0 Multiplicity = 1

                         Standard orientation:
 ---------------------------------------------------------------------
 Center     Atomic      Atomic             Coordinates (Angstroms)
 Number     Number       Type             X           Y           Z
 ---------------------------------------------------------------------
      1          8           0        0.000000    0.122499    0.000000
      2          1           0        0.716074   -0.531167    0.000000
      3          1           0       -0.716074   -0.448824    0.000000
 ---------------------------------------------------------------------

 SCF Done:  E(RB2PLYPD3) =  -76.3323669773     A.U. after   10 cycles
 E2(B2PLYPD3) =    -0.8966389019D-01 E(B2PLYPD3) =    -0.76422030867492D+02

 The electronic state is 1-A'.
 Alpha  occ. eigenvalues --  -19.73076  -1.16951  -0.60906  -0.48750  -0.40242
 Alpha virt. eigenvalues --    0.04547   0.10467   0.27478   0.30354   0.30689
 Alpha virt. eigenvalues --    0.37453   0.44572   0.49551   0.57274   0.60739
 Alpha virt. eigenvalues --    0.65279   0.81638   0.94713   0.95588   1.03828

 Mulliken charges:
               1
     1  O   -0.416870
     2  H    0.221354
     3  H    0.195515
 Sum of Mulliken charges =   0.00000

 Dipole moment (field-independent basis, Debye):
    X=             -0.0304    Y=             -2.0342    Z=              0.0000  Tot=              2.0345
 Quadrupole moment (field-independent basis, Debye-Ang):
   XX=             -4.6118   YY=             -6.1454   ZZ=             -7.5469
   XY=             -0.1225   XZ=              0.0000   YZ=              0.0000

 1\1\GINC-NODE28\SP\RB2PLYPD3-FC\def2QZVP\H2O1\BOITTIER\26-Aug-2020\0\\
 #p B2PLYPD3/Def2QZVP\\h2o\\0,1\O,0,-5.326605,-0.766417,0.927616\H,0,-4
 .368927,-0.624666,0.874696\H,0,-5.609308,0.071388,0.688171\\Version=ES
 64L-G09RevD.01\State=1-A'\HF=-76.332367\MP2=-76.4220309\RMSD=5.896e-09
 \PG=CS [SG(H2O1)]\\@

 YOU CANNOT THROW TO THE GROUND THE LETTERS OF

 Normal termination of Gaussian 09 at Wed Aug 26 08:48:31 2020.
