 Gaussian 09, Revision D.01,
 Gaussian 09:  ES64L-G09RevD.01 24-Apr-2013

 --------------------
 #p B2PLYPD3/Def2QZVP
 --------------------

 ---
 h2o
 ---
 Symbolic Z-matrix:
 Charge =  0 Multiplicity = 1

                         Standard orientation:
 ---------------------------------------------------------------------
 Center     Atomic      Atomic             Coordinates (Angstroms)
 Number     Number       Type             X           Y           Z
 ---------------------------------------------------------------------
      1          8           0        0.000000    0.126276    0.000000
      2          1           0        0.748523   -0.486818    0.000000
      3          1           0       -0.748523   -0.523391    0.000000
 ---------------------------------------------------------------------

 SCF Done:  E(RB2PLYPD3) =  -76.3328197942     A.U. after   10 cycles
 E2(B2PLYPD3) =    -0.9085644574D-01 E(B2PLYPD3) =    -0.76423676239965D+02

 The electronic state is 1-A'.
 Alpha  occ. eigenvalues --  -19.73656  -1.15084  -0.59440  -0.48126  -0.39920
 Alpha virt. eigenvalues --    0.04197   0.10087   0.27741   0.30062   0.30441
 Alpha virt. eigenvalues --    0.35729   0.43451   0.49268   0.56746   0.60604
 Alpha virt. eigenvalues --    0.66229   0.80884   0.93770   0.96303   1.01510

 Mulliken charges:
               1
     1  O   -0.447135
     2  H    0.219030
     3  H    0.228105
 Sum of Mulliken charges =   0.00000

 Dipole moment (field-independent basis, Debye):
    X=              0.0133    Y=             -2.0504    Z=              0.0000  Tot=              2.0504
 Quadrupole moment (field-independent basis, Debye-Ang):
   XX=             -4.5144   YY=             -6.1857   ZZ=             -7.6310
   XY=              0.0562   XZ=              0.0000   YZ=              0.0000

 1\1\GINC-NODE16\SP\RB2PLYPD3-FC\def2QZVP\H2O1\BOITTIER\26-Aug-2020\0\\
 #p B2PLYPD3/Def2QZVP\\h2o\\0,1\O,0,-5.326605,-0.766761,0.934221\H,0,-4
 .368927,-0.682407,0.825098\H,0,-5.609308,0.134632,0.634348\\Version=ES
 64L-G09RevD.01\State=1-A'\HF=-76.3328198\MP2=-76.4236762\RMSD=4.561e-0
 9\PG=CS [SG(H2O1)]\\@

 GOD GAVE US TWO ENDS... ONE TO SIT ON...

 Normal termination of Gaussian 09 at Wed Aug 26 09:10:00 2020.
