 Gaussian 09, Revision D.01,
 Gaussian 09:  ES64L-G09RevD.01 24-Apr-2013

 --------------------
 #p B2PLYPD3/Def2QZVP
 --------------------

 ---
 h2o
 ---
 Symbolic Z-matrix:
 Charge =  0 Multiplicity = 1

                         Standard orientation:
 ---------------------------------------------------------------------
 Center     Atomic      Atomic             Coordinates (Angstroms)
 Number     Number       Type             X           Y           Z
 ---------------------------------------------------------------------
      1          8           0        0.000000    0.118585    0.000000
      2          1           0        0.752915   -0.476377    0.000000
      3          1           0       -0.752915   -0.472300    0.000000
 ---------------------------------------------------------------------

 SCF Done:  E(RB2PLYPD3) =  -76.3350697638     A.U. after   10 cycles
 E2(B2PLYPD3) =    -0.9001585382D-01 E(B2PLYPD3) =    -0.76425085617582D+02

 The electronic state is 1-A'.
 Alpha  occ. eigenvalues --  -19.73170  -1.15774  -0.61089  -0.47676  -0.39996
 Alpha virt. eigenvalues --    0.04520   0.10231   0.27530   0.30407   0.30894
 Alpha virt. eigenvalues --    0.36100   0.43989   0.50066   0.56431   0.61865
 Alpha virt. eigenvalues --    0.65647   0.81224   0.93967   0.95904   1.03669

 Mulliken charges:
               1
     1  O   -0.440506
     2  H    0.220814
     3  H    0.219692
 Sum of Mulliken charges =   0.00000

 Dipole moment (field-independent basis, Debye):
    X=             -0.0013    Y=             -1.9777    Z=              0.0000  Tot=              1.9777
 Quadrupole moment (field-independent basis, Debye-Ang):
   XX=             -4.3851   YY=             -6.2937   ZZ=             -7.5906
   XY=             -0.0066   XZ=              0.0000   YZ=              0.0000

 1\1\GINC-NODE19\SP\RB2PLYPD3-FC\def2QZVP\H2O1\BOITTIER\26-Aug-2020\0\\
 #p B2PLYPD3/Def2QZVP\\h2o\\0,1\O,0,-5.326605,-0.765207,0.921558\H,0,-4
 .368927,-0.704514,0.916104\H,0,-5.609308,0.131865,0.744453\\Version=ES
 64L-G09RevD.01\State=1-A'\HF=-76.3350698\MP2=-76.4250856\RMSD=4.181e-0
 9\PG=CS [SG(H2O1)]\\@

 ASKING FOR EFFICIENCY AND ADAPTABILITY IN THE SAME PROGRAM IS LIKE

 Normal termination of Gaussian 09 at Wed Aug 26 10:33:02 2020.
