 Gaussian 09, Revision D.01,
 Gaussian 09:  ES64L-G09RevD.01 24-Apr-2013

 --------------------
 #p B2PLYPD3/Def2QZVP
 --------------------

 ---
 h2o
 ---
 Symbolic Z-matrix:
 Charge =  0 Multiplicity = 1

                         Standard orientation:
 ---------------------------------------------------------------------
 Center     Atomic      Atomic             Coordinates (Angstroms)
 Number     Number       Type             X           Y           Z
 ---------------------------------------------------------------------
      1          8           0        0.000000    0.117822    0.000000
      2          1           0        0.760957   -0.466416    0.000000
      3          1           0       -0.760957   -0.476156    0.000000
 ---------------------------------------------------------------------

 SCF Done:  E(RB2PLYPD3) =  -76.3349661230     A.U. after   10 cycles
 E2(B2PLYPD3) =    -0.9011771525D-01 E(B2PLYPD3) =    -0.76425083838229D+02

 The electronic state is 1-A'.
 Alpha  occ. eigenvalues --  -19.73195  -1.15517  -0.61084  -0.47442  -0.39939
 Alpha virt. eigenvalues --    0.04494   0.10177   0.27540   0.30420   0.30902
 Alpha virt. eigenvalues --    0.35770   0.43873   0.50199   0.56237   0.62112
 Alpha virt. eigenvalues --    0.65727   0.81074   0.93743   0.96004   1.03562

 Mulliken charges:
               1
     1  O   -0.445631
     2  H    0.221516
     3  H    0.224116
 Sum of Mulliken charges =   0.00000

 Dipole moment (field-independent basis, Debye):
    X=              0.0030    Y=             -1.9658    Z=              0.0000  Tot=              1.9658
 Quadrupole moment (field-independent basis, Debye-Ang):
   XX=             -4.3356   YY=             -6.3239   ZZ=             -7.6015
   XY=              0.0160   XZ=              0.0000   YZ=              0.0000

 1\1\GINC-NODE25\SP\RB2PLYPD3-FC\def2QZVP\H2O1\BOITTIER\26-Aug-2020\0\\
 #p B2PLYPD3/Def2QZVP\\h2o\\0,1\O,0,-5.326605,-0.765302,0.917487\H,0,-4
 .368927,-0.717968,0.949143\H,0,-5.609308,0.146847,0.77632\\Version=ES6
 4L-G09RevD.01\State=1-A'\HF=-76.3349661\MP2=-76.4250838\RMSD=4.058e-09
 \PG=CS [SG(H2O1)]\\@

 IT IS UNWORTHY OF EXCELLENT MEN TO LOSE HOURS LIKE SLAVES IN THE LABOR

 Normal termination of Gaussian 09 at Wed Aug 26 12:05:23 2020.
