 Gaussian 09, Revision D.01,
 Gaussian 09:  ES64L-G09RevD.01 24-Apr-2013

 --------------------
 #p B2PLYPD3/Def2QZVP
 --------------------

 ---
 h2o
 ---
 Symbolic Z-matrix:
 Charge =  0 Multiplicity = 1

                         Standard orientation:
 ---------------------------------------------------------------------
 Center     Atomic      Atomic             Coordinates (Angstroms)
 Number     Number       Type             X           Y           Z
 ---------------------------------------------------------------------
      1          8           0        0.000000    0.121612    0.000000
      2          1           0        0.758238   -0.468098    0.000000
      3          1           0       -0.758238   -0.504801    0.000000
 ---------------------------------------------------------------------

 SCF Done:  E(RB2PLYPD3) =  -76.3339892649     A.U. after   10 cycles
 E2(B2PLYPD3) =    -0.9050283443D-01 E(B2PLYPD3) =    -0.76424492099380D+02

 The electronic state is 1-A'.
 Alpha  occ. eigenvalues --  -19.73426  -1.15215  -0.60291  -0.47680  -0.39908
 Alpha virt. eigenvalues --    0.04340   0.10115   0.27636   0.30436   0.30484
 Alpha virt. eigenvalues --    0.35661   0.43631   0.49766   0.56404   0.61468
 Alpha virt. eigenvalues --    0.66002   0.80937   0.93620   0.96176   1.02452

 Mulliken charges:
               1
     1  O   -0.448226
     2  H    0.219431
     3  H    0.228795
 Sum of Mulliken charges =   0.00000

 Dipole moment (field-independent basis, Debye):
    X=              0.0122    Y=             -2.0025    Z=              0.0000  Tot=              2.0025
 Quadrupole moment (field-independent basis, Debye-Ang):
   XX=             -4.4016   YY=             -6.2692   ZZ=             -7.6197
   XY=              0.0588   XZ=              0.0000   YZ=              0.0000

 1\1\GINC-NODE07\SP\RB2PLYPD3-FC\def2QZVP\H2O1\BOITTIER\26-Aug-2020\0\\
 #p B2PLYPD3/Def2QZVP\\h2o\\0,1\O,0,-5.326605,-0.766165,0.926443\H,0,-4
 .368927,-0.70552,0.883338\H,0,-5.609308,0.148209,0.69991\\Version=ES64
 L-G09RevD.01\State=1-A'\HF=-76.3339893\MP2=-76.4244921\RMSD=4.367e-09\
 PG=CS [SG(H2O1)]\\@

 ...THE PHYSICISTS HAVE MADE THEIR UNIVERSE, AND IF YOU DO NOT LIKE

 Normal termination of Gaussian 09 at Wed Aug 26 12:05:39 2020.
