 Gaussian 09, Revision D.01,
 Gaussian 09:  ES64L-G09RevD.01 24-Apr-2013

 --------------------
 #p B2PLYPD3/Def2QZVP
 --------------------

 ---
 h2o
 ---
 Symbolic Z-matrix:
 Charge =  0 Multiplicity = 1

                         Standard orientation:
 ---------------------------------------------------------------------
 Center     Atomic      Atomic             Coordinates (Angstroms)
 Number     Number       Type             X           Y           Z
 ---------------------------------------------------------------------
      1          8           0        0.000000    0.110192    0.000000
      2          1           0        0.796149   -0.426112    0.000000
      3          1           0       -0.796149   -0.455428    0.000000
 ---------------------------------------------------------------------

 SCF Done:  E(RB2PLYPD3) =  -76.3337632605     A.U. after   10 cycles
 E2(B2PLYPD3) =    -0.9015658435D-01 E(B2PLYPD3) =    -0.76423919844891D+02

 The electronic state is 1-A'.
 Alpha  occ. eigenvalues --  -19.73020  -1.14827  -0.61886  -0.46212  -0.39733
 Alpha virt. eigenvalues --    0.04516   0.10017   0.27466   0.30456   0.31401
 Alpha virt. eigenvalues --    0.34469   0.43680   0.51472   0.55255   0.63939
 Alpha virt. eigenvalues --    0.65770   0.80312   0.93080   0.96366   1.04399

 Mulliken charges:
               1
     1  O   -0.464548
     2  H    0.228641
     3  H    0.235908
 Sum of Mulliken charges =   0.00000

 Dipole moment (field-independent basis, Debye):
    X=              0.0073    Y=             -1.8710    Z=              0.0000  Tot=              1.8711
 Quadrupole moment (field-independent basis, Debye-Ang):
   XX=             -4.0565   YY=             -6.5077   ZZ=             -7.6275
   XY=              0.0528   XZ=              0.0000   YZ=              0.0000

 1\1\GINC-NODE38\SP\RB2PLYPD3-FC\def2QZVP\H2O1\BOITTIER\26-Aug-2020\0\\
 #p B2PLYPD3/Def2QZVP\\h2o\\0,1\O,0,-5.326605,-0.759912,0.91825\H,0,-4.
 368927,-0.825261,0.910702\H,0,-5.609308,0.167896,0.804101\\Version=ES6
 4L-G09RevD.01\State=1-A'\HF=-76.3337633\MP2=-76.4239198\RMSD=3.854e-09
 \PG=CS [SG(H2O1)]\\@

 DON'T WORRY CHARLIE BROWN...WE LEARN MORE FROM LOSING  THAN WE DO FROM WINNING.

 Normal termination of Gaussian 09 at Wed Aug 26 09:10:54 2020.
