 Gaussian 09, Revision D.01,
 Gaussian 09:  ES64L-G09RevD.01 24-Apr-2013

 --------------------
 #p B2PLYPD3/Def2QZVP
 --------------------

 ---
 h2o
 ---
 Symbolic Z-matrix:
 Charge =  0 Multiplicity = 1

                         Standard orientation:
 ---------------------------------------------------------------------
 Center     Atomic      Atomic             Coordinates (Angstroms)
 Number     Number       Type             X           Y           Z
 ---------------------------------------------------------------------
      1          8           0        0.000000    0.111791    0.000000
      2          1           0        0.768662   -0.460412    0.000000
      3          1           0       -0.768662   -0.433919    0.000000
 ---------------------------------------------------------------------

 SCF Done:  E(RB2PLYPD3) =  -76.3350510316     A.U. after   10 cycles
 E2(B2PLYPD3) =    -0.8963856522D-01 E(B2PLYPD3) =    -0.76424689596829D+02

 The electronic state is 1-A'.
 Alpha  occ. eigenvalues --  -19.72860  -1.15840  -0.62266  -0.46947  -0.39957
 Alpha virt. eigenvalues --    0.04685   0.10226   0.27409   0.30400   0.31458
 Alpha virt. eigenvalues --    0.35702   0.44200   0.50994   0.55865   0.63253
 Alpha virt. eigenvalues --    0.65355   0.81134   0.93772   0.95865   1.05133

 Mulliken charges:
               1
     1  O   -0.443476
     2  H    0.225446
     3  H    0.218030
 Sum of Mulliken charges =   0.00000

 Dipole moment (field-independent basis, Debye):
    X=             -0.0073    Y=             -1.9033    Z=              0.0000  Tot=              1.9033
 Quadrupole moment (field-independent basis, Debye-Ang):
   XX=             -4.2158   YY=             -6.4163   ZZ=             -7.5809
   XY=             -0.0454   XZ=              0.0000   YZ=              0.0000

 1\1\GINC-NODE31\SP\RB2PLYPD3-FC\def2QZVP\H2O1\BOITTIER\26-Aug-2020\0\\
 #p B2PLYPD3/Def2QZVP\\h2o\\0,1\O,0,-5.326605,-0.761397,0.914686\H,0,-4
 .368927,-0.766786,0.947568\H,0,-5.609308,0.133177,0.822726\\Version=ES
 64L-G09RevD.01\State=1-A'\HF=-76.335051\MP2=-76.4246896\RMSD=4.068e-09
 \PG=CS [SG(H2O1)]\\@

 IT IS UNWORTHY OF EXCELLENT MEN TO LOSE HOURS LIKE SLAVES IN THE LABOR

 Normal termination of Gaussian 09 at Wed Aug 26 09:00:16 2020.
