 Gaussian 09, Revision D.01,
 Gaussian 09:  ES64L-G09RevD.01 24-Apr-2013

 --------------------
 #p B2PLYPD3/Def2QZVP
 --------------------

 ---
 h2o
 ---
 Symbolic Z-matrix:
 Charge =  0 Multiplicity = 1

                         Standard orientation:
 ---------------------------------------------------------------------
 Center     Atomic      Atomic             Coordinates (Angstroms)
 Number     Number       Type             X           Y           Z
 ---------------------------------------------------------------------
      1          8           0        0.000000    0.116587    0.000000
      2          1           0        0.743533   -0.490546    0.000000
      3          1           0       -0.743533   -0.442149    0.000000
 ---------------------------------------------------------------------

 SCF Done:  E(RB2PLYPD3) =  -76.3346624527     A.U. after   10 cycles
 E2(B2PLYPD3) =    -0.8957167496D-01 E(B2PLYPD3) =    -0.76424234127648D+02

 The electronic state is 1-A'.
 Alpha  occ. eigenvalues --  -19.72937  -1.16421  -0.61758  -0.47799  -0.40106
 Alpha virt. eigenvalues --    0.04659   0.10352   0.27430   0.30374   0.31135
 Alpha virt. eigenvalues --    0.36660   0.44403   0.50237   0.56542   0.62061
 Alpha virt. eigenvalues --    0.65294   0.81523   0.94236   0.95649   1.04566

 Mulliken charges:
               1
     1  O   -0.429519
     2  H    0.221972
     3  H    0.207547
 Sum of Mulliken charges =   0.00000

 Dipole moment (field-independent basis, Debye):
    X=             -0.0155    Y=             -1.9640    Z=              0.0000  Tot=              1.9641
 Quadrupole moment (field-independent basis, Debye-Ang):
   XX=             -4.4022   YY=             -6.2916   ZZ=             -7.5603
   XY=             -0.0778   XZ=              0.0000   YZ=              0.0000

 1\1\GINC-NODE27\SP\RB2PLYPD3-FC\def2QZVP\H2O1\BOITTIER\26-Aug-2020\0\\
 #p B2PLYPD3/Def2QZVP\\h2o\\0,1\O,0,-5.326605,-0.763608,0.922604\H,0,-4
 .368927,-0.702862,0.897822\H,0,-5.609308,0.104637,0.74581\\Version=ES6
 4L-G09RevD.01\State=1-A'\HF=-76.3346625\MP2=-76.4242341\RMSD=4.797e-09
 \PG=CS [SG(H2O1)]\\@

 ... IT IS NO ONE DREAME THAT

 Normal termination of Gaussian 09 at Wed Aug 26 10:49:17 2020.
