 Gaussian 09, Revision D.01,
 Gaussian 09:  ES64L-G09RevD.01 24-Apr-2013

 --------------------
 #p B2PLYPD3/Def2QZVP
 --------------------

 ---
 h2o
 ---
 Symbolic Z-matrix:
 Charge =  0 Multiplicity = 1

                         Standard orientation:
 ---------------------------------------------------------------------
 Center     Atomic      Atomic             Coordinates (Angstroms)
 Number     Number       Type             X           Y           Z
 ---------------------------------------------------------------------
      1          8           0        0.000000    0.118137    0.000000
      2          1           0        0.784649   -0.432834    0.000000
      3          1           0       -0.784649   -0.512261    0.000000
 ---------------------------------------------------------------------

 SCF Done:  E(RB2PLYPD3) =  -76.3322771019     A.U. after   10 cycles
 E2(B2PLYPD3) =    -0.9074231563D-01 E(B2PLYPD3) =    -0.76423019417512D+02

 The electronic state is 1-A'.
 Alpha  occ. eigenvalues --  -19.73429  -1.14524  -0.60467  -0.46856  -0.39733
 Alpha virt. eigenvalues --    0.04256   0.09954   0.27621   0.30474   0.30477
 Alpha virt. eigenvalues --    0.34729   0.43375   0.50331   0.55713   0.62441
 Alpha virt. eigenvalues --    0.66161   0.80387   0.92751   0.96445   1.02219

 Mulliken charges:
               1
     1  O   -0.462814
     2  H    0.222066
     3  H    0.240748
 Sum of Mulliken charges =   0.00000

 Dipole moment (field-independent basis, Debye):
    X=              0.0235    Y=             -1.9539    Z=              0.0000  Tot=              1.9541
 Quadrupole moment (field-independent basis, Debye-Ang):
   XX=             -4.2227   YY=             -6.3770   ZZ=             -7.6500
   XY=              0.1350   XZ=              0.0000   YZ=              0.0000

 1\1\GINC-NODE18\SP\RB2PLYPD3-FC\def2QZVP\H2O1\BOITTIER\26-Aug-2020\0\\
 #p B2PLYPD3/Def2QZVP\\h2o\\0,1\O,0,-5.326605,-0.765644,0.916287\H,0,-4
 .368927,-0.756937,0.961234\H,0,-5.609308,0.191284,0.784212\\Version=ES
 64L-G09RevD.01\State=1-A'\HF=-76.3322771\MP2=-76.4230194\RMSD=4.875e-0
 9\PG=CS [SG(H2O1)]\\@

 MODELS ARE TO BE USED, NOT BELIEVED.

 Normal termination of Gaussian 09 at Wed Aug 26 12:10:04 2020.
