 Gaussian 09, Revision D.01,
 Gaussian 09:  ES64L-G09RevD.01 24-Apr-2013

 --------------------
 #p B2PLYPD3/Def2QZVP
 --------------------

 ---
 h2o
 ---
 Symbolic Z-matrix:
 Charge =  0 Multiplicity = 1

                         Standard orientation:
 ---------------------------------------------------------------------
 Center     Atomic      Atomic             Coordinates (Angstroms)
 Number     Number       Type             X           Y           Z
 ---------------------------------------------------------------------
      1          8           0        0.000000    0.114145    0.000000
      2          1           0        0.739156   -0.497446    0.000000
      3          1           0       -0.739156   -0.415713    0.000000
 ---------------------------------------------------------------------

 SCF Done:  E(RB2PLYPD3) =  -76.3332943178     A.U. after   10 cycles
 E2(B2PLYPD3) =    -0.8920600210D-01 E(B2PLYPD3) =    -0.76422500319952D+02

 The electronic state is 1-A'.
 Alpha  occ. eigenvalues --  -19.72717  -1.16916  -0.62434  -0.47761  -0.40181
 Alpha virt. eigenvalues --    0.04771   0.10431   0.27335   0.30348   0.31336
 Alpha virt. eigenvalues --    0.36984   0.44766   0.50495   0.56513   0.62421
 Alpha virt. eigenvalues --    0.64995   0.81722   0.94279   0.95496   1.05183

 Mulliken charges:
               1
     1  O   -0.420575
     2  H    0.223226
     3  H    0.197349
 Sum of Mulliken charges =   0.00000

 Dipole moment (field-independent basis, Debye):
    X=             -0.0254    Y=             -1.9428    Z=              0.0000  Tot=              1.9429
 Quadrupole moment (field-independent basis, Debye-Ang):
   XX=             -4.3893   YY=             -6.3059   ZZ=             -7.5370
   XY=             -0.1323   XZ=              0.0000   YZ=              0.0000

 1\1\GINC-NODE29\SP\RB2PLYPD3-FC\def2QZVP\H2O1\BOITTIER\26-Aug-2020\0\\
 #p B2PLYPD3/Def2QZVP\\h2o\\0,1\O,0,-5.326605,-0.762202,0.921117\H,0,-4
 .368927,-0.708914,0.90093\H,0,-5.609308,0.088196,0.76619\\Version=ES64
 L-G09RevD.01\State=1-A'\HF=-76.3332943\MP2=-76.4225003\RMSD=5.639e-09\
 PG=CS [SG(H2O1)]\\@

 LIFE IS A CONTINUAL STRUGGLE AGAINST THE TENDENCY TO PRODUCE ENTROPY.

 Normal termination of Gaussian 09 at Wed Aug 26 11:50:46 2020.
