 Gaussian 09, Revision D.01,
 Gaussian 09:  ES64L-G09RevD.01 24-Apr-2013

 --------------------
 #p B2PLYPD3/Def2QZVP
 --------------------

 ---
 h2o
 ---
 Symbolic Z-matrix:
 Charge =  0 Multiplicity = 1

                         Standard orientation:
 ---------------------------------------------------------------------
 Center     Atomic      Atomic             Coordinates (Angstroms)
 Number     Number       Type             X           Y           Z
 ---------------------------------------------------------------------
      1          8           0        0.000000    0.120555    0.000000
      2          1           0        0.790602   -0.420235    0.000000
      3          1           0       -0.790602   -0.544205    0.000000
 ---------------------------------------------------------------------

 SCF Done:  E(RB2PLYPD3) =  -76.3293218882     A.U. after   10 cycles
 E2(B2PLYPD3) =    -0.9118997724D-01 E(B2PLYPD3) =    -0.76420511865491D+02

 The electronic state is 1-A'.
 Alpha  occ. eigenvalues --  -19.73630  -1.14072  -0.59817  -0.46784  -0.39653
 Alpha virt. eigenvalues --    0.04043   0.09840   0.27688   0.29890   0.30498
 Alpha virt. eigenvalues --    0.34464   0.43134   0.50091   0.55602   0.62180
 Alpha virt. eigenvalues --    0.66430   0.80062   0.92067   0.96659   1.01211

 Mulliken charges:
               1
     1  O   -0.468040
     2  H    0.220396
     3  H    0.247644
 Sum of Mulliken charges =   0.00000

 Dipole moment (field-independent basis, Debye):
    X=              0.0375    Y=             -1.9717    Z=              0.0000  Tot=              1.9721
 Quadrupole moment (field-independent basis, Debye-Ang):
   XX=             -4.2261   YY=             -6.3555   ZZ=             -7.6765
   XY=              0.2101   XZ=              0.0000   YZ=              0.0000

 1\1\GINC-NODE02\SP\RB2PLYPD3-FC\def2QZVP\H2O1\BOITTIER\26-Aug-2020\0\\
 #p B2PLYPD3/Def2QZVP\\h2o\\0,1\O,0,-5.326605,-0.766799,0.920224\H,0,-4
 .368927,-0.758474,0.937215\H,0,-5.609308,0.211303,0.746001\\Version=ES
 64L-G09RevD.01\State=1-A'\HF=-76.3293219\MP2=-76.4205119\RMSD=5.811e-0
 9\PG=CS [SG(H2O1)]\\@

 A SLIP OF THE FOOT YOU MAY SOON RECOVER, BUT A SLIP OF THE TONGUE

 Normal termination of Gaussian 09 at Wed Aug 26 09:27:42 2020.
