 Gaussian 09, Revision D.01,
 Gaussian 09:  ES64L-G09RevD.01 24-Apr-2013

 --------------------
 #p B2PLYPD3/Def2QZVP
 --------------------

 ---
 h2o
 ---
 Symbolic Z-matrix:
 Charge =  0 Multiplicity = 1

                         Standard orientation:
 ---------------------------------------------------------------------
 Center     Atomic      Atomic             Coordinates (Angstroms)
 Number     Number       Type             X           Y           Z
 ---------------------------------------------------------------------
      1          8           0        0.000000    0.118994    0.000000
      2          1           0        0.777589   -0.444005    0.000000
      3          1           0       -0.777589   -0.507949    0.000000
 ---------------------------------------------------------------------

 SCF Done:  E(RB2PLYPD3) =  -76.3330061835     A.U. after   10 cycles
 E2(B2PLYPD3) =    -0.9066270315D-01 E(B2PLYPD3) =    -0.76423668886671D+02

 The electronic state is 1-A'.
 Alpha  occ. eigenvalues --  -19.73424  -1.14714  -0.60446  -0.47075  -0.39782
 Alpha virt. eigenvalues --    0.04290   0.10000   0.27626   0.30463   0.30512
 Alpha virt. eigenvalues --    0.34973   0.43446   0.50174   0.55900   0.62187
 Alpha virt. eigenvalues --    0.66113   0.80563   0.93006   0.96360   1.02343

 Mulliken charges:
               1
     1  O   -0.458823
     2  H    0.221716
     3  H    0.237107
 Sum of Mulliken charges =   0.00000

 Dipole moment (field-independent basis, Debye):
    X=              0.0195    Y=             -1.9664    Z=              0.0000  Tot=              1.9665
 Quadrupole moment (field-independent basis, Debye-Ang):
   XX=             -4.2699   YY=             -6.3497   ZZ=             -7.6411
   XY=              0.1071   XZ=              0.0000   YZ=              0.0000

 1\1\GINC-NODE22\SP\RB2PLYPD3-FC\def2QZVP\H2O1\BOITTIER\26-Aug-2020\0\\
 #p B2PLYPD3/Def2QZVP\\h2o\\0,1\O,0,-5.326605,-0.766325,0.914979\H,0,-4
 .368927,-0.738291,0.975644\H,0,-5.609308,0.183531,0.790259\\Version=ES
 64L-G09RevD.01\State=1-A'\HF=-76.3330062\MP2=-76.4236689\RMSD=4.574e-0
 9\PG=CS [SG(H2O1)]\\@

 SOME PHYSICISTS WOULD PREFER TO COME BACK TO THE IDEA OF AN OBJECTIVE

 Normal termination of Gaussian 09 at Wed Aug 26 11:42:54 2020.
