 Gaussian 09, Revision D.01,
 Gaussian 09:  ES64L-G09RevD.01 24-Apr-2013

 --------------------
 #p B2PLYPD3/Def2QZVP
 --------------------

 ---
 h2o
 ---
 Symbolic Z-matrix:
 Charge =  0 Multiplicity = 1

                         Standard orientation:
 ---------------------------------------------------------------------
 Center     Atomic      Atomic             Coordinates (Angstroms)
 Number     Number       Type             X           Y           Z
 ---------------------------------------------------------------------
      1          8           0        0.000000    0.115720    0.000000
      2          1           0        0.730041   -0.510306    0.000000
      3          1           0       -0.730041   -0.415454    0.000000
 ---------------------------------------------------------------------

 SCF Done:  E(RB2PLYPD3) =  -76.3323708325     A.U. after   10 cycles
 E2(B2PLYPD3) =    -0.8917784909D-01 E(B2PLYPD3) =    -0.76421548681592D+02

 The electronic state is 1-A'.
 Alpha  occ. eigenvalues --  -19.72731  -1.17157  -0.62260  -0.48057  -0.40235
 Alpha virt. eigenvalues --    0.04752   0.10478   0.27332   0.30339   0.31213
 Alpha virt. eigenvalues --    0.37306   0.44876   0.50266   0.56740   0.62029
 Alpha virt. eigenvalues --    0.64958   0.81804   0.94381   0.95463   1.04988

 Mulliken charges:
               1
     1  O   -0.415049
     2  H    0.222925
     3  H    0.192123
 Sum of Mulliken charges =   0.00000

 Dipole moment (field-independent basis, Debye):
    X=             -0.0309    Y=             -1.9628    Z=              0.0000  Tot=              1.9630
 Quadrupole moment (field-independent basis, Debye-Ang):
   XX=             -4.4531   YY=             -6.2615   ZZ=             -7.5293
   XY=             -0.1500   XZ=              0.0000   YZ=              0.0000

 1\1\GINC-NODE28\SP\RB2PLYPD3-FC\def2QZVP\H2O1\BOITTIER\26-Aug-2020\0\\
 #p B2PLYPD3/Def2QZVP\\h2o\\0,1\O,0,-5.326605,-0.762539,0.924525\H,0,-4
 .368927,-0.689438,0.875772\H,0,-5.609308,0.074109,0.736895\\Version=ES
 64L-G09RevD.01\State=1-A'\HF=-76.3323708\MP2=-76.4215487\RMSD=6.010e-0
 9\PG=CS [SG(H2O1)]\\@

 FLOATING POINT NUMBERS ARE LIKE SANDPILES:

 Normal termination of Gaussian 09 at Wed Aug 26 08:31:55 2020.
