 Gaussian 09, Revision D.01,
 Gaussian 09:  ES64L-G09RevD.01 24-Apr-2013

 --------------------
 #p B2PLYPD3/Def2QZVP
 --------------------

 ---
 h2o
 ---
 Symbolic Z-matrix:
 Charge =  0 Multiplicity = 1

                         Standard orientation:
 ---------------------------------------------------------------------
 Center     Atomic      Atomic             Coordinates (Angstroms)
 Number     Number       Type             X           Y           Z
 ---------------------------------------------------------------------
      1          8           0        0.000000    0.112317    0.000000
      2          1           0        0.782928   -0.445297    0.000000
      3          1           0       -0.782928   -0.453241    0.000000
 ---------------------------------------------------------------------

 SCF Done:  E(RB2PLYPD3) =  -76.3346328145     A.U. after   10 cycles
 E2(B2PLYPD3) =    -0.9004367569D-01 E(B2PLYPD3) =    -0.76424676490158D+02

 The electronic state is 1-A'.
 Alpha  occ. eigenvalues --  -19.73035  -1.15170  -0.61779  -0.46637  -0.39824
 Alpha virt. eigenvalues --    0.04550   0.10093   0.27476   0.30437   0.31304
 Alpha virt. eigenvalues --    0.35001   0.43818   0.51050   0.55599   0.63371
 Alpha virt. eigenvalues --    0.65673   0.80693   0.93354   0.96162   1.04420

 Mulliken charges:
               1
     1  O   -0.456155
     2  H    0.227053
     3  H    0.229102
 Sum of Mulliken charges =   0.00000

 Dipole moment (field-independent basis, Debye):
    X=              0.0021    Y=             -1.9000    Z=              0.0000  Tot=              1.9000
 Quadrupole moment (field-independent basis, Debye-Ang):
   XX=             -4.1520   YY=             -6.4481   ZZ=             -7.6125
   XY=              0.0139   XZ=              0.0000   YZ=              0.0000

 1\1\GINC-NODE40\SP\RB2PLYPD3-FC\def2QZVP\H2O1\BOITTIER\26-Aug-2020\0\\
 #p B2PLYPD3/Def2QZVP\\h2o\\0,1\O,0,-5.326605,-0.76185,0.909928\H,0,-4.
 368927,-0.786574,0.98836\H,0,-5.609308,0.160218,0.857949\\Version=ES64
 L-G09RevD.01\State=1-A'\HF=-76.3346328\MP2=-76.4246765\RMSD=3.737e-09\
 PG=CS [SG(H2O1)]\\@

 NEVER TEACH A PIG TO SING.

 Normal termination of Gaussian 09 at Wed Aug 26 09:23:14 2020.
