 Gaussian 09, Revision D.01,
 Gaussian 09:  ES64L-G09RevD.01 24-Apr-2013

 --------------------
 #p B2PLYPD3/Def2QZVP
 --------------------

 ---
 h2o
 ---
 Symbolic Z-matrix:
 Charge =  0 Multiplicity = 1

                         Standard orientation:
 ---------------------------------------------------------------------
 Center     Atomic      Atomic             Coordinates (Angstroms)
 Number     Number       Type             X           Y           Z
 ---------------------------------------------------------------------
      1          8           0        0.000000    0.118772    0.000000
      2          1           0        0.807484   -0.399872    0.000000
      3          1           0       -0.807484   -0.550300    0.000000
 ---------------------------------------------------------------------

 SCF Done:  E(RB2PLYPD3) =  -76.3268152556     A.U. after   10 cycles
 E2(B2PLYPD3) =    -0.9142643689D-01 E(B2PLYPD3) =    -0.76418241692445D+02

 The electronic state is 1-A'.
 Alpha  occ. eigenvalues --  -19.73653  -1.13610  -0.59785  -0.46276  -0.39532
 Alpha virt. eigenvalues --    0.03922   0.09724   0.27657   0.29692   0.30526
 Alpha virt. eigenvalues --    0.33989   0.42943   0.50461   0.55168   0.62733
 Alpha virt. eigenvalues --    0.66573   0.79553   0.91413   0.96816   1.00947

 Mulliken charges:
               1
     1  O   -0.477659
     2  H    0.223246
     3  H    0.254413
 Sum of Mulliken charges =   0.00000

 Dipole moment (field-independent basis, Debye):
    X=              0.0422    Y=             -1.9440    Z=              0.0000  Tot=              1.9445
 Quadrupole moment (field-independent basis, Debye-Ang):
   XX=             -4.1152   YY=             -6.4155   ZZ=             -7.6998
   XY=              0.2636   XZ=              0.0000   YZ=              0.0000

 1\1\GINC-NODE31\SP\RB2PLYPD3-FC\def2QZVP\H2O1\BOITTIER\26-Aug-2020\0\\
 #p B2PLYPD3/Def2QZVP\\h2o\\0,1\O,0,-5.326605,-0.766147,0.915442\H,0,-4
 .368927,-0.793254,0.971477\H,0,-5.609308,0.235649,0.788275\\Version=ES
 64L-G09RevD.01\State=1-A'\HF=-76.3268153\MP2=-76.4182417\RMSD=6.602e-0
 9\PG=CS [SG(H2O1)]\\@

 YOU CAN LEAD A BOY TO COLLEGE....

 Normal termination of Gaussian 09 at Wed Aug 26 08:39:02 2020.
