 Gaussian 09, Revision D.01,
 Gaussian 09:  ES64L-G09RevD.01 24-Apr-2013

 --------------------
 #p B2PLYPD3/Def2QZVP
 --------------------

 ---
 h2o
 ---
 Symbolic Z-matrix:
 Charge =  0 Multiplicity = 1

                         Standard orientation:
 ---------------------------------------------------------------------
 Center     Atomic      Atomic             Coordinates (Angstroms)
 Number     Number       Type             X           Y           Z
 ---------------------------------------------------------------------
      1          8           0        0.000000    0.127496    0.000000
      2          1           0        0.744205   -0.491150    0.000000
      3          1           0       -0.744205   -0.528821    0.000000
 ---------------------------------------------------------------------

 SCF Done:  E(RB2PLYPD3) =  -76.3324973684     A.U. after   10 cycles
 E2(B2PLYPD3) =    -0.9091512640D-01 E(B2PLYPD3) =    -0.76423412494821D+02

 The electronic state is 1-A'.
 Alpha  occ. eigenvalues --  -19.73701  -1.15118  -0.59246  -0.48284  -0.39937
 Alpha virt. eigenvalues --    0.04169   0.10094   0.27762   0.29968   0.30438
 Alpha virt. eigenvalues --    0.35806   0.43439   0.49151   0.56872   0.60360
 Alpha virt. eigenvalues --    0.66253   0.80896   0.93877   0.96316   1.01346

 Mulliken charges:
               1
     1  O   -0.445727
     2  H    0.218185
     3  H    0.227542
 Sum of Mulliken charges =   0.00000

 Dipole moment (field-independent basis, Debye):
    X=              0.0141    Y=             -2.0638    Z=              0.0000  Tot=              2.0638
 Quadrupole moment (field-independent basis, Debye-Ang):
   XX=             -4.5525   YY=             -6.1591   ZZ=             -7.6311
   XY=              0.0571   XZ=              0.0000   YZ=              0.0000

 1\1\GINC-NODE32\SP\RB2PLYPD3-FC\def2QZVP\H2O1\BOITTIER\26-Aug-2020\0\\
 #p B2PLYPD3/Def2QZVP\\h2o\\0,1\O,0,-5.326605,-0.76811,0.93298\H,0,-4.3
 68927,-0.661617,0.843112\H,0,-5.609308,0.135414,0.635798\\Version=ES64
 L-G09RevD.01\State=1-A'\HF=-76.3324974\MP2=-76.4234125\RMSD=4.658e-09\
 PG=CS [SG(H2O1)]\\@

 I WISH TO HAVE NO CONNECTION WITH ANY SHIP THAT DOES NOT SAIL FAST,

 Normal termination of Gaussian 09 at Wed Aug 26 09:19:11 2020.
