 Gaussian 09, Revision D.01,
 Gaussian 09:  ES64L-G09RevD.01 24-Apr-2013

 --------------------
 #p B2PLYPD3/Def2QZVP
 --------------------

 ---
 h2o
 ---
 Symbolic Z-matrix:
 Charge =  0 Multiplicity = 1

                         Standard orientation:
 ---------------------------------------------------------------------
 Center     Atomic      Atomic             Coordinates (Angstroms)
 Number     Number       Type             X           Y           Z
 ---------------------------------------------------------------------
      1          8           0        0.000000    0.111911    0.000000
      2          1           0        0.756711   -0.477076    0.000000
      3          1           0       -0.756711   -0.418212    0.000000
 ---------------------------------------------------------------------

 SCF Done:  E(RB2PLYPD3) =  -76.3344524270     A.U. after   10 cycles
 E2(B2PLYPD3) =    -0.8936961016D-01 E(B2PLYPD3) =    -0.76423822037171D+02

 The electronic state is 1-A'.
 Alpha  occ. eigenvalues --  -19.72745  -1.16363  -0.62540  -0.47229  -0.40061
 Alpha virt. eigenvalues --    0.04757   0.10324   0.27359   0.30373   0.31479
 Alpha virt. eigenvalues --    0.36270   0.44500   0.50886   0.56094   0.63062
 Alpha virt. eigenvalues --    0.65135   0.81437   0.94010   0.95663   1.05318

 Mulliken charges:
               1
     1  O   -0.432811
     2  H    0.225166
     3  H    0.207645
 Sum of Mulliken charges =   0.00000

 Dipole moment (field-independent basis, Debye):
    X=             -0.0169    Y=             -1.9113    Z=              0.0000  Tot=              1.9113
 Quadrupole moment (field-independent basis, Debye-Ang):
   XX=             -4.2756   YY=             -6.3811   ZZ=             -7.5579
   XY=             -0.0991   XZ=              0.0000   YZ=              0.0000

 1\1\GINC-NODE01\SP\RB2PLYPD3-FC\def2QZVP\H2O1\BOITTIER\26-Aug-2020\0\\
 #p B2PLYPD3/Def2QZVP\\h2o\\0,1\O,0,-5.326605,-0.761551,0.913304\H,0,-4
 .368927,-0.745482,0.959256\H,0,-5.609308,0.114345,0.832516\\Version=ES
 64L-G09RevD.01\State=1-A'\HF=-76.3344524\MP2=-76.423822\RMSD=4.873e-09
 \PG=CS [SG(H2O1)]\\@

 NEVER LOSE YOUR IGNORANCE, IT CAN'T BE REPLACED.

 Normal termination of Gaussian 09 at Wed Aug 26 08:34:11 2020.
