 Gaussian 09, Revision D.01,
 Gaussian 09:  ES64L-G09RevD.01 24-Apr-2013

 --------------------
 #p B2PLYPD3/Def2QZVP
 --------------------

 ---
 h2o
 ---
 Symbolic Z-matrix:
 Charge =  0 Multiplicity = 1

                         Standard orientation:
 ---------------------------------------------------------------------
 Center     Atomic      Atomic             Coordinates (Angstroms)
 Number     Number       Type             X           Y           Z
 ---------------------------------------------------------------------
      1          8           0        0.000000    0.115243    0.000000
      2          1           0        0.751780   -0.479584    0.000000
      3          1           0       -0.751780   -0.442361    0.000000
 ---------------------------------------------------------------------

 SCF Done:  E(RB2PLYPD3) =  -76.3350018658     A.U. after   10 cycles
 E2(B2PLYPD3) =    -0.8961090009D-01 E(B2PLYPD3) =    -0.76424612765859D+02

 The electronic state is 1-A'.
 Alpha  occ. eigenvalues --  -19.72927  -1.16206  -0.61885  -0.47532  -0.40055
 Alpha virt. eigenvalues --    0.04664   0.10307   0.27430   0.30384   0.31223
 Alpha virt. eigenvalues --    0.36348   0.44315   0.50440   0.56330   0.62407
 Alpha virt. eigenvalues --    0.65331   0.81414   0.94079   0.95714   1.04697

 Mulliken charges:
               1
     1  O   -0.434340
     2  H    0.222589
     3  H    0.211751
 Sum of Mulliken charges =   0.00000

 Dipole moment (field-independent basis, Debye):
    X=             -0.0114    Y=             -1.9466    Z=              0.0000  Tot=              1.9466
 Quadrupole moment (field-independent basis, Debye-Ang):
   XX=             -4.3445   YY=             -6.3301   ZZ=             -7.5680
   XY=             -0.0611   XZ=              0.0000   YZ=              0.0000

 1\1\GINC-NODE01\SP\RB2PLYPD3-FC\def2QZVP\H2O1\BOITTIER\26-Aug-2020\0\\
 #p B2PLYPD3/Def2QZVP\\h2o\\0,1\O,0,-5.326605,-0.762932,0.921347\H,0,-4
 .368927,-0.723716,0.903814\H,0,-5.609308,0.114666,0.760114\\Version=ES
 64L-G09RevD.01\State=1-A'\HF=-76.3350019\MP2=-76.4246128\RMSD=4.461e-0
 9\PG=CS [SG(H2O1)]\\@

 WE TEND TO MEET ANY NEW SITUATION BY REORGANIZING. IT CAN BE A

 Normal termination of Gaussian 09 at Wed Aug 26 12:19:42 2020.
