 Gaussian 09, Revision D.01,
 Gaussian 09:  ES64L-G09RevD.01 24-Apr-2013

 --------------------
 #p B2PLYPD3/Def2QZVP
 --------------------

 ---
 h2o
 ---
 Symbolic Z-matrix:
 Charge =  0 Multiplicity = 1

                         Standard orientation:
 ---------------------------------------------------------------------
 Center     Atomic      Atomic             Coordinates (Angstroms)
 Number     Number       Type             X           Y           Z
 ---------------------------------------------------------------------
      1          8           0        0.000000    0.118357    0.000000
      2          1           0        0.754127   -0.474721    0.000000
      3          1           0       -0.754127   -0.472136    0.000000
 ---------------------------------------------------------------------

 SCF Done:  E(RB2PLYPD3) =  -76.3350815738     A.U. after   10 cycles
 E2(B2PLYPD3) =    -0.9001781739D-01 E(B2PLYPD3) =    -0.76425099391184D+02

 The electronic state is 1-A'.
 Alpha  occ. eigenvalues --  -19.73166  -1.15748  -0.61114  -0.47636  -0.39989
 Alpha virt. eigenvalues --    0.04521   0.10226   0.27529   0.30409   0.30908
 Alpha virt. eigenvalues --    0.36057   0.43981   0.50098   0.56398   0.61921
 Alpha virt. eigenvalues --    0.65649   0.81209   0.93938   0.95913   1.03690

 Mulliken charges:
               1
     1  O   -0.441120
     2  H    0.220915
     3  H    0.220205
 Sum of Mulliken charges =   0.00000

 Dipole moment (field-independent basis, Debye):
    X=             -0.0008    Y=             -1.9748    Z=              0.0000  Tot=              1.9748
 Quadrupole moment (field-independent basis, Debye-Ang):
   XX=             -4.3761   YY=             -6.2997   ZZ=             -7.5916
   XY=             -0.0042   XZ=              0.0000   YZ=              0.0000

 1\1\GINC-NODE07\SP\RB2PLYPD3-FC\def2QZVP\H2O1\BOITTIER\26-Aug-2020\0\\
 #p B2PLYPD3/Def2QZVP\\h2o\\0,1\O,0,-5.326605,-0.765086,0.921369\H,0,-4
 .368927,-0.707805,0.916886\H,0,-5.609308,0.133226,0.746717\\Version=ES
 64L-G09RevD.01\State=1-A'\HF=-76.3350816\MP2=-76.4250994\RMSD=4.155e-0
 9\PG=CS [SG(H2O1)]\\@

 BULLDOZER: SOMEONE WHO SLEEPS THROUGH SPEECHES.

 Normal termination of Gaussian 09 at Wed Aug 26 09:31:11 2020.
