 Gaussian 09, Revision D.01,
 Gaussian 09:  ES64L-G09RevD.01 24-Apr-2013

 --------------------
 #p B2PLYPD3/Def2QZVP
 --------------------

 ---
 h2o
 ---
 Symbolic Z-matrix:
 Charge =  0 Multiplicity = 1

                         Standard orientation:
 ---------------------------------------------------------------------
 Center     Atomic      Atomic             Coordinates (Angstroms)
 Number     Number       Type             X           Y           Z
 ---------------------------------------------------------------------
      1          8           0        0.000000    0.116017    0.000000
      2          1           0        0.756746   -0.473307    0.000000
      3          1           0       -0.756746   -0.454827    0.000000
 ---------------------------------------------------------------------

 SCF Done:  E(RB2PLYPD3) =  -76.3352033393     A.U. after   10 cycles
 E2(B2PLYPD3) =    -0.8981274612D-01 E(B2PLYPD3) =    -0.76425016085421D+02

 The electronic state is 1-A'.
 Alpha  occ. eigenvalues --  -19.73030  -1.15898  -0.61592  -0.47455  -0.40001
 Alpha virt. eigenvalues --    0.04601   0.10250   0.27473   0.30400   0.31124
 Alpha virt. eigenvalues --    0.36070   0.44123   0.50381   0.56262   0.62348
 Alpha virt. eigenvalues --    0.65492   0.81264   0.93938   0.95835   1.04311

 Mulliken charges:
               1
     1  O   -0.439767
     2  H    0.222474
     3  H    0.217293
 Sum of Mulliken charges =   0.00000

 Dipole moment (field-independent basis, Debye):
    X=             -0.0057    Y=             -1.9512    Z=              0.0000  Tot=              1.9512
 Quadrupole moment (field-independent basis, Debye-Ang):
   XX=             -4.3312   YY=             -6.3346   ZZ=             -7.5823
   XY=             -0.0304   XZ=              0.0000   YZ=              0.0000

 1\1\GINC-NODE18\SP\RB2PLYPD3-FC\def2QZVP\H2O1\BOITTIER\26-Aug-2020\0\\
 #p B2PLYPD3/Def2QZVP\\h2o\\0,1\O,0,-5.326605,-0.762832,0.924256\H,0,-4
 .368927,-0.733157,0.880217\H,0,-5.609308,0.122505,0.737748\\Version=ES
 64L-G09RevD.01\State=1-A'\HF=-76.3352033\MP2=-76.4250161\RMSD=4.155e-0
 9\PG=CS [SG(H2O1)]\\@

 THERE'S SMALL CHOICE IN A BOWL OF ROTTEN APPLES.

 Normal termination of Gaussian 09 at Wed Aug 26 10:52:18 2020.
