 Gaussian 09, Revision D.01,
 Gaussian 09:  ES64L-G09RevD.01 24-Apr-2013

 --------------------
 #p B2PLYPD3/Def2QZVP
 --------------------

 ---
 h2o
 ---
 Symbolic Z-matrix:
 Charge =  0 Multiplicity = 1

                         Standard orientation:
 ---------------------------------------------------------------------
 Center     Atomic      Atomic             Coordinates (Angstroms)
 Number     Number       Type             X           Y           Z
 ---------------------------------------------------------------------
      1          8           0        0.000000    0.110330    0.000000
      2          1           0        0.749366   -0.486841    0.000000
      3          1           0       -0.749366   -0.395801    0.000000
 ---------------------------------------------------------------------

 SCF Done:  E(RB2PLYPD3) =  -76.3328248604     A.U. after   10 cycles
 E2(B2PLYPD3) =    -0.8904005501D-01 E(B2PLYPD3) =    -0.76421864915440D+02

 The electronic state is 1-A'.
 Alpha  occ. eigenvalues --  -19.72556  -1.16885  -0.63092  -0.47300  -0.40149
 Alpha virt. eigenvalues --    0.04853   0.10408   0.27278   0.30345   0.31601
 Alpha virt. eigenvalues --    0.36669   0.44852   0.51039   0.56151   0.63244
 Alpha virt. eigenvalues --    0.64863   0.81665   0.94114   0.95510   1.05643

 Mulliken charges:
               1
     1  O   -0.422440
     2  H    0.225628
     3  H    0.196812
 Sum of Mulliken charges =   0.00000

 Dipole moment (field-independent basis, Debye):
    X=             -0.0259    Y=             -1.8995    Z=              0.0000  Tot=              1.8997
 Quadrupole moment (field-independent basis, Debye-Ang):
   XX=             -4.2897   YY=             -6.3764   ZZ=             -7.5343
   XY=             -0.1529   XZ=              0.0000   YZ=              0.0000

 1\1\GINC-NODE11\SP\RB2PLYPD3-FC\def2QZVP\H2O1\BOITTIER\26-Aug-2020\0\\
 #p B2PLYPD3/Def2QZVP\\h2o\\0,1\O,0,-5.326605,-0.760379,0.914552\H,0,-4
 .368927,-0.744271,0.942037\H,0,-5.609308,0.094371,0.829705\\Version=ES
 64L-G09RevD.01\State=1-A'\HF=-76.3328249\MP2=-76.4218649\RMSD=5.839e-0
 9\PG=CS [SG(H2O1)]\\@

 THESE ARE THE TIMES THAT TRY MENS SOULS.

 Normal termination of Gaussian 09 at Wed Aug 26 09:19:56 2020.
