 Gaussian 09, Revision D.01,
 Gaussian 09:  ES64L-G09RevD.01 24-Apr-2013

 --------------------
 #p B2PLYPD3/Def2QZVP
 --------------------

 ---
 h2o
 ---
 Symbolic Z-matrix:
 Charge =  0 Multiplicity = 1

                         Standard orientation:
 ---------------------------------------------------------------------
 Center     Atomic      Atomic             Coordinates (Angstroms)
 Number     Number       Type             X           Y           Z
 ---------------------------------------------------------------------
      1          8           0        0.000000    0.122214    0.000000
      2          1           0        0.811017   -0.392739    0.000000
      3          1           0       -0.811017   -0.584971    0.000000
 ---------------------------------------------------------------------

 SCF Done:  E(RB2PLYPD3) =  -76.3225752939     A.U. after   10 cycles
 E2(B2PLYPD3) =    -0.9194839172D-01 E(B2PLYPD3) =    -0.76414523685594D+02

 The electronic state is 1-A'.
 Alpha  occ. eigenvalues --  -19.73887  -1.13198  -0.59015  -0.46283  -0.39467
 Alpha virt. eigenvalues --    0.03639   0.09603   0.27699   0.28915   0.30545
 Alpha virt. eigenvalues --    0.33897   0.42726   0.50066   0.55101   0.62301
 Alpha virt. eigenvalues --    0.66838   0.79241   0.90504   0.96918   1.00276

 Mulliken charges:
               1
     1  O   -0.480485
     2  H    0.221728
     3  H    0.258756
 Sum of Mulliken charges =   0.00000

 Dipole moment (field-independent basis, Debye):
    X=              0.0565    Y=             -1.9717    Z=              0.0000  Tot=              1.9725
 Quadrupole moment (field-independent basis, Debye-Ang):
   XX=             -4.1449   YY=             -6.3704   ZZ=             -7.7270
   XY=              0.3328   XZ=              0.0000   YZ=              0.0000

 1\1\GINC-NODE11\SP\RB2PLYPD3-FC\def2QZVP\H2O1\BOITTIER\26-Aug-2020\0\\
 #p B2PLYPD3/Def2QZVP\\h2o\\0,1\O,0,-5.326605,-0.768495,0.914939\H,0,-4
 .368927,-0.780703,0.989955\H,0,-5.609308,0.26066,0.777911\\Version=ES6
 4L-G09RevD.01\State=1-A'\HF=-76.3225753\MP2=-76.4145237\RMSD=7.470e-09
 \PG=CS [SG(H2O1)]\\@

 The hours that make us happy make us wise.

 Normal termination of Gaussian 09 at Wed Aug 26 08:33:38 2020.
