 Gaussian 09, Revision D.01,
 Gaussian 09:  ES64L-G09RevD.01 24-Apr-2013

 --------------------
 #p B2PLYPD3/Def2QZVP
 --------------------

 ---
 h2o
 ---
 Symbolic Z-matrix:
 Charge =  0 Multiplicity = 1

                         Standard orientation:
 ---------------------------------------------------------------------
 Center     Atomic      Atomic             Coordinates (Angstroms)
 Number     Number       Type             X           Y           Z
 ---------------------------------------------------------------------
      1          8           0        0.000000    0.115501    0.000000
      2          1           0        0.739738   -0.496142    0.000000
      3          1           0       -0.739738   -0.427864    0.000000
 ---------------------------------------------------------------------

 SCF Done:  E(RB2PLYPD3) =  -76.3339523081     A.U. after   10 cycles
 E2(B2PLYPD3) =    -0.8936595814D-01 E(B2PLYPD3) =    -0.76423318266224D+02

 The electronic state is 1-A'.
 Alpha  occ. eigenvalues --  -19.72820  -1.16725  -0.62099  -0.47827  -0.40155
 Alpha virt. eigenvalues --    0.04720   0.10403   0.27379   0.30359   0.31232
 Alpha virt. eigenvalues --    0.36893   0.44613   0.50340   0.56565   0.62194
 Alpha virt. eigenvalues --    0.65125   0.81648   0.94293   0.95551   1.04905

 Mulliken charges:
               1
     1  O   -0.423986
     2  H    0.222550
     3  H    0.201436
 Sum of Mulliken charges =   0.00000

 Dipole moment (field-independent basis, Debye):
    X=             -0.0217    Y=             -1.9556    Z=              0.0000  Tot=              1.9558
 Quadrupole moment (field-independent basis, Debye-Ang):
   XX=             -4.4051   YY=             -6.2929   ZZ=             -7.5463
   XY=             -0.1098   XZ=              0.0000   YZ=              0.0000

 1\1\GINC-NODE35\SP\RB2PLYPD3-FC\def2QZVP\H2O1\BOITTIER\26-Aug-2020\0\\
 #p B2PLYPD3/Def2QZVP\\h2o\\0,1\O,0,-5.326605,-0.763026,0.921755\H,0,-4
 .368927,-0.701886,0.900924\H,0,-5.609308,0.094344,0.756065\\Version=ES
 64L-G09RevD.01\State=1-A'\HF=-76.3339523\MP2=-76.4233183\RMSD=5.293e-0
 9\PG=CS [SG(H2O1)]\\@

 IT IS THE GODS' CUSTOM TO BRING LOW ALL THINGS OF SURPASSING GREATNESS.

 Normal termination of Gaussian 09 at Wed Aug 26 11:03:40 2020.
