 Gaussian 09, Revision D.01,
 Gaussian 09:  ES64L-G09RevD.01 24-Apr-2013

 --------------------
 #p B2PLYPD3/Def2QZVP
 --------------------

 ---
 h2o
 ---
 Symbolic Z-matrix:
 Charge =  0 Multiplicity = 1

                         Standard orientation:
 ---------------------------------------------------------------------
 Center     Atomic      Atomic             Coordinates (Angstroms)
 Number     Number       Type             X           Y           Z
 ---------------------------------------------------------------------
      1          8           0        0.000000    0.120279    0.000000
      2          1           0        0.751425   -0.478280    0.000000
      3          1           0       -0.751425   -0.483951    0.000000
 ---------------------------------------------------------------------

 SCF Done:  E(RB2PLYPD3) =  -76.3348152157     A.U. after   10 cycles
 E2(B2PLYPD3) =    -0.9018064990D-01 E(B2PLYPD3) =    -0.76424995865574D+02

 The electronic state is 1-A'.
 Alpha  occ. eigenvalues --  -19.73272  -1.15646  -0.60733  -0.47794  -0.39984
 Alpha virt. eigenvalues --    0.04456   0.10208   0.27573   0.30414   0.30726
 Alpha virt. eigenvalues --    0.36058   0.43878   0.49875   0.56517   0.61570
 Alpha virt. eigenvalues --    0.65768   0.81167   0.93951   0.95977   1.03195

 Mulliken charges:
               1
     1  O   -0.441738
     2  H    0.220104
     3  H    0.221635
 Sum of Mulliken charges =   0.00000

 Dipole moment (field-independent basis, Debye):
    X=              0.0019    Y=             -1.9943    Z=              0.0000  Tot=              1.9943
 Quadrupole moment (field-independent basis, Debye-Ang):
   XX=             -4.4158   YY=             -6.2691   ZZ=             -7.5983
   XY=              0.0091   XZ=              0.0000   YZ=              0.0000

 1\1\GINC-NODE34\SP\RB2PLYPD3-FC\def2QZVP\H2O1\BOITTIER\26-Aug-2020\0\\
 #p B2PLYPD3/Def2QZVP\\h2o\\0,1\O,0,-5.326605,-0.765577,0.925158\H,0,-4
 .368927,-0.698392,0.889783\H,0,-5.609308,0.131668,0.713583\\Version=ES
 64L-G09RevD.01\State=1-A'\HF=-76.3348152\MP2=-76.4249959\RMSD=4.237e-0
 9\PG=CS [SG(H2O1)]\\@

 EDUCATION IS NOT TRAINING BUT RATHER THE PROCESS THAT EQUIPS YOU TO

 Normal termination of Gaussian 09 at Wed Aug 26 11:19:10 2020.
