 Gaussian 09, Revision D.01,
 Gaussian 09:  ES64L-G09RevD.01 24-Apr-2013

 --------------------
 #p B2PLYPD3/Def2QZVP
 --------------------

 ---
 h2o
 ---
 Symbolic Z-matrix:
 Charge =  0 Multiplicity = 1

                         Standard orientation:
 ---------------------------------------------------------------------
 Center     Atomic      Atomic             Coordinates (Angstroms)
 Number     Number       Type             X           Y           Z
 ---------------------------------------------------------------------
      1          8           0        0.000000    0.119922    0.000000
      2          1           0        0.738511   -0.497044    0.000000
      3          1           0       -0.738511   -0.462332    0.000000
 ---------------------------------------------------------------------

 SCF Done:  E(RB2PLYPD3) =  -76.3346795040     A.U. after   10 cycles
 E2(B2PLYPD3) =    -0.8984227179D-01 E(B2PLYPD3) =    -0.76424521775767D+02

 The electronic state is 1-A'.
 Alpha  occ. eigenvalues --  -19.73122  -1.16248  -0.61083  -0.48092  -0.40097
 Alpha virt. eigenvalues --    0.04553   0.10329   0.27508   0.30385   0.30857
 Alpha virt. eigenvalues --    0.36678   0.44213   0.49856   0.56769   0.61439
 Alpha virt. eigenvalues --    0.65497   0.81444   0.94328   0.95744   1.03816

 Mulliken charges:
               1
     1  O   -0.431165
     2  H    0.220624
     3  H    0.210540
 Sum of Mulliken charges =   0.00000

 Dipole moment (field-independent basis, Debye):
    X=             -0.0118    Y=             -1.9984    Z=              0.0000  Tot=              1.9984
 Quadrupole moment (field-independent basis, Debye-Ang):
   XX=             -4.4721   YY=             -6.2390   ZZ=             -7.5716
   XY=             -0.0544   XZ=              0.0000   YZ=              0.0000

 1\1\GINC-NODE21\SP\RB2PLYPD3-FC\def2QZVP\H2O1\BOITTIER\26-Aug-2020\0\\
 #p B2PLYPD3/Def2QZVP\\h2o\\0,1\O,0,-5.326605,-0.765762,0.923308\H,0,-4
 .368927,-0.673161,0.905334\H,0,-5.609308,0.109398,0.726861\\Version=ES
 64L-G09RevD.01\State=1-A'\HF=-76.3346795\MP2=-76.4245218\RMSD=4.685e-0
 9\PG=CS [SG(H2O1)]\\@

 AN AIRPLANE IS A COLLECTION OF SPARE PARTS

 Normal termination of Gaussian 09 at Wed Aug 26 12:07:03 2020.
