 Gaussian 09, Revision D.01,
 Gaussian 09:  ES64L-G09RevD.01 24-Apr-2013

 --------------------
 #p B2PLYPD3/Def2QZVP
 --------------------

 ---
 h2o
 ---
 Symbolic Z-matrix:
 Charge =  0 Multiplicity = 1

                         Standard orientation:
 ---------------------------------------------------------------------
 Center     Atomic      Atomic             Coordinates (Angstroms)
 Number     Number       Type             X           Y           Z
 ---------------------------------------------------------------------
      1          8           0        0.000000    0.113641    0.000000
      2          1           0        0.801281   -0.413982    0.000000
      3          1           0       -0.801281   -0.495149    0.000000
 ---------------------------------------------------------------------

 SCF Done:  E(RB2PLYPD3) =  -76.3317657385     A.U. after   10 cycles
 E2(B2PLYPD3) =    -0.9066297976D-01 E(B2PLYPD3) =    -0.76422428718259D+02

 The electronic state is 1-A'.
 Alpha  occ. eigenvalues --  -19.73285  -1.14298  -0.61008  -0.46245  -0.39645
 Alpha virt. eigenvalues --    0.04296   0.09901   0.27552   0.30488   0.30799
 Alpha virt. eigenvalues --    0.34208   0.43341   0.51060   0.55235   0.63432
 Alpha virt. eigenvalues --    0.66118   0.80011   0.92528   0.96571   1.02706

 Mulliken charges:
               1
     1  O   -0.471155
     2  H    0.226222
     3  H    0.244933
 Sum of Mulliken charges =   0.00000

 Dipole moment (field-independent basis, Debye):
    X=              0.0211    Y=             -1.9010    Z=              0.0000  Tot=              1.9011
 Quadrupole moment (field-independent basis, Debye-Ang):
   XX=             -4.0767   YY=             -6.4751   ZZ=             -7.6575
   XY=              0.1446   XZ=              0.0000   YZ=              0.0000

 1\1\GINC-NODE34\SP\RB2PLYPD3-FC\def2QZVP\H2O1\BOITTIER\26-Aug-2020\0\\
 #p B2PLYPD3/Def2QZVP\\h2o\\0,1\O,0,-5.326605,-0.762598,0.915882\H,0,-4
 .368927,-0.811367,0.946069\H,0,-5.609308,0.196977,0.80647\\Version=ES6
 4L-G09RevD.01\State=1-A'\HF=-76.3317657\MP2=-76.4224287\RMSD=4.984e-09
 \PG=CS [SG(H2O1)]\\@

 One man practicing sportsmanship is far better than 50 preaching it.

 Normal termination of Gaussian 09 at Wed Aug 26 08:54:32 2020.
