 Gaussian 09, Revision D.01,
 Gaussian 09:  ES64L-G09RevD.01 24-Apr-2013

 --------------------
 #p B2PLYPD3/Def2QZVP
 --------------------

 ---
 h2o
 ---
 Symbolic Z-matrix:
 Charge =  0 Multiplicity = 1

                         Standard orientation:
 ---------------------------------------------------------------------
 Center     Atomic      Atomic             Coordinates (Angstroms)
 Number     Number       Type             X           Y           Z
 ---------------------------------------------------------------------
      1          8           0        0.000000    0.117098    0.000000
      2          1           0        0.755421   -0.474408    0.000000
      3          1           0       -0.755421   -0.462378    0.000000
 ---------------------------------------------------------------------

 SCF Done:  E(RB2PLYPD3) =  -76.3351769111     A.U. after   10 cycles
 E2(B2PLYPD3) =    -0.8990358944D-01 E(B2PLYPD3) =    -0.76425080500565D+02

 The electronic state is 1-A'.
 Alpha  occ. eigenvalues --  -19.73092  -1.15834  -0.61374  -0.47542  -0.39996
 Alpha virt. eigenvalues --    0.04565   0.10240   0.27498   0.30404   0.31026
 Alpha virt. eigenvalues --    0.36072   0.44060   0.50247   0.56328   0.62148
 Alpha virt. eigenvalues --    0.65563   0.81242   0.93942   0.95867   1.04031

 Mulliken charges:
               1
     1  O   -0.440314
     2  H    0.221828
     3  H    0.218486
 Sum of Mulliken charges =   0.00000

 Dipole moment (field-independent basis, Debye):
    X=             -0.0038    Y=             -1.9622    Z=              0.0000  Tot=              1.9622
 Quadrupole moment (field-independent basis, Debye-Ang):
   XX=             -4.3525   YY=             -6.3182   ZZ=             -7.5863
   XY=             -0.0197   XZ=              0.0000   YZ=              0.0000

 1\1\GINC-NODE13\SP\RB2PLYPD3-FC\def2QZVP\H2O1\BOITTIER\26-Aug-2020\0\\
 #p B2PLYPD3/Def2QZVP\\h2o\\0,1\O,0,-5.326605,-0.763492,0.924648\H,0,-4
 .368927,-0.724766,0.881138\H,0,-5.609308,0.124685,0.730551\\Version=ES
 64L-G09RevD.01\State=1-A'\HF=-76.3351769\MP2=-76.4250805\RMSD=4.145e-0
 9\PG=CS [SG(H2O1)]\\@

 IF YOU GIVE A BOY AND A PIG EVERYTHING THEY WANT,

 Normal termination of Gaussian 09 at Wed Aug 26 10:17:01 2020.
