 Gaussian 09, Revision D.01,
 Gaussian 09:  ES64L-G09RevD.01 24-Apr-2013

 --------------------
 #p B2PLYPD3/Def2QZVP
 --------------------

 ---
 h2o
 ---
 Symbolic Z-matrix:
 Charge =  0 Multiplicity = 1

                         Standard orientation:
 ---------------------------------------------------------------------
 Center     Atomic      Atomic             Coordinates (Angstroms)
 Number     Number       Type             X           Y           Z
 ---------------------------------------------------------------------
      1          8           0        0.000000    0.124028    0.000000
      2          1           0        0.743618   -0.489388    0.000000
      3          1           0       -0.743618   -0.502833    0.000000
 ---------------------------------------------------------------------

 SCF Done:  E(RB2PLYPD3) =  -76.3340531909     A.U. after   10 cycles
 E2(B2PLYPD3) =    -0.9045792393D-01 E(B2PLYPD3) =    -0.76424511114809D+02

 The electronic state is 1-A'.
 Alpha  occ. eigenvalues --  -19.73458  -1.15542  -0.60035  -0.48158  -0.39992
 Alpha virt. eigenvalues --    0.04341   0.10190   0.27655   0.30391   0.30419
 Alpha virt. eigenvalues --    0.36130   0.43730   0.49469   0.56797   0.60867
 Alpha virt. eigenvalues --    0.65953   0.81116   0.94077   0.96077   1.02379

 Mulliken charges:
               1
     1  O   -0.441140
     2  H    0.218793
     3  H    0.222348
 Sum of Mulliken charges =   0.00000

 Dipole moment (field-independent basis, Debye):
    X=              0.0048    Y=             -2.0332    Z=              0.0000  Tot=              2.0332
 Quadrupole moment (field-independent basis, Debye-Ang):
   XX=             -4.5059   YY=             -6.2023   ZZ=             -7.6075
   XY=              0.0208   XZ=              0.0000   YZ=              0.0000

 1\1\GINC-NODE36\SP\RB2PLYPD3-FC\def2QZVP\H2O1\BOITTIER\26-Aug-2020\0\\
 #p B2PLYPD3/Def2QZVP\\h2o\\0,1\O,0,-5.326605,-0.767859,0.926297\H,0,-4
 .368927,-0.662534,0.894574\H,0,-5.609308,0.132321,0.690338\\Version=ES
 64L-G09RevD.01\State=1-A'\HF=-76.3340532\MP2=-76.4245111\RMSD=4.462e-0
 9\PG=CS [SG(H2O1)]\\@

 Time has a wonderful way of weeding out the trivial.

 Normal termination of Gaussian 09 at Wed Aug 26 09:11:26 2020.
