 Gaussian 09, Revision D.01,
 Gaussian 09:  ES64L-G09RevD.01 24-Apr-2013

 --------------------
 #p B2PLYPD3/Def2QZVP
 --------------------

 ---
 h2o
 ---
 Symbolic Z-matrix:
 Charge =  0 Multiplicity = 1

                         Standard orientation:
 ---------------------------------------------------------------------
 Center     Atomic      Atomic             Coordinates (Angstroms)
 Number     Number       Type             X           Y           Z
 ---------------------------------------------------------------------
      1          8           0        0.000000    0.117691    0.000000
      2          1           0        0.744365   -0.488935    0.000000
      3          1           0       -0.744365   -0.452595    0.000000
 ---------------------------------------------------------------------

 SCF Done:  E(RB2PLYPD3) =  -76.3348863033     A.U. after   10 cycles
 E2(B2PLYPD3) =    -0.8971550254D-01 E(B2PLYPD3) =    -0.76424601805821D+02

 The electronic state is 1-A'.
 Alpha  occ. eigenvalues --  -19.73023  -1.16252  -0.61481  -0.47838  -0.40082
 Alpha virt. eigenvalues --    0.04611   0.10324   0.27467   0.30383   0.31035
 Alpha virt. eigenvalues --    0.36556   0.44276   0.50119   0.56570   0.61888
 Alpha virt. eigenvalues --    0.65409   0.81451   0.94213   0.95715   1.04250

 Mulliken charges:
               1
     1  O   -0.432198
     2  H    0.221400
     3  H    0.210798
 Sum of Mulliken charges =   0.00000

 Dipole moment (field-independent basis, Debye):
    X=             -0.0118    Y=             -1.9741    Z=              0.0000  Tot=              1.9741
 Quadrupole moment (field-independent basis, Debye-Ang):
   XX=             -4.4135   YY=             -6.2813   ZZ=             -7.5687
   XY=             -0.0582   XZ=              0.0000   YZ=              0.0000

 1\1\GINC-NODE19\SP\RB2PLYPD3-FC\def2QZVP\H2O1\BOITTIER\26-Aug-2020\0\\
 #p B2PLYPD3/Def2QZVP\\h2o\\0,1\O,0,-5.326605,-0.764403,0.922479\H,0,-4
 .368927,-0.696775,0.903698\H,0,-5.609308,0.11126,0.741928\\Version=ES6
 4L-G09RevD.01\State=1-A'\HF=-76.3348863\MP2=-76.4246018\RMSD=4.579e-09
 \PG=CS [SG(H2O1)]\\@

 KEEP CLOSE TO NATURES HEART, YOURSELF;

 Normal termination of Gaussian 09 at Wed Aug 26 10:25:58 2020.
