 Gaussian 09, Revision D.01,
 Gaussian 09:  ES64L-G09RevD.01 24-Apr-2013

 --------------------
 #p B2PLYPD3/Def2QZVP
 --------------------

 ---
 h2o
 ---
 Symbolic Z-matrix:
 Charge =  0 Multiplicity = 1

                         Standard orientation:
 ---------------------------------------------------------------------
 Center     Atomic      Atomic             Coordinates (Angstroms)
 Number     Number       Type             X           Y           Z
 ---------------------------------------------------------------------
      1          8           0        0.000000    0.121554    0.000000
      2          1           0        0.760367   -0.464872    0.000000
      3          1           0       -0.760367   -0.507563    0.000000
 ---------------------------------------------------------------------

 SCF Done:  E(RB2PLYPD3) =  -76.3338087795     A.U. after   10 cycles
 E2(B2PLYPD3) =    -0.9054701059D-01 E(B2PLYPD3) =    -0.76424355790082D+02

 The electronic state is 1-A'.
 Alpha  occ. eigenvalues --  -19.73441  -1.15136  -0.60260  -0.47623  -0.39891
 Alpha virt. eigenvalues --    0.04325   0.10097   0.27642   0.30440   0.30457
 Alpha virt. eigenvalues --    0.35572   0.43594   0.49782   0.56353   0.61511
 Alpha virt. eigenvalues --    0.66033   0.80889   0.93532   0.96209   1.02367

 Mulliken charges:
               1
     1  O   -0.449604
     2  H    0.219410
     3  H    0.230194
 Sum of Mulliken charges =   0.00000

 Dipole moment (field-independent basis, Debye):
    X=              0.0141    Y=             -2.0006    Z=              0.0000  Tot=              2.0007
 Quadrupole moment (field-independent basis, Debye-Ang):
   XX=             -4.3904   YY=             -6.2751   ZZ=             -7.6234
   XY=              0.0687   XZ=              0.0000   YZ=              0.0000

 1\1\GINC-NODE07\SP\RB2PLYPD3-FC\def2QZVP\H2O1\BOITTIER\26-Aug-2020\0\\
 #p B2PLYPD3/Def2QZVP\\h2o\\0,1\O,0,-5.326605,-0.766194,0.926195\H,0,-4
 .368927,-0.709163,0.885523\H,0,-5.609308,0.152309,0.701745\\Version=ES
 64L-G09RevD.01\State=1-A'\HF=-76.3338088\MP2=-76.4243558\RMSD=4.411e-0
 9\PG=CS [SG(H2O1)]\\@

 TWO ROADS DIVERGED IN A WOOD, AND I--

 Normal termination of Gaussian 09 at Wed Aug 26 11:39:53 2020.
