 Gaussian 09, Revision D.01,
 Gaussian 09:  ES64L-G09RevD.01 24-Apr-2013

 --------------------
 #p B2PLYPD3/Def2QZVP
 --------------------

 ---
 h2o
 ---
 Symbolic Z-matrix:
 Charge =  0 Multiplicity = 1

                         Standard orientation:
 ---------------------------------------------------------------------
 Center     Atomic      Atomic             Coordinates (Angstroms)
 Number     Number       Type             X           Y           Z
 ---------------------------------------------------------------------
      1          8           0        0.000000    0.120294    0.000000
      2          1           0        0.749700   -0.482288    0.000000
      3          1           0       -0.749700   -0.480060    0.000000
 ---------------------------------------------------------------------

 SCF Done:  E(RB2PLYPD3) =  -76.3348547160     A.U. after   10 cycles
 E2(B2PLYPD3) =    -0.9014215516D-01 E(B2PLYPD3) =    -0.76424996871172D+02

 The electronic state is 1-A'.
 Alpha  occ. eigenvalues --  -19.73257  -1.15717  -0.60766  -0.47837  -0.39998
 Alpha virt. eigenvalues --    0.04468   0.10223   0.27567   0.30411   0.30741
 Alpha virt. eigenvalues --    0.36137   0.43915   0.49865   0.56554   0.61542
 Alpha virt. eigenvalues --    0.65739   0.81203   0.94008   0.95948   1.03266

 Mulliken charges:
               1
     1  O   -0.440474
     2  H    0.220541
     3  H    0.219934
 Sum of Mulliken charges =   0.00000

 Dipole moment (field-independent basis, Debye):
    X=             -0.0007    Y=             -1.9955    Z=              0.0000  Tot=              1.9955
 Quadrupole moment (field-independent basis, Debye-Ang):
   XX=             -4.4243   YY=             -6.2644   ZZ=             -7.5951
   XY=             -0.0035   XZ=              0.0000   YZ=              0.0000

 1\1\GINC-NODE26\SP\RB2PLYPD3-FC\def2QZVP\H2O1\BOITTIER\26-Aug-2020\0\\
 #p B2PLYPD3/Def2QZVP\\h2o\\0,1\O,0,-5.326605,-0.764836,0.927833\H,0,-4
 .368927,-0.70213,0.86399\H,0,-5.609308,0.123546,0.696897\\Version=ES64
 L-G09RevD.01\State=1-A'\HF=-76.3348547\MP2=-76.4249969\RMSD=4.263e-09\
 PG=CS [SG(H2O1)]\\@

 I FIND THAT THE THREE TRULY GREAT TIMES FOR THINKING THOUGHTS

 Normal termination of Gaussian 09 at Wed Aug 26 08:31:31 2020.
