 Gaussian 09, Revision D.01,
 Gaussian 09:  ES64L-G09RevD.01 24-Apr-2013

 --------------------
 #p B2PLYPD3/Def2QZVP
 --------------------

 ---
 h2o
 ---
 Symbolic Z-matrix:
 Charge =  0 Multiplicity = 1

                         Standard orientation:
 ---------------------------------------------------------------------
 Center     Atomic      Atomic             Coordinates (Angstroms)
 Number     Number       Type             X           Y           Z
 ---------------------------------------------------------------------
      1          8           0        0.000000    0.120485    0.000000
      2          1           0        0.772386   -0.460465    0.000000
      3          1           0       -0.772386   -0.503416    0.000000
 ---------------------------------------------------------------------

 SCF Done:  E(RB2PLYPD3) =  -76.3333281255     A.U. after   10 cycles
 E2(B2PLYPD3) =    -0.9070620738D-01 E(B2PLYPD3) =    -0.76424034332843D+02

 The electronic state is 1-A'.
 Alpha  occ. eigenvalues --  -19.73479  -1.14761  -0.60238  -0.47282  -0.39807
 Alpha virt. eigenvalues --    0.04279   0.10012   0.27654   0.30454   0.30460
 Alpha virt. eigenvalues --    0.35098   0.43423   0.49963   0.56069   0.61856
 Alpha virt. eigenvalues --    0.66158   0.80645   0.93178   0.96331   1.02215

 Mulliken charges:
               1
     1  O   -0.456941
     2  H    0.223283
     3  H    0.233658
 Sum of Mulliken charges =   0.00000

 Dipole moment (field-independent basis, Debye):
    X=              0.0136    Y=             -1.9836    Z=              0.0000  Tot=              1.9837
 Quadrupole moment (field-independent basis, Debye-Ang):
   XX=             -4.3166   YY=             -6.3193   ZZ=             -7.6398
   XY=              0.0708   XZ=              0.0000   YZ=              0.0000

 1\1\GINC-NODE35\SP\RB2PLYPD3-FC\def2QZVP\H2O1\BOITTIER\26-Aug-2020\0\\
 #p B2PLYPD3/Def2QZVP\\h2o\\0,1\O,0,-5.326605,-0.767392,0.908971\H,0,-4
 .368927,-0.718898,1.029734\H,0,-5.609308,0.181222,0.83123\\Version=ES6
 4L-G09RevD.01\State=1-A'\HF=-76.3333281\MP2=-76.4240343\RMSD=4.259e-09
 \PG=CS [SG(H2O1)]\\@

  THE LARGE PRINT GIVETH,

 Normal termination of Gaussian 09 at Wed Aug 26 08:00:18 2020.
