 Gaussian 09, Revision D.01,
 Gaussian 09:  ES64L-G09RevD.01 24-Apr-2013

 --------------------
 #p B2PLYPD3/Def2QZVP
 --------------------

 ---
 h2o
 ---
 Symbolic Z-matrix:
 Charge =  0 Multiplicity = 1

                         Standard orientation:
 ---------------------------------------------------------------------
 Center     Atomic      Atomic             Coordinates (Angstroms)
 Number     Number       Type             X           Y           Z
 ---------------------------------------------------------------------
      1          8           0        0.000000    0.110815    0.000000
      2          1           0        0.797351   -0.424137    0.000000
      3          1           0       -0.797351   -0.462385    0.000000
 ---------------------------------------------------------------------

 SCF Done:  E(RB2PLYPD3) =  -76.3334944493     A.U. after   10 cycles
 E2(B2PLYPD3) =    -0.9025274902D-01 E(B2PLYPD3) =    -0.76423747198285D+02

 The electronic state is 1-A'.
 Alpha  occ. eigenvalues --  -19.73071  -1.14718  -0.61719  -0.46214  -0.39715
 Alpha virt. eigenvalues --    0.04476   0.09994   0.27483   0.30463   0.31305
 Alpha virt. eigenvalues --    0.34403   0.43609   0.51398   0.55249   0.63848
 Alpha virt. eigenvalues --    0.65840   0.80252   0.92988   0.96408   1.04071

 Mulliken charges:
               1
     1  O   -0.466080
     2  H    0.228367
     3  H    0.237713
 Sum of Mulliken charges =   0.00000

 Dipole moment (field-independent basis, Debye):
    X=              0.0095    Y=             -1.8764    Z=              0.0000  Tot=              1.8764
 Quadrupole moment (field-independent basis, Debye-Ang):
   XX=             -4.0587   YY=             -6.5030   ZZ=             -7.6335
   XY=              0.0687   XZ=              0.0000   YZ=              0.0000

 1\1\GINC-NODE27\SP\RB2PLYPD3-FC\def2QZVP\H2O1\BOITTIER\26-Aug-2020\0\\
 #p B2PLYPD3/Def2QZVP\\h2o\\0,1\O,0,-5.326605,-0.760759,0.913971\H,0,-4
 .368927,-0.819978,0.949865\H,0,-5.609308,0.176165,0.832858\\Version=ES
 64L-G09RevD.01\State=1-A'\HF=-76.3334944\MP2=-76.4237472\RMSD=4.008e-0
 9\PG=CS [SG(H2O1)]\\@

 THE ENLIGHTENED ONE, BECAUSE HE SAW MANKIND DROWNING

 Normal termination of Gaussian 09 at Wed Aug 26 08:39:41 2020.
