 Gaussian 09, Revision D.01,
 Gaussian 09:  ES64L-G09RevD.01 24-Apr-2013

 --------------------
 #p B2PLYPD3/Def2QZVP
 --------------------

 ---
 h2o
 ---
 Symbolic Z-matrix:
 Charge =  0 Multiplicity = 1

                         Standard orientation:
 ---------------------------------------------------------------------
 Center     Atomic      Atomic             Coordinates (Angstroms)
 Number     Number       Type             X           Y           Z
 ---------------------------------------------------------------------
      1          8           0        0.000000    0.122038    0.000000
      2          1           0        0.738129   -0.497900    0.000000
      3          1           0       -0.738129   -0.478402    0.000000
 ---------------------------------------------------------------------

 SCF Done:  E(RB2PLYPD3) =  -76.3345641694     A.U. after   10 cycles
 E2(B2PLYPD3) =    -0.9008727522D-01 E(B2PLYPD3) =    -0.76424651444637D+02

 The electronic state is 1-A'.
 Alpha  occ. eigenvalues --  -19.73267  -1.16010  -0.60597  -0.48205  -0.40067
 Alpha virt. eigenvalues --    0.04466   0.10286   0.27572   0.30397   0.30655
 Alpha virt. eigenvalues --    0.36537   0.44024   0.49644   0.56852   0.61095
 Alpha virt. eigenvalues --    0.65678   0.81334   0.94314   0.95861   1.03214

 Mulliken charges:
               1
     1  O   -0.434312
     2  H    0.219898
     3  H    0.214414
 Sum of Mulliken charges =   0.00000

 Dipole moment (field-independent basis, Debye):
    X=             -0.0068    Y=             -2.0182    Z=              0.0000  Tot=              2.0182
 Quadrupole moment (field-independent basis, Debye-Ang):
   XX=             -4.5037   YY=             -6.2127   ZZ=             -7.5844
   XY=             -0.0302   XZ=              0.0000   YZ=              0.0000

 1\1\GINC-NODE25\SP\RB2PLYPD3-FC\def2QZVP\H2O1\BOITTIER\26-Aug-2020\0\\
 #p B2PLYPD3/Def2QZVP\\h2o\\0,1\O,0,-5.326605,-0.767273,0.923016\H,0,-4
 .368927,-0.657853,0.916893\H,0,-5.609308,0.11826,0.71986\\Version=ES64
 L-G09RevD.01\State=1-A'\HF=-76.3345642\MP2=-76.4246514\RMSD=4.573e-09\
 PG=CS [SG(H2O1)]\\@

 ERWIN WITH HIS PSI CAN DO

 Normal termination of Gaussian 09 at Wed Aug 26 08:36:00 2020.
