 Gaussian 09, Revision D.01,
 Gaussian 09:  ES64L-G09RevD.01 24-Apr-2013

 --------------------
 #p B2PLYPD3/Def2QZVP
 --------------------

 ---
 h2o
 ---
 Symbolic Z-matrix:
 Charge =  0 Multiplicity = 1

                         Standard orientation:
 ---------------------------------------------------------------------
 Center     Atomic      Atomic             Coordinates (Angstroms)
 Number     Number       Type             X           Y           Z
 ---------------------------------------------------------------------
      1          8           0        0.000000    0.127546    0.000000
      2          1           0        0.737254   -0.501213    0.000000
      3          1           0       -0.737254   -0.519155    0.000000
 ---------------------------------------------------------------------

 SCF Done:  E(RB2PLYPD3) =  -76.3329682695     A.U. after   10 cycles
 E2(B2PLYPD3) =    -0.9076268465D-01 E(B2PLYPD3) =    -0.76423730954202D+02

 The electronic state is 1-A'.
 Alpha  occ. eigenvalues --  -19.73643  -1.15391  -0.59353  -0.48467  -0.39991
 Alpha virt. eigenvalues --    0.04220   0.10158   0.27740   0.30064   0.30425
 Alpha virt. eigenvalues --    0.36091   0.43564   0.49143   0.57035   0.60243
 Alpha virt. eigenvalues --    0.66136   0.81024   0.94187   0.96202   1.01628

 Mulliken charges:
               1
     1  O   -0.441392
     2  H    0.218388
     3  H    0.223004
 Sum of Mulliken charges =   0.00000

 Dipole moment (field-independent basis, Debye):
    X=              0.0068    Y=             -2.0684    Z=              0.0000  Tot=              2.0684
 Quadrupole moment (field-independent basis, Debye-Ang):
   XX=             -4.5863   YY=             -6.1415   ZZ=             -7.6187
   XY=              0.0269   XZ=              0.0000   YZ=              0.0000

 1\1\GINC-NODE13\SP\RB2PLYPD3-FC\def2QZVP\H2O1\BOITTIER\26-Aug-2020\0\\
 #p B2PLYPD3/Def2QZVP\\h2o\\0,1\O,0,-5.326605,-0.768457,0.93212\H,0,-4.
 368927,-0.644759,0.851913\H,0,-5.609308,0.124123,0.640324\\Version=ES6
 4L-G09RevD.01\State=1-A'\HF=-76.3329683\MP2=-76.423731\RMSD=4.657e-09\
 PG=CS [SG(H2O1)]\\@

 THE CHYMISTS ARE A STRANGE CLASS OF MORTALS IMPELLED

 Normal termination of Gaussian 09 at Wed Aug 26 08:35:28 2020.
