 Gaussian 09, Revision D.01,
 Gaussian 09:  ES64L-G09RevD.01 24-Apr-2013

 --------------------
 #p B2PLYPD3/Def2QZVP
 --------------------

 ---
 h2o
 ---
 Symbolic Z-matrix:
 Charge =  0 Multiplicity = 1

                         Standard orientation:
 ---------------------------------------------------------------------
 Center     Atomic      Atomic             Coordinates (Angstroms)
 Number     Number       Type             X           Y           Z
 ---------------------------------------------------------------------
      1          8           0        0.000000    0.115023    0.000000
      2          1           0        0.770558   -0.453764    0.000000
      3          1           0       -0.770558   -0.466417    0.000000
 ---------------------------------------------------------------------

 SCF Done:  E(RB2PLYPD3) =  -76.3349700061     A.U. after   10 cycles
 E2(B2PLYPD3) =    -0.9003299211D-01 E(B2PLYPD3) =    -0.76425002998214D+02

 The electronic state is 1-A'.
 Alpha  occ. eigenvalues --  -19.73097  -1.15413  -0.61490  -0.47070  -0.39896
 Alpha virt. eigenvalues --    0.04539   0.10149   0.27501   0.30425   0.31116
 Alpha virt. eigenvalues --    0.35468   0.43886   0.50599   0.55944   0.62723
 Alpha virt. eigenvalues --    0.65662   0.80953   0.93574   0.96038   1.04051

 Mulliken charges:
               1
     1  O   -0.449492
     2  H    0.223071
     3  H    0.226421
 Sum of Mulliken charges =   0.00000

 Dipole moment (field-independent basis, Debye):
    X=              0.0037    Y=             -1.9335    Z=              0.0000  Tot=              1.9335
 Quadrupole moment (field-independent basis, Debye-Ang):
   XX=             -4.2502   YY=             -6.3830   ZZ=             -7.6035
   XY=              0.0214   XZ=              0.0000   YZ=              0.0000

 1\1\GINC-NODE03\SP\RB2PLYPD3-FC\def2QZVP\H2O1\BOITTIER\26-Aug-2020\0\\
 #p B2PLYPD3/Def2QZVP\\h2o\\0,1\O,0,-5.326605,-0.763202,0.918879\H,0,-4
 .368927,-0.753761,0.925416\H,0,-5.609308,0.149035,0.778396\\Version=ES
 64L-G09RevD.01\State=1-A'\HF=-76.33497\MP2=-76.425003\RMSD=3.910e-09\P
 G=CS [SG(H2O1)]\\@

 The theorems and results in mathematical physics are

 Normal termination of Gaussian 09 at Wed Aug 26 12:43:07 2020.
