 Gaussian 09, Revision D.01,
 Gaussian 09:  ES64L-G09RevD.01 24-Apr-2013

 --------------------
 #p B2PLYPD3/Def2QZVP
 --------------------

 ---
 h2o
 ---
 Symbolic Z-matrix:
 Charge =  0 Multiplicity = 1

                         Standard orientation:
 ---------------------------------------------------------------------
 Center     Atomic      Atomic             Coordinates (Angstroms)
 Number     Number       Type             X           Y           Z
 ---------------------------------------------------------------------
      1          8           0        0.000000    0.121201    0.000000
      2          1           0        0.749480   -0.481331    0.000000
      3          1           0       -0.749480   -0.488279    0.000000
 ---------------------------------------------------------------------

 SCF Done:  E(RB2PLYPD3) =  -76.3346661595     A.U. after   10 cycles
 E2(B2PLYPD3) =    -0.9024590635D-01 E(B2PLYPD3) =    -0.76424912065847D+02

 The electronic state is 1-A'.
 Alpha  occ. eigenvalues --  -19.73318  -1.15623  -0.60563  -0.47885  -0.39986
 Alpha virt. eigenvalues --    0.04429   0.10204   0.27593   0.30415   0.30644
 Alpha virt. eigenvalues --    0.36083   0.43842   0.49769   0.56587   0.61394
 Alpha virt. eigenvalues --    0.65814   0.81158   0.93981   0.95999   1.02991

 Mulliken charges:
               1
     1  O   -0.441557
     2  H    0.219845
     3  H    0.221712
 Sum of Mulliken charges =   0.00000

 Dipole moment (field-independent basis, Debye):
    X=              0.0024    Y=             -2.0040    Z=              0.0000  Tot=              2.0040
 Quadrupole moment (field-independent basis, Debye-Ang):
   XX=             -4.4380   YY=             -6.2526   ZZ=             -7.6004
   XY=              0.0110   XZ=              0.0000   YZ=              0.0000

 1\1\GINC-NODE40\SP\RB2PLYPD3-FC\def2QZVP\H2O1\BOITTIER\26-Aug-2020\0\\
 #p B2PLYPD3/Def2QZVP\\h2o\\0,1\O,0,-5.326605,-0.765805,0.926694\H,0,-4
 .368927,-0.69274,0.87896\H,0,-5.609308,0.12966,0.699962\\Version=ES64L
 -G09RevD.01\State=1-A'\HF=-76.3346662\MP2=-76.4249121\RMSD=4.289e-09\P
 G=CS [SG(H2O1)]\\@

 ACCORDING TO HEN3RY, LIFE IS MUCH LIKE A SEWER........

 Normal termination of Gaussian 09 at Wed Aug 26 12:29:03 2020.
