 Gaussian 09, Revision D.01,
 Gaussian 09:  ES64L-G09RevD.01 24-Apr-2013

 ------------------------------------
 #p B2PLYPD3/6-31G** opt freq=NoRaman
 ------------------------------------

 ----------
 butane_opt
 ----------
 Symbolic Z-matrix:
 Charge =  0 Multiplicity = 1

 SCF Done:  E(RB2PLYPD3) =  -158.076447595     A.U. after   11 cycles
 E2(B2PLYPD3) =    -0.1933125860D+00 E(B2PLYPD3) =    -0.15826976018090D+03
 SCF Done:  E(RB2PLYPD3) =  -158.077095024     A.U. after    9 cycles
 E2(B2PLYPD3) =    -0.1932398080D+00 E(B2PLYPD3) =    -0.15827033483155D+03
 SCF Done:  E(RB2PLYPD3) =  -158.077156840     A.U. after    7 cycles
 E2(B2PLYPD3) =    -0.1932391768D+00 E(B2PLYPD3) =    -0.15827039601669D+03
 Optimization completed.
    -- Stationary point found.
 Normal termination of Gaussian 09 at Wed Aug 19 17:46:45 2020.

 ----------------------------------------------------------------------
 #P Geom=AllCheck Guess=TCheck SCRF=Check GenChk RB2PLYPD3(FC)/6-31G(d,
 p) Freq
 ----------------------------------------------------------------------

 Structure from the checkpoint file:  "butane_opt.chk"
 ----------
 butane_opt
 ----------
 Charge =  0 Multiplicity = 1

                         Standard orientation:
 ---------------------------------------------------------------------
 Center     Atomic      Atomic             Coordinates (Angstroms)
 Number     Number       Type             X           Y           Z
 ---------------------------------------------------------------------
      1          6           0        1.954382    0.120593    0.000124
      2          6           0        0.564849   -0.515266   -0.000139
      3          1           0        2.741106   -0.636361   -0.000158
      4          1           0        2.096818    0.749452    0.882247
      5          1           0        2.096847    0.750132   -0.881511
      6          6           0       -0.564849    0.515265   -0.000139
      7          1           0        0.458495   -1.164404    0.875707
      8          1           0        0.458702   -1.164147   -0.876198
      9          6           0       -1.954382   -0.120593    0.000124
     10          1           0       -0.458701    1.164147   -0.876198
     11          1           0       -0.458494    1.164404    0.875707
     12          1           0       -2.096847   -0.750132   -0.881510
     13          1           0       -2.741107    0.636361   -0.000158
     14          1           0       -2.096820   -0.749451    0.882247
 ---------------------------------------------------------------------

 SCF Done:  E(RB2PLYPD3) =  -158.077156840     A.U. after    1 cycles
 E2(B2PLYPD3) =    -0.1932391770D+00 E(B2PLYPD3) =    -0.15827039601682D+03
 E2(B2PLYPD3) =    -0.1932391770D+00 E(B2PLYPD3) =    -0.15827039601682D+03

 The electronic state is 1-A.
 Alpha  occ. eigenvalues --  -10.60972 -10.60934 -10.60390 -10.60390  -0.90544
 Alpha  occ. eigenvalues --   -0.82749  -0.72354  -0.66117  -0.53577  -0.48854
 Alpha  occ. eigenvalues --   -0.48041  -0.47287  -0.42602  -0.40748  -0.38628
 Alpha  occ. eigenvalues --   -0.37691  -0.37452
 Alpha virt. eigenvalues --    0.15084   0.17845   0.19684   0.20692   0.23293
 Alpha virt. eigenvalues --    0.24749   0.24763   0.25157   0.26140   0.26227
 Alpha virt. eigenvalues --    0.31933   0.32653   0.33688   0.57781   0.58043

 Mulliken charges:
               1
     1  C   -0.325904
     2  C   -0.185246
     3  H    0.105041
     4  H    0.105387
     5  H    0.105384
     6  C   -0.185246
     7  H    0.097668
     8  H    0.097671
     9  C   -0.325904
    10  H    0.097671
    11  H    0.097668
    12  H    0.105383
    13  H    0.105041
    14  H    0.105387
 Sum of Mulliken charges =   0.00000

 Dipole moment (field-independent basis, Debye):
    X=              0.0000    Y=              0.0000    Z=              0.0000  Tot=              0.0000
 Quadrupole moment (field-independent basis, Debye-Ang):
   XX=            -28.9178   YY=            -28.3688   ZZ=            -27.8627
   XY=             -0.2443   XZ=              0.0000   YZ=              0.0000

  Exact polarizability:  49.581  -0.206  41.711   0.000   0.000  40.862
 Approx polarizability:  46.131  -0.349  46.885   0.000   0.000  47.800

                      1                      2                      3
                      A                      A                      A
 Frequencies --    122.4044               234.1341               263.1082
 Red. masses --      1.9071                 1.0647                 2.2534
 Frc consts  --      0.0168                 0.0344                 0.0919
 IR Inten    --      0.0043                 0.0018                 0.0379

                      4                      5                      6
                      A                      A                      A
 Frequencies --    270.6651               430.9786               745.7472
 Red. masses --      1.1218                 2.7307                 1.0698
 Frc consts  --      0.0484                 0.2988                 0.3505
 IR Inten    --      0.0000                 0.0000                 3.0764

                      7                      8                      9
                      A                      A                      A
 Frequencies --    824.6553               859.6220               977.4154
 Red. masses --      1.1240                 1.9571                 1.1162
 Frc consts  --      0.4504                 0.8521                 0.6283
 IR Inten    --      0.0000                 0.0000                 0.9635

                     10                     11                     12
                      A                      A                      A
 Frequencies --    995.9500              1041.0430              1089.4747
 Red. masses --      1.2916                 2.8826                 2.2908
 Frc consts  --      0.7548                 1.8406                 1.6020
 IR Inten    --      5.3082                 0.2058                 0.0000

                     13                     14                     15
                      A                      A                      A
 Frequencies --   1193.1448              1237.1691              1315.9029
 Red. masses --      2.0331                 1.7466                 1.2481
 Frc consts  --      1.7052                 1.5751                 1.2733
 IR Inten    --      0.0000                 0.0000                 0.1490

                     16                     17                     18
                      A                      A                      A
 Frequencies --   1345.4658              1356.1757              1427.8832
 Red. masses --      1.3515                 1.0696                 1.5378
 Frc consts  --      1.4415                 1.1590                 1.8473
 IR Inten    --      5.1718                 0.0000                 0.0000

                     19                     20                     21
                      A                      A                      A
 Frequencies --   1446.7488              1449.0012              1522.9432
 Red. masses --      1.2829                 1.2537                 1.0673
 Frc consts  --      1.5821                 1.5509                 1.4585
 IR Inten    --      0.0000                 2.7084                 0.0000

                     22                     23                     24
                      A                      A                      A
 Frequencies --   1528.3845              1537.9084              1539.0420
 Red. masses --      1.0560                 1.0448                 1.0372
 Frc consts  --      1.4534                 1.4560                 1.4475
 IR Inten    --      1.1742                 0.0000                10.7298

                     25                     26                     27
                      A                      A                      A
 Frequencies --   1543.5664              1548.7032              3061.3102
 Red. masses --      1.0633                 1.0828                 1.0591
 Frc consts  --      1.4926                 1.5302                 5.8482
 IR Inten    --      0.0000                 4.3106                 0.0000

                     28                     29                     30
                      A                      A                      A
 Frequencies --   3068.3523              3077.1890              3077.9018
 Red. masses --      1.0596                 1.0363                 1.0363
 Frc consts  --      5.8775                 5.7814                 5.7841
 IR Inten    --     46.5595                72.7843                 0.0000

                     31                     32                     33
                      A                      A                      A
 Frequencies --   3092.3839              3113.6042              3152.4230
 Red. masses --      1.1017                 1.1051                 1.1032
 Frc consts  --      6.2072                 6.3121                 6.4594
 IR Inten    --      0.0000                27.8628                 0.0001

                     34                     35                     36
                      A                      A                      A
 Frequencies --   3155.6104              3157.3769              3158.0835
 Red. masses --      1.1028                 1.1025                 1.1021
 Frc consts  --      6.4701                 6.4756                 6.4760
 IR Inten    --    107.7225                 0.0013                76.2914

 - Thermochemistry -
 -------------------
 Temperature   298.150 Kelvin.  Pressure   1.00000 Atm.
 Atom     1 has atomic number  6 and mass  12.00000

 Molecular mass:    58.07825 amu.
 Principal axes and moments of inertia in atomic units:
                           1         2         3
     Eigenvalues --    76.75232 497.36796 529.63644
           X            0.99998   0.00560   0.00000
           Y           -0.00560   0.99998   0.00000
           Z            0.00000   0.00000   1.00000
 This molecule is an asymmetric top.
 Rotational symmetry number  1.
 Rotational temperatures (Kelvin)      1.12848     0.17414     0.16353
 Rotational constants (GHZ):          23.51383     3.62858     3.40751
 Zero-point vibrational energy     352667.9 (Joules/Mol)
                                   84.28966 (Kcal/Mol)
 Warning -- explicit consideration of   5 degrees of freedom as
           vibrations may cause significant error
 Vibrational temperatures:    176.11   336.87   378.55   389.43   620.08
          (Kelvin)           1072.96  1186.49  1236.80  1406.28  1432.95
                             1497.83  1567.51  1716.67  1780.01  1893.29
                             1935.82  1951.23  2054.40  2081.55  2084.79
                             2191.17  2199.00  2212.70  2214.34  2220.84
                             2228.24  4404.54  4414.67  4427.38  4428.41
                             4449.25  4479.78  4535.63  4540.21  4542.76
                             4543.77

 Zero-point correction=                           0.134324 (Hartree/Particle)
 Thermal correction to Energy=                    0.140035
 Thermal correction to Enthalpy=                  0.140979
 Thermal correction to Gibbs Free Energy=         0.106381
 Sum of electronic and zero-point Energies=           -158.136072
 Sum of electronic and thermal Energies=              -158.130361
 Sum of electronic and thermal Enthalpies=            -158.129417
 Sum of electronic and thermal Free Energies=         -158.164015

                     E (Thermal)             CV                S
                      KCal/Mol        Cal/Mol-Kelvin    Cal/Mol-Kelvin
 Total                   87.873             19.326             72.817
 Electronic               0.000              0.000              0.000
 Translational            0.889              2.981             38.098
 Rotational               0.889              2.981             24.517
 Vibrational             86.096             13.364             10.201
 Vibration     1          0.610              1.930              3.062
 Vibration     2          0.654              1.789              1.847
 Vibration     3          0.670              1.740              1.641
 Vibration     4          0.674              1.727              1.592
 Vibration     5          0.792              1.403              0.855

 Optimization completed.
    -- Stationary point found.
 Normal termination of Gaussian 09 at Wed Aug 19 17:48:24 2020.
