 Gaussian 09, Revision D.01,
 Gaussian 09:  ES64L-G09RevD.01 24-Apr-2013

 ------------------------------------
 #p B2PLYPD3/6-31G** opt freq=NoRaman
 ------------------------------------

 ------------
 acrolein_opt
 ------------
 Symbolic Z-matrix:
 Charge =  0 Multiplicity = 1

 SCF Done:  E(RB2PLYPD3) =  -191.531214670     A.U. after   14 cycles
 E2(B2PLYPD3) =    -0.1924510491D+00 E(B2PLYPD3) =    -0.19172366571961D+03
 SCF Done:  E(RB2PLYPD3) =  -191.531786660     A.U. after   11 cycles
 E2(B2PLYPD3) =    -0.1924187942D+00 E(B2PLYPD3) =    -0.19172420545409D+03
 SCF Done:  E(RB2PLYPD3) =  -191.531912396     A.U. after   10 cycles
 E2(B2PLYPD3) =    -0.1923302105D+00 E(B2PLYPD3) =    -0.19172424260633D+03
 SCF Done:  E(RB2PLYPD3) =  -191.531915001     A.U. after   10 cycles
 E2(B2PLYPD3) =    -0.1923305577D+00 E(B2PLYPD3) =    -0.19172424555879D+03
 SCF Done:  E(RB2PLYPD3) =  -191.531915131     A.U. after   10 cycles
 E2(B2PLYPD3) =    -0.1923286075D+00 E(B2PLYPD3) =    -0.19172424373889D+03
 SCF Done:  E(RB2PLYPD3) =  -191.531914085     A.U. after   10 cycles
 E2(B2PLYPD3) =    -0.1923321941D+00 E(B2PLYPD3) =    -0.19172424627913D+03
 Optimization completed.
    -- Stationary point found.
 Normal termination of Gaussian 09 at Wed Aug 19 17:46:36 2020.

 ----------------------------------------------------------------------
 #P Geom=AllCheck Guess=TCheck SCRF=Check GenChk RB2PLYPD3(FC)/6-31G(d,
 p) Freq
 ----------------------------------------------------------------------

 Structure from the checkpoint file:  "acrolein_opt.chk"
 ------------
 acrolein_opt
 ------------
 Charge =  0 Multiplicity = 1

                         Standard orientation:
 ---------------------------------------------------------------------
 Center     Atomic      Atomic             Coordinates (Angstroms)
 Number     Number       Type             X           Y           Z
 ---------------------------------------------------------------------
      1          6           0       -0.673087    0.351866    0.000004
      2          8           0       -1.796882   -0.121452   -0.000003
      3          6           0        0.561814   -0.450945    0.000001
      4          6           0        1.762351    0.140997   -0.000002
      5          1           0        0.444395   -1.528541    0.000003
      6          1           0        1.849011    1.222495   -0.000002
      7          1           0        2.685437   -0.423453   -0.000002
      8          1           0       -0.510253    1.449609   -0.000001
 ---------------------------------------------------------------------

 SCF Done:  E(RB2PLYPD3) =  -191.531914085     A.U. after    1 cycles
 E2(B2PLYPD3) =    -0.1923321943D+00 E(B2PLYPD3) =    -0.19172424627934D+03
 E2(B2PLYPD3) =    -0.1923321943D+00 E(B2PLYPD3) =    -0.19172424627934D+03

 The electronic state is 1-A.
 Alpha  occ. eigenvalues --  -19.74085 -10.72141 -10.65980 -10.64762  -1.18276
 Alpha  occ. eigenvalues --   -0.92090  -0.74726  -0.66212  -0.55442  -0.55390
 Alpha  occ. eigenvalues --   -0.49432  -0.46146  -0.45463  -0.33509  -0.32748
 Alpha virt. eigenvalues --   -0.00235   0.13228   0.16358   0.17152   0.21590
 Alpha virt. eigenvalues --    0.24657   0.32810   0.37991   0.42750   0.59270
 Alpha virt. eigenvalues --    0.59379   0.63259   0.67392   0.69820   0.73080

 Mulliken charges:
               1
     1  C    0.317911
     2  O   -0.457388
     3  C   -0.117885
     4  C   -0.237963
     5  H    0.139678
     6  H    0.131726
     7  H    0.140205
     8  H    0.083717
 Sum of Mulliken charges =   0.00000

 Dipole moment (field-independent basis, Debye):
    X=              3.3300    Y=              0.7130    Z=              0.0000  Tot=              3.4054
 Quadrupole moment (field-independent basis, Debye-Ang):
   XX=            -26.7374   YY=            -21.3366   ZZ=            -24.5085
   XY=             -0.7895   XZ=              0.0000   YZ=              0.0000

  Exact polarizability:  53.278   4.257  32.356   0.000   0.000  14.156
 Approx polarizability:  65.595  10.344  36.115   0.000   0.000  17.551

                      1                      2                      3
                      A                      A                      A
 Frequencies --    170.6573               321.1937               574.4219
 Red. masses --      3.4721                 2.7065                 4.8761
 Frc consts  --      0.0596                 0.1645                 0.9480
 IR Inten    --      4.2364                 9.7123                 5.3974

                      4                      5                      6
                      A                      A                      A
 Frequencies --    613.7204               936.9318               992.2707
 Red. masses --      1.1892                 1.5567                 1.3507
 Frc consts  --      0.2639                 0.8051                 0.7836
 IR Inten    --      7.9633                19.8048                30.2699

                      7                      8                      9
                      A                      A                      A
 Frequencies --   1023.9315              1047.0247              1188.9720
 Red. masses --      1.6141                 1.1616                 1.9743
 Frc consts  --      0.9971                 0.7503                 1.6444
 IR Inten    --     11.3478                10.1395                36.2468

                     10                     11                     12
                      A                      A                      A
 Frequencies --   1314.6530              1414.6349              1481.0272
 Red. masses --      1.5217                 1.1995                 1.2412
 Frc consts  --      1.5495                 1.4143                 1.6041
 IR Inten    --      2.9352                 4.7470                 9.1570

                     13                     14                     15
                      A                      A                      A
 Frequencies --   1700.3356              1785.5979              2941.0342
 Red. masses --      3.9545                 8.5939                 1.0846
 Frc consts  --      6.7361                16.1438                 5.5274
 IR Inten    --      2.5782               180.7388                99.9573

                     16                     17                     18
                      A                      A                      A
 Frequencies --   3193.0974              3237.9308              3292.1907
 Red. masses --      1.0599                 1.0945                 1.1156
 Frc consts  --      6.3672                 6.7611                 7.1241
 IR Inten    --      4.7953                 1.7169                 6.4601

 - Thermochemistry -
 -------------------
 Temperature   298.150 Kelvin.  Pressure   1.00000 Atm.
 Atom     1 has atomic number  6 and mass  12.00000

 Molecular mass:    56.02621 amu.
 Principal axes and moments of inertia in atomic units:
                           1         2         3
     Eigenvalues --    37.67545 389.12122 426.79667
           X            1.00000  -0.00240   0.00000
           Y            0.00240   1.00000   0.00000
           Z            0.00000   0.00000   1.00000
 This molecule is an asymmetric top.
 Rotational symmetry number  1.
 Rotational temperatures (Kelvin)      2.29895     0.22259     0.20294
 Rotational constants (GHZ):          47.90231     4.63799     4.22857
 Zero-point vibrational energy     162869.3 (Joules/Mol)
                                   38.92670 (Kcal/Mol)
 Warning -- explicit consideration of   4 degrees of freedom as
           vibrations may cause significant error
 Vibrational temperatures:    245.54   462.13   826.46   883.01  1348.03
          (Kelvin)           1427.65  1473.21  1506.43  1710.66  1891.49
                             2035.34  2130.87  2446.40  2569.07  4231.49
                             4594.15  4658.65  4736.72

 Zero-point correction=                           0.062034 (Hartree/Particle)
 Thermal correction to Energy=                    0.066389
 Thermal correction to Enthalpy=                  0.067333
 Thermal correction to Gibbs Free Energy=         0.035744
 Sum of electronic and zero-point Energies=           -191.662213
 Sum of electronic and thermal Energies=              -191.657857
 Sum of electronic and thermal Enthalpies=            -191.656913
 Sum of electronic and thermal Free Energies=         -191.688502

                     E (Thermal)             CV                S
                      KCal/Mol        Cal/Mol-Kelvin    Cal/Mol-Kelvin
 Total                   41.660             13.678             66.484
 Electronic               0.000              0.000              0.000
 Translational            0.889              2.981             37.991
 Rotational               0.889              2.981             23.352
 Vibrational             39.882              7.716              5.141
 Vibration     1          0.626              1.879              2.428
 Vibration     2          0.707              1.633              1.304
 Vibration     3          0.931              1.087              0.496
 Vibration     4          0.973              1.003              0.427

 Optimization completed.
    -- Stationary point found.
 Normal termination of Gaussian 09 at Wed Aug 19 17:47:06 2020.
