 Gaussian 09, Revision D.01,
 Gaussian 09:  ES64L-G09RevD.01 24-Apr-2013

 ------------------------------------
 #p B2PLYPD3/6-31G** opt freq=NoRaman
 ------------------------------------

 ---------
 water_opt
 ---------
 Symbolic Z-matrix:
 Charge =  0 Multiplicity = 1

 SCF Done:  E(RB2PLYPD3) =  -76.2855626546     A.U. after   10 cycles
 E2(B2PLYPD3) =    -0.6342344501D-01 E(B2PLYPD3) =    -0.76348986099639D+02
 SCF Done:  E(RB2PLYPD3) =  -76.2866637903     A.U. after   10 cycles
 E2(B2PLYPD3) =    -0.6327907283D-01 E(B2PLYPD3) =    -0.76349942863120D+02
 SCF Done:  E(RB2PLYPD3) =  -76.2866100901     A.U. after    7 cycles
 E2(B2PLYPD3) =    -0.6335213009D-01 E(B2PLYPD3) =    -0.76349962220210D+02
 Optimization completed.
    -- Stationary point found.
 Normal termination of Gaussian 09 at Wed Aug 19 17:46:11 2020.

 ----------------------------------------------------------------------
 #P Geom=AllCheck Guess=TCheck SCRF=Check GenChk RB2PLYPD3(FC)/6-31G(d,
 p) Freq
 ----------------------------------------------------------------------

 Structure from the checkpoint file:  "water_opt.chk"
 ---------
 water_opt
 ---------
 Charge =  0 Multiplicity = 1

                         Standard orientation:
 ---------------------------------------------------------------------
 Center     Atomic      Atomic             Coordinates (Angstroms)
 Number     Number       Type             X           Y           Z
 ---------------------------------------------------------------------
      1          8           0        0.000000    0.000000    0.118621
      2          1           0        0.000000   -0.757764   -0.474483
      3          1           0        0.000000    0.757764   -0.474483
 ---------------------------------------------------------------------

 SCF Done:  E(RB2PLYPD3) =  -76.2866100901     A.U. after    1 cycles
 E2(B2PLYPD3) =    -0.6335213013D-01 E(B2PLYPD3) =    -0.76349962220247D+02
 E2(B2PLYPD3) =    -0.6335213013D-01 E(B2PLYPD3) =    -0.76349962220247D+02

 The electronic state is 1-A1.
 Alpha  occ. eigenvalues --  -19.73286  -1.13925  -0.59258  -0.45346  -0.37772
 Alpha virt. eigenvalues --    0.12513   0.21464   0.85677   0.92037   0.99162
 Alpha virt. eigenvalues --    1.00455   1.12874   1.27315   1.64261   1.65152
 Alpha virt. eigenvalues --    1.75895   2.37506   2.39595   2.59635   2.77942

 Mulliken charges:
               1
     1  O   -0.636925
     2  H    0.318462
     3  H    0.318462
 Sum of Mulliken charges =   0.00000

 Dipole moment (field-independent basis, Debye):
    X=              0.0000    Y=              0.0000    Z=             -2.1103  Tot=              2.1103
 Quadrupole moment (field-independent basis, Debye-Ang):
   XX=             -7.1463   YY=             -4.2213   ZZ=             -5.9539
   XY=              0.0000   XZ=              0.0000   YZ=              0.0000

  Exact polarizability:   2.992   0.000   7.348   0.000   0.000   5.454
 Approx polarizability:   2.909   0.000   7.313   0.000   0.000   5.577

                      1                      2                      3
                     A1                     A1                     B2
 Frequencies --   1677.2961              3848.8244              3972.2159
 Red. masses --      1.0828                 1.0450                 1.0813
 Frc consts  --      1.7949                 9.1208                10.0518
 IR Inten    --     74.2499                 2.6371                25.4175

 - Thermochemistry -
 -------------------
 Temperature   298.150 Kelvin.  Pressure   1.00000 Atm.
 Atom     1 has atomic number  8 and mass  15.99491

 Molecular mass:    18.01056 amu.
 Principal axes and moments of inertia in atomic units:
                           1         2         3
     Eigenvalues --     2.24868   4.13315   6.38184
           X            0.00000   0.00000   1.00000
           Y            1.00000   0.00000   0.00000
           Z            0.00000   1.00000   0.00000
 This molecule is an asymmetric top.
 Rotational symmetry number  2.
 Rotational temperatures (Kelvin)     38.51756    20.95588    13.57193
 Rotational constants (GHZ):         802.57670   436.65012   282.79344
 Zero-point vibrational energy      56812.7 (Joules/Mol)
                                   13.57855 (Kcal/Mol)
 Vibrational temperatures:   2413.25  5537.59  5715.13
          (Kelvin)

 Zero-point correction=                           0.021639 (Hartree/Particle)
 Thermal correction to Energy=                    0.024474
 Thermal correction to Enthalpy=                  0.025418
 Thermal correction to Gibbs Free Energy=         0.003991
 Sum of electronic and zero-point Energies=            -76.328323
 Sum of electronic and thermal Energies=               -76.325489
 Sum of electronic and thermal Enthalpies=             -76.324544
 Sum of electronic and thermal Free Energies=          -76.345971

                     E (Thermal)             CV                S
                      KCal/Mol        Cal/Mol-Kelvin    Cal/Mol-Kelvin
 Total                   15.357              6.001             45.096
 Electronic               0.000              0.000              0.000
 Translational            0.889              2.981             34.608
 Rotational               0.889              2.981             10.482
 Vibrational             13.580              0.040              0.006

 Optimization completed.
    -- Stationary point found.
 Normal termination of Gaussian 09 at Wed Aug 19 17:46:25 2020.
