 Gaussian 09, Revision D.01,
 Gaussian 09:  ES64L-G09RevD.01 24-Apr-2013

 --------------------
 #p B2PLYPD3/Def2QZVP
 --------------------

 --------
 acrolein
 --------
 Symbolic Z-matrix:
 Charge =  0 Multiplicity = 1

                         Standard orientation:
 ---------------------------------------------------------------------
 Center     Atomic      Atomic             Coordinates (Angstroms)
 Number     Number       Type             X           Y           Z
 ---------------------------------------------------------------------
      1          6           0       -0.667233    0.343306    0.012789
      2          8           0       -1.787117   -0.115694   -0.018882
      3          6           0        0.566438   -0.450578    0.016920
      4          6           0        1.757903    0.147878   -0.020382
      5          1           0        0.424409   -1.567504    0.046577
      6          1           0        1.805778    1.222283   -0.006826
      7          1           0        2.665274   -0.403599   -0.012092
      8          1           0       -0.541176    1.430740    0.067434
 ---------------------------------------------------------------------

 SCF Done:  E(RB2PLYPD3) =  -191.615460613     A.U. after   12 cycles
 E2(B2PLYPD3) =    -0.2471244213D+00 E(B2PLYPD3) =    -0.19186258503398D+03

 The electronic state is 1-A.
 Alpha  occ. eigenvalues --  -19.72697 -10.71368 -10.65289 -10.64867  -1.19454
 Alpha  occ. eigenvalues --   -0.93039  -0.75646  -0.66679  -0.56632  -0.56559
 Alpha  occ. eigenvalues --   -0.50588  -0.46933  -0.46519  -0.34712  -0.33796
 Alpha virt. eigenvalues --   -0.01772   0.05821   0.07000   0.08278   0.09751
 Alpha virt. eigenvalues --    0.12592   0.14087   0.15334   0.17170   0.19805
 Alpha virt. eigenvalues --    0.20035   0.21700   0.25445   0.26442   0.28955

 Mulliken charges:
               1
     1  C    0.155975
     2  O   -0.349411
     3  C   -0.035875
     4  C   -0.131436
     5  H    0.099953
     6  H    0.085885
     7  H    0.106609
     8  H    0.068299
 Sum of Mulliken charges =   0.00000

 Dipole moment (field-independent basis, Debye):
    X=              3.5001    Y=              0.7508    Z=              0.1035  Tot=              3.5812
 Quadrupole moment (field-independent basis, Debye-Ang):
   XX=            -27.4477   YY=            -21.7222   ZZ=            -25.2227
   XY=             -0.9272   XZ=             -0.1164   YZ=             -0.0332

 Normal termination of Gaussian 09 at Wed Aug 26 11:32:37 2020.
