 Gaussian 09, Revision D.01,
 Gaussian 09:  ES64L-G09RevD.01 24-Apr-2013

 --------------------
 #p B2PLYPD3/Def2QZVP
 --------------------

 --------
 acrolein
 --------
 Symbolic Z-matrix:
 Charge =  0 Multiplicity = 1

                         Standard orientation:
 ---------------------------------------------------------------------
 Center     Atomic      Atomic             Coordinates (Angstroms)
 Number     Number       Type             X           Y           Z
 ---------------------------------------------------------------------
      1          6           0        0.663748    0.344603    0.000644
      2          8           0        1.789440   -0.114763   -0.010251
      3          6           0       -0.568850   -0.454036    0.002395
      4          6           0       -1.746571    0.142706   -0.002651
      5          1           0       -0.450983   -1.520330    0.040673
      6          1           0       -1.817319    1.238142   -0.056799
      7          1           0       -2.637274   -0.408096    0.002620
      8          1           0        0.500095    1.408753    0.093191
 ---------------------------------------------------------------------

 SCF Done:  E(RB2PLYPD3) =  -191.615771037     A.U. after   12 cycles
 E2(B2PLYPD3) =    -0.2467743386D+00 E(B2PLYPD3) =    -0.19186254537566D+03

 The electronic state is 1-A.
 Alpha  occ. eigenvalues --  -19.72751 -10.71293 -10.65074 -10.64087  -1.19134
 Alpha  occ. eigenvalues --   -0.93484  -0.75781  -0.67359  -0.56906  -0.56462
 Alpha  occ. eigenvalues --   -0.50757  -0.47072  -0.46529  -0.34919  -0.33844
 Alpha virt. eigenvalues --   -0.01652   0.05793   0.07239   0.08140   0.09749
 Alpha virt. eigenvalues --    0.12704   0.14081   0.15299   0.17533   0.19563
 Alpha virt. eigenvalues --    0.20122   0.21776   0.25401   0.26734   0.28774

 Mulliken charges:
               1
     1  C    0.155550
     2  O   -0.353466
     3  C   -0.038048
     4  C   -0.129578
     5  H    0.104895
     6  H    0.082738
     7  H    0.103582
     8  H    0.074325
 Sum of Mulliken charges =   0.00000

 Dipole moment (field-independent basis, Debye):
    X=             -3.5286    Y=              0.7431    Z=              0.0481  Tot=              3.6063
 Quadrupole moment (field-independent basis, Debye-Ang):
   XX=            -27.5617   YY=            -21.6896   ZZ=            -25.1063
   XY=              0.9068   XZ=              0.1199   YZ=             -0.0927

 Normal termination of Gaussian 09 at Wed Aug 26 16:26:53 2020.
