 Gaussian 09, Revision D.01,
 Gaussian 09:  ES64L-G09RevD.01 24-Apr-2013

 --------------------
 #p B2PLYPD3/Def2QZVP
 --------------------

 --------
 acrolein
 --------
 Symbolic Z-matrix:
 Charge =  0 Multiplicity = 1

                         Standard orientation:
 ---------------------------------------------------------------------
 Center     Atomic      Atomic             Coordinates (Angstroms)
 Number     Number       Type             X           Y           Z
 ---------------------------------------------------------------------
      1          6           0       -0.655297    0.299860    0.047874
      2          8           0       -1.795742   -0.092853   -0.047034
      3          6           0        0.589026   -0.473622    0.006446
      4          6           0        1.745734    0.194665   -0.055704
      5          1           0        0.451831   -1.654354    0.138185
      6          1           0        1.767439    1.228139   -0.073382
      7          1           0        2.622905   -0.430148    0.099918
      8          1           0       -0.553017    1.473772    0.219856
 ---------------------------------------------------------------------

 SCF Done:  E(RB2PLYPD3) =  -191.597349719     A.U. after   14 cycles
 E2(B2PLYPD3) =    -0.2486701346D+00 E(B2PLYPD3) =    -0.19184601985339D+03

 The electronic state is 1-A.
 Alpha  occ. eigenvalues --  -19.72833 -10.72159 -10.65990 -10.65411  -1.19514
 Alpha  occ. eigenvalues --   -0.93378  -0.75290  -0.65103  -0.56975  -0.55751
 Alpha  occ. eigenvalues --   -0.49825  -0.47294  -0.46288  -0.34939  -0.33245
 Alpha virt. eigenvalues --   -0.01983   0.05920   0.05980   0.08303   0.09713
 Alpha virt. eigenvalues --    0.12530   0.13920   0.15109   0.16524   0.19365
 Alpha virt. eigenvalues --    0.20379   0.21752   0.24715   0.26370   0.28616

 Mulliken charges:
               1
     1  C    0.151805
     2  O   -0.338453
     3  C   -0.024558
     4  C   -0.125257
     5  H    0.092952
     6  H    0.100344
     7  H    0.104426
     8  H    0.038741
 Sum of Mulliken charges =   0.00000

 Dipole moment (field-independent basis, Debye):
    X=              3.5140    Y=              0.5158    Z=              0.3536  Tot=              3.5692
 Quadrupole moment (field-independent basis, Debye-Ang):
   XX=            -27.8386   YY=            -21.7278   ZZ=            -25.3507
   XY=             -0.7189   XZ=             -0.0353   YZ=             -0.3289

 Normal termination of Gaussian 09 at Wed Aug 26 12:43:37 2020.
