 Gaussian 09, Revision D.01,
 Gaussian 09:  ES64L-G09RevD.01 24-Apr-2013

 --------------------
 #p B2PLYPD3/Def2QZVP
 --------------------

 --------
 acrolein
 --------
 Symbolic Z-matrix:
 Charge =  0 Multiplicity = 1

                         Standard orientation:
 ---------------------------------------------------------------------
 Center     Atomic      Atomic             Coordinates (Angstroms)
 Number     Number       Type             X           Y           Z
 ---------------------------------------------------------------------
      1          6           0       -0.683479    0.365830    0.019308
      2          8           0       -1.780056   -0.130008   -0.016774
      3          6           0        0.542745   -0.445976    0.023103
      4          6           0        1.761850    0.135644   -0.009243
      5          1           0        0.450260   -1.532364   -0.009793
      6          1           0        1.857584    1.213084   -0.017051
      7          1           0        2.711437   -0.428149   -0.037404
      8          1           0       -0.505524    1.454507   -0.000563
 ---------------------------------------------------------------------

 SCF Done:  E(RB2PLYPD3) =  -191.615517422     A.U. after   12 cycles
 E2(B2PLYPD3) =    -0.2473551291D+00 E(B2PLYPD3) =    -0.19186287255159D+03

 The electronic state is 1-A.
 Alpha  occ. eigenvalues --  -19.72853 -10.71609 -10.65819 -10.64586  -1.20010
 Alpha  occ. eigenvalues --   -0.92339  -0.75224  -0.67006  -0.56601  -0.56020
 Alpha  occ. eigenvalues --   -0.50547  -0.47040  -0.46606  -0.34296  -0.33938
 Alpha virt. eigenvalues --   -0.01796   0.05701   0.07175   0.08102   0.09710
 Alpha virt. eigenvalues --    0.12462   0.14070   0.15424   0.17556   0.19769
 Alpha virt. eigenvalues --    0.19936   0.21414   0.25421   0.26406   0.28728

 Mulliken charges:
               1
     1  C    0.155701
     2  O   -0.343046
     3  C   -0.043685
     4  C   -0.133973
     5  H    0.106772
     6  H    0.080839
     7  H    0.100688
     8  H    0.076704
 Sum of Mulliken charges =   0.00000

 Dipole moment (field-independent basis, Debye):
    X=              3.4096    Y=              0.8193    Z=              0.0013  Tot=              3.5067
 Quadrupole moment (field-independent basis, Debye-Ang):
   XX=            -27.2987   YY=            -21.7369   ZZ=            -25.3067
   XY=             -0.9776   XZ=             -0.2105   YZ=              0.0276

 Normal termination of Gaussian 09 at Wed Aug 26 18:31:56 2020.
