 Gaussian 09, Revision D.01,
 Gaussian 09:  ES64L-G09RevD.01 24-Apr-2013

 --------------------
 #p B2PLYPD3/Def2QZVP
 --------------------

 --------
 acrolein
 --------
 Symbolic Z-matrix:
 Charge =  0 Multiplicity = 1

                         Standard orientation:
 ---------------------------------------------------------------------
 Center     Atomic      Atomic             Coordinates (Angstroms)
 Number     Number       Type             X           Y           Z
 ---------------------------------------------------------------------
      1          6           0       -0.669567    0.346583    0.006822
      2          8           0       -1.787162   -0.116083   -0.008756
      3          6           0        0.562372   -0.461002    0.023286
      4          6           0        1.754921    0.155091   -0.014822
      5          1           0        0.446605   -1.530977   -0.012128
      6          1           0        1.792706    1.211431    0.035291
      7          1           0        2.674140   -0.418113   -0.031686
      8          1           0       -0.502514    1.422296   -0.013138
 ---------------------------------------------------------------------

 SCF Done:  E(RB2PLYPD3) =  -191.616360145     A.U. after   12 cycles
 E2(B2PLYPD3) =    -0.2470369077D+00 E(B2PLYPD3) =    -0.19186339705285D+03

 The electronic state is 1-A.
 Alpha  occ. eigenvalues --  -19.72728 -10.71353 -10.65360 -10.64422  -1.19510
 Alpha  occ. eigenvalues --   -0.92941  -0.75449  -0.67441  -0.56776  -0.56234
 Alpha  occ. eigenvalues --   -0.50462  -0.47534  -0.46732  -0.34517  -0.33815
 Alpha virt. eigenvalues --   -0.01752   0.05812   0.07212   0.08064   0.09784
 Alpha virt. eigenvalues --    0.12692   0.13941   0.15320   0.17512   0.19904
 Alpha virt. eigenvalues --    0.20076   0.21555   0.25239   0.26579   0.28857

 Mulliken charges:
               1
     1  C    0.152343
     2  O   -0.349556
     3  C   -0.036797
     4  C   -0.136328
     5  H    0.106158
     6  H    0.088684
     7  H    0.103107
     8  H    0.072389
 Sum of Mulliken charges =   0.00000

 Dipole moment (field-independent basis, Debye):
    X=              3.4825    Y=              0.7512    Z=              0.0128  Tot=              3.5627
 Quadrupole moment (field-independent basis, Debye-Ang):
   XX=            -27.5489   YY=            -21.6638   ZZ=            -25.2035
   XY=             -0.9363   XZ=             -0.0754   YZ=              0.0892

 Normal termination of Gaussian 09 at Wed Aug 26 16:19:34 2020.
