 Gaussian 09, Revision D.01,
 Gaussian 09:  ES64L-G09RevD.01 24-Apr-2013

 --------------------
 #p B2PLYPD3/Def2QZVP
 --------------------

 --------
 acrolein
 --------
 Symbolic Z-matrix:
 Charge =  0 Multiplicity = 1

                         Standard orientation:
 ---------------------------------------------------------------------
 Center     Atomic      Atomic             Coordinates (Angstroms)
 Number     Number       Type             X           Y           Z
 ---------------------------------------------------------------------
      1          6           0        0.671125    0.341288    0.007790
      2          8           0        1.792553   -0.115133    0.005848
      3          6           0       -0.565107   -0.451612   -0.022753
      4          6           0       -1.758807    0.147792    0.002157
      5          1           0       -0.454567   -1.509754   -0.005105
      6          1           0       -1.812512    1.203609   -0.021050
      7          1           0       -2.673036   -0.402182    0.074967
      8          1           0        0.516427    1.404589   -0.018762
 ---------------------------------------------------------------------

 SCF Done:  E(RB2PLYPD3) =  -191.616128788     A.U. after   12 cycles
 E2(B2PLYPD3) =    -0.2466449766D+00 E(B2PLYPD3) =    -0.19186277376507D+03

 The electronic state is 1-A.
 Alpha  occ. eigenvalues --  -19.72726 -10.71194 -10.65163 -10.64201  -1.19441
 Alpha  occ. eigenvalues --   -0.93183  -0.75841  -0.67722  -0.56896  -0.56585
 Alpha  occ. eigenvalues --   -0.50720  -0.47469  -0.46701  -0.34650  -0.33836
 Alpha virt. eigenvalues --   -0.01825   0.05815   0.07356   0.08223   0.09750
 Alpha virt. eigenvalues --    0.12718   0.14098   0.15353   0.17619   0.19933
 Alpha virt. eigenvalues --    0.19954   0.21660   0.25411   0.26520   0.28846

 Mulliken charges:
               1
     1  C    0.152521
     2  O   -0.350859
     3  C   -0.034900
     4  C   -0.134319
     5  H    0.105128
     6  H    0.085990
     7  H    0.103274
     8  H    0.073166
 Sum of Mulliken charges =   0.00000

 Dipole moment (field-independent basis, Debye):
    X=             -3.5231    Y=              0.7597    Z=              0.0346  Tot=              3.6042
 Quadrupole moment (field-independent basis, Debye-Ang):
   XX=            -27.4204   YY=            -21.7592   ZZ=            -25.1174
   XY=              0.9194   XZ=             -0.1951   YZ=             -0.0804

 Normal termination of Gaussian 09 at Wed Aug 26 19:03:19 2020.
