 Gaussian 09, Revision D.01,
 Gaussian 09:  ES64L-G09RevD.01 24-Apr-2013

 --------------------
 #p B2PLYPD3/Def2QZVP
 --------------------

 --------
 acrolein
 --------
 Symbolic Z-matrix:
 Charge =  0 Multiplicity = 1

                         Standard orientation:
 ---------------------------------------------------------------------
 Center     Atomic      Atomic             Coordinates (Angstroms)
 Number     Number       Type             X           Y           Z
 ---------------------------------------------------------------------
      1          6           0       -0.660970    0.339145   -0.017203
      2          8           0       -1.800465   -0.108501    0.019132
      3          6           0        0.573650   -0.468835   -0.021120
      4          6           0        1.747670    0.154736    0.018968
      5          1           0        0.460386   -1.553889   -0.050901
      6          1           0        1.813315    1.232785   -0.051652
      7          1           0        2.644990   -0.400747    0.073523
      8          1           0       -0.477071    1.439587   -0.007894
 ---------------------------------------------------------------------

 SCF Done:  E(RB2PLYPD3) =  -191.615042138     A.U. after   13 cycles
 E2(B2PLYPD3) =    -0.2478760884D+00 E(B2PLYPD3) =    -0.19186291822633D+03

 The electronic state is 1-A.
 Alpha  occ. eigenvalues --  -19.72854 -10.71867 -10.65284 -10.64661  -1.18608
 Alpha  occ. eigenvalues --   -0.93323  -0.75551  -0.66875  -0.56655  -0.56169
 Alpha  occ. eigenvalues --   -0.50358  -0.47418  -0.46224  -0.34779  -0.33799
 Alpha virt. eigenvalues --   -0.01852   0.05764   0.07035   0.07937   0.09727
 Alpha virt. eigenvalues --    0.12687   0.13978   0.15268   0.17266   0.19844
 Alpha virt. eigenvalues --    0.20109   0.21665   0.25193   0.26564   0.28695

 Mulliken charges:
               1
     1  C    0.155876
     2  O   -0.355373
     3  C   -0.034132
     4  C   -0.129734
     5  H    0.104242
     6  H    0.088275
     7  H    0.102845
     8  H    0.068002
 Sum of Mulliken charges =   0.00000

 Dipole moment (field-independent basis, Debye):
    X=              3.6055    Y=              0.7010    Z=             -0.0908  Tot=              3.6741
 Quadrupole moment (field-independent basis, Debye-Ang):
   XX=            -27.6848   YY=            -21.6552   ZZ=            -25.2243
   XY=             -0.8019   XZ=              0.1628   YZ=             -0.0434

 Normal termination of Gaussian 09 at Wed Aug 26 16:25:35 2020.
