 Gaussian 09, Revision D.01,
 Gaussian 09:  ES64L-G09RevD.01 24-Apr-2013

 --------------------
 #p B2PLYPD3/Def2QZVP
 --------------------

 --------
 acrolein
 --------
 Symbolic Z-matrix:
 Charge =  0 Multiplicity = 1

                         Standard orientation:
 ---------------------------------------------------------------------
 Center     Atomic      Atomic             Coordinates (Angstroms)
 Number     Number       Type             X           Y           Z
 ---------------------------------------------------------------------
      1          6           0       -0.654306   -0.328048    0.056113
      2          8           0       -1.839041    0.080703   -0.073086
      3          6           0        0.576339    0.491340    0.044883
      4          6           0        1.769846   -0.165208   -0.023952
      5          1           0        0.457585    1.647454    0.133414
      6          1           0        1.890574   -1.270898   -0.221364
      7          1           0        2.584364    0.415517   -0.108338
      8          1           0       -0.371465   -1.426197    0.318704
 ---------------------------------------------------------------------

 SCF Done:  E(RB2PLYPD3) =  -191.590661002     A.U. after   13 cycles
 E2(B2PLYPD3) =    -0.2519717632D+00 E(B2PLYPD3) =    -0.19184263276550D+03

 The electronic state is 1-A.
 Alpha  occ. eigenvalues --  -19.73288 -10.73017 -10.66417 -10.66041  -1.16693
 Alpha  occ. eigenvalues --   -0.92874  -0.76315  -0.65311  -0.56514  -0.54926
 Alpha  occ. eigenvalues --   -0.49842  -0.47205  -0.44947  -0.34567  -0.33742
 Alpha virt. eigenvalues --   -0.02922   0.05571   0.06246   0.07250   0.09510
 Alpha virt. eigenvalues --    0.12735   0.13713   0.14949   0.16777   0.18992
 Alpha virt. eigenvalues --    0.20292   0.21880   0.23750   0.26868   0.27816

 Mulliken charges:
               1
     1  C    0.163070
     2  O   -0.366069
     3  C   -0.039087
     4  C   -0.121998
     5  H    0.101468
     6  H    0.090153
     7  H    0.105149
     8  H    0.067313
 Sum of Mulliken charges =   0.00000

 Dipole moment (field-independent basis, Debye):
    X=              3.8469    Y=             -0.5744    Z=              0.1751  Tot=              3.8935
 Quadrupole moment (field-independent basis, Debye-Ang):
   XX=            -28.1595   YY=            -21.5905   ZZ=            -25.4724
   XY=              0.3479   XZ=             -0.9128   YZ=              0.2764

 Normal termination of Gaussian 09 at Wed Aug 26 13:14:33 2020.
