 Gaussian 09, Revision D.01,
 Gaussian 09:  ES64L-G09RevD.01 24-Apr-2013

 --------------------
 #p B2PLYPD3/Def2QZVP
 --------------------

 --------
 acrolein
 --------
 Symbolic Z-matrix:
 Charge =  0 Multiplicity = 1

                         Standard orientation:
 ---------------------------------------------------------------------
 Center     Atomic      Atomic             Coordinates (Angstroms)
 Number     Number       Type             X           Y           Z
 ---------------------------------------------------------------------
      1          6           0       -0.649938    0.321606   -0.044464
      2          8           0       -1.789573   -0.107734    0.049740
      3          6           0        0.594402   -0.471735   -0.058979
      4          6           0        1.719008    0.148778    0.011050
      5          1           0        0.553998   -1.473569   -0.088972
      6          1           0        1.844132    1.272096   -0.050064
      7          1           0        2.526003   -0.333765    0.305212
      8          1           0       -0.588379    1.405219   -0.009737
 ---------------------------------------------------------------------

 SCF Done:  E(RB2PLYPD3) =  -191.594759633     A.U. after   14 cycles
 E2(B2PLYPD3) =    -0.2461187527D+00 E(B2PLYPD3) =    -0.19184087838573D+03

 The electronic state is 1-A.
 Alpha  occ. eigenvalues --  -19.72406 -10.71271 -10.64131 -10.63329  -1.18627
 Alpha  occ. eigenvalues --   -0.94759  -0.75827  -0.68096  -0.57938  -0.56855
 Alpha  occ. eigenvalues --   -0.50551  -0.47892  -0.46000  -0.35285  -0.33445
 Alpha virt. eigenvalues --   -0.01340   0.05829   0.07421   0.07986   0.09609
 Alpha virt. eigenvalues --    0.12624   0.14427   0.15302   0.17644   0.19186
 Alpha virt. eigenvalues --    0.20273   0.22179   0.24776   0.26725   0.28625

 Mulliken charges:
               1
     1  C    0.146679
     2  O   -0.354911
     3  C   -0.039955
     4  C   -0.109759
     5  H    0.109084
     6  H    0.077125
     7  H    0.096362
     8  H    0.075377
 Sum of Mulliken charges =   0.00000

 Dipole moment (field-independent basis, Debye):
    X=              3.5919    Y=              0.6798    Z=             -0.0252  Tot=              3.6558
 Quadrupole moment (field-independent basis, Debye-Ang):
   XX=            -27.7396   YY=            -21.6195   ZZ=            -24.7841
   XY=             -0.9689   XZ=              0.8250   YZ=             -0.0837

 Normal termination of Gaussian 09 at Wed Aug 26 14:01:06 2020.
