 Gaussian 09, Revision D.01,
 Gaussian 09:  ES64L-G09RevD.01 24-Apr-2013

 --------------------
 #p B2PLYPD3/Def2QZVP
 --------------------

 --------
 acrolein
 --------
 Symbolic Z-matrix:
 Charge =  0 Multiplicity = 1

                         Standard orientation:
 ---------------------------------------------------------------------
 Center     Atomic      Atomic             Coordinates (Angstroms)
 Number     Number       Type             X           Y           Z
 ---------------------------------------------------------------------
      1          6           0       -0.658362    0.343181    0.003985
      2          8           0       -1.795379   -0.103720    0.013285
      3          6           0        0.577328   -0.471465   -0.037294
      4          6           0        1.751774    0.154114    0.022181
      5          1           0        0.446973   -1.621302   -0.027748
      6          1           0        1.862787    1.260628   -0.068596
      7          1           0        2.540284   -0.398079    0.089084
      8          1           0       -0.511451    1.433541   -0.032256
 ---------------------------------------------------------------------

 SCF Done:  E(RB2PLYPD3) =  -191.599290357     A.U. after   13 cycles
 E2(B2PLYPD3) =    -0.2478066577D+00 E(B2PLYPD3) =    -0.19184709701487D+03

 The electronic state is 1-A.
 Alpha  occ. eigenvalues --  -19.72679 -10.71605 -10.65346 -10.64575  -1.18693
 Alpha  occ. eigenvalues --   -0.93267  -0.76185  -0.66191  -0.57209  -0.56076
 Alpha  occ. eigenvalues --   -0.50341  -0.47090  -0.46170  -0.34725  -0.33679
 Alpha virt. eigenvalues --   -0.01765   0.05793   0.06813   0.07915   0.09658
 Alpha virt. eigenvalues --    0.12622   0.14200   0.15258   0.16875   0.19793
 Alpha virt. eigenvalues --    0.20036   0.22377   0.25018   0.26395   0.28354

 Mulliken charges:
               1
     1  C    0.158575
     2  O   -0.354063
     3  C   -0.041770
     4  C   -0.130762
     5  H    0.097558
     6  H    0.090605
     7  H    0.107845
     8  H    0.072012
 Sum of Mulliken charges =   0.00000

 Dipole moment (field-independent basis, Debye):
    X=              3.5764    Y=              0.7209    Z=             -0.0415  Tot=              3.6485
 Quadrupole moment (field-independent basis, Debye-Ang):
   XX=            -27.7974   YY=            -21.4298   ZZ=            -25.2275
   XY=             -0.7464   XZ=              0.1700   YZ=             -0.1346

 Normal termination of Gaussian 09 at Wed Aug 26 08:51:02 2020.
