 Gaussian 09, Revision D.01,
 Gaussian 09:  ES64L-G09RevD.01 24-Apr-2013

 --------------------
 #p B2PLYPD3/Def2QZVP
 --------------------

 --------
 acrolein
 --------
 Symbolic Z-matrix:
 Charge =  0 Multiplicity = 1

                         Standard orientation:
 ---------------------------------------------------------------------
 Center     Atomic      Atomic             Coordinates (Angstroms)
 Number     Number       Type             X           Y           Z
 ---------------------------------------------------------------------
      1          6           0       -0.659605   -0.312156   -0.025260
      2          8           0       -1.791727    0.069328    0.022451
      3          6           0        0.574767    0.467027   -0.016298
      4          6           0        1.737360   -0.161253    0.008225
      5          1           0        0.378059    1.586659    0.025596
      6          1           0        1.970524   -1.305097    0.104565
      7          1           0        2.640909    0.418811   -0.026800
      8          1           0       -0.570812   -1.216706   -0.082965
 ---------------------------------------------------------------------

 SCF Done:  E(RB2PLYPD3) =  -191.573172807     A.U. after   13 cycles
 E2(B2PLYPD3) =    -0.2457563602D+00 E(B2PLYPD3) =    -0.19181892916689D+03

 The electronic state is 1-A.
 Alpha  occ. eigenvalues --  -19.72010 -10.68522 -10.66344 -10.64892  -1.20045
 Alpha  occ. eigenvalues --   -0.93286  -0.76664  -0.68910  -0.57245  -0.55831
 Alpha  occ. eigenvalues --   -0.50887  -0.46953  -0.45722  -0.35013  -0.33462
 Alpha virt. eigenvalues --   -0.01494   0.05445   0.07115   0.08666   0.09492
 Alpha virt. eigenvalues --    0.12574   0.14191   0.15339   0.17444   0.18995
 Alpha virt. eigenvalues --    0.20087   0.21730   0.25390   0.27339   0.28119

 Mulliken charges:
               1
     1  C    0.164585
     2  O   -0.356914
     3  C   -0.040863
     4  C   -0.129550
     5  H    0.100106
     6  H    0.090109
     7  H    0.097234
     8  H    0.075294
 Sum of Mulliken charges =   0.00000

 Dipole moment (field-independent basis, Debye):
    X=              3.5837    Y=             -0.7325    Z=             -0.0263  Tot=              3.6579
 Quadrupole moment (field-independent basis, Debye-Ang):
   XX=            -27.5024   YY=            -21.5328   ZZ=            -25.0271
   XY=              0.3324   XZ=              0.2665   YZ=             -0.0861

 Normal termination of Gaussian 09 at Wed Aug 26 13:40:59 2020.
