 Gaussian 09, Revision D.01,
 Gaussian 09:  ES64L-G09RevD.01 24-Apr-2013

 --------------------
 #p B2PLYPD3/Def2QZVP
 --------------------

 --------
 acrolein
 --------
 Symbolic Z-matrix:
 Charge =  0 Multiplicity = 1

                         Standard orientation:
 ---------------------------------------------------------------------
 Center     Atomic      Atomic             Coordinates (Angstroms)
 Number     Number       Type             X           Y           Z
 ---------------------------------------------------------------------
      1          6           0       -0.659971    0.338450   -0.040860
      2          8           0       -1.803982   -0.109277    0.033924
      3          6           0        0.570515   -0.456053   -0.034877
      4          6           0        1.765057    0.149978    0.001985
      5          1           0        0.416425   -1.611901    0.013172
      6          1           0        1.835982    1.239492    0.089820
      7          1           0        2.636887   -0.422731    0.092309
      8          1           0       -0.511040    1.475109   -0.024179
 ---------------------------------------------------------------------

 SCF Done:  E(RB2PLYPD3) =  -191.607433146     A.U. after   13 cycles
 E2(B2PLYPD3) =    -0.2491859094D+00 E(B2PLYPD3) =    -0.19185661905567D+03

 The electronic state is 1-A.
 Alpha  occ. eigenvalues --  -19.72910 -10.72196 -10.65743 -10.65620  -1.18321
 Alpha  occ. eigenvalues --   -0.93054  -0.75812  -0.65572  -0.56601  -0.55936
 Alpha  occ. eigenvalues --   -0.50107  -0.46526  -0.46132  -0.34723  -0.33795
 Alpha virt. eigenvalues --   -0.02294   0.05705   0.06595   0.08022   0.09694
 Alpha virt. eigenvalues --    0.12526   0.13891   0.15264   0.16770   0.19782
 Alpha virt. eigenvalues --    0.19937   0.21854   0.25015   0.26343   0.28662

 Mulliken charges:
               1
     1  C    0.162053
     2  O   -0.356298
     3  C   -0.035333
     4  C   -0.123692
     5  H    0.097806
     6  H    0.088380
     7  H    0.107720
     8  H    0.059364
 Sum of Mulliken charges =   0.00000

 Dipole moment (field-independent basis, Debye):
    X=              3.6380    Y=              0.6902    Z=              0.0421  Tot=              3.7031
 Quadrupole moment (field-independent basis, Debye-Ang):
   XX=            -27.6817   YY=            -21.6967   ZZ=            -25.3769
   XY=             -0.7946   XZ=              0.5444   YZ=              0.0212

 Normal termination of Gaussian 09 at Wed Aug 26 22:13:10 2020.
