 Gaussian 09, Revision D.01,
 Gaussian 09:  ES64L-G09RevD.01 24-Apr-2013

 --------------------
 #p B2PLYPD3/Def2QZVP
 --------------------

 --------
 acrolein
 --------
 Symbolic Z-matrix:
 Charge =  0 Multiplicity = 1

                         Standard orientation:
 ---------------------------------------------------------------------
 Center     Atomic      Atomic             Coordinates (Angstroms)
 Number     Number       Type             X           Y           Z
 ---------------------------------------------------------------------
      1          6           0        0.666802    0.343872    0.034559
      2          8           0        1.795714   -0.115036   -0.024065
      3          6           0       -0.563293   -0.443760    0.010782
      4          6           0       -1.752046    0.141419   -0.019070
      5          1           0       -0.433734   -1.524257    0.028917
      6          1           0       -1.862881    1.234503   -0.036009
      7          1           0       -2.694275   -0.437935    0.010216
      8          1           0        0.516398    1.398783    0.031772
 ---------------------------------------------------------------------

 SCF Done:  E(RB2PLYPD3) =  -191.614839577     A.U. after   12 cycles
 E2(B2PLYPD3) =    -0.2473294777D+00 E(B2PLYPD3) =    -0.19186216905426D+03

 The electronic state is 1-A.
 Alpha  occ. eigenvalues --  -19.72727 -10.71159 -10.65919 -10.64382  -1.18889
 Alpha  occ. eigenvalues --   -0.93270  -0.75695  -0.67357  -0.56721  -0.56150
 Alpha  occ. eigenvalues --   -0.50530  -0.46504  -0.46484  -0.34853  -0.33902
 Alpha virt. eigenvalues --   -0.01914   0.05628   0.07172   0.08236   0.09688
 Alpha virt. eigenvalues --    0.12523   0.14029   0.15324   0.17592   0.19580
 Alpha virt. eigenvalues --    0.19965   0.21516   0.25527   0.26609   0.28720

 Mulliken charges:
               1
     1  C    0.156862
     2  O   -0.356816
     3  C   -0.035397
     4  C   -0.129504
     5  H    0.104449
     6  H    0.084503
     7  H    0.100770
     8  H    0.075132
 Sum of Mulliken charges =   0.00000

 Dipole moment (field-independent basis, Debye):
    X=             -3.5762    Y=              0.7814    Z=              0.1100  Tot=              3.6622
 Quadrupole moment (field-independent basis, Debye-Ang):
   XX=            -27.5155   YY=            -21.7296   ZZ=            -25.1949
   XY=              0.8546   XZ=              0.1252   YZ=             -0.0752

 Normal termination of Gaussian 09 at Wed Aug 26 15:10:41 2020.
