 Gaussian 09, Revision D.01,
 Gaussian 09:  ES64L-G09RevD.01 24-Apr-2013

 --------------------
 #p B2PLYPD3/Def2QZVP
 --------------------

 --------
 acrolein
 --------
 Symbolic Z-matrix:
 Charge =  0 Multiplicity = 1

                         Standard orientation:
 ---------------------------------------------------------------------
 Center     Atomic      Atomic             Coordinates (Angstroms)
 Number     Number       Type             X           Y           Z
 ---------------------------------------------------------------------
      1          6           0       -0.689770    0.364586    0.044079
      2          8           0       -1.786589   -0.120157   -0.055366
      3          6           0        0.591362   -0.478493    0.019316
      4          6           0        1.776111    0.174308   -0.061795
      5          1           0        0.403250   -1.525223    0.168283
      6          1           0        1.813278    1.167002   -0.087706
      7          1           0        2.582005   -0.419093    0.086890
      8          1           0       -0.572032    1.376161    0.265868
 ---------------------------------------------------------------------

 SCF Done:  E(RB2PLYPD3) =  -191.597956220     A.U. after   13 cycles
 E2(B2PLYPD3) =    -0.2463867183D+00 E(B2PLYPD3) =    -0.19184434293853D+03

 The electronic state is 1-A.
 Alpha  occ. eigenvalues --  -19.72838 -10.71102 -10.64800 -10.63613  -1.19953
 Alpha  occ. eigenvalues --   -0.92309  -0.75616  -0.68335  -0.58130  -0.55947
 Alpha  occ. eigenvalues --   -0.51069  -0.48583  -0.46252  -0.34143  -0.33508
 Alpha virt. eigenvalues --   -0.01344   0.06091   0.06888   0.08015   0.09807
 Alpha virt. eigenvalues --    0.12936   0.14016   0.15349   0.17657   0.19241
 Alpha virt. eigenvalues --    0.20311   0.22284   0.24619   0.27137   0.28308

 Mulliken charges:
               1
     1  C    0.153163
     2  O   -0.342920
     3  C   -0.060483
     4  C   -0.139490
     5  H    0.109256
     6  H    0.091398
     7  H    0.100551
     8  H    0.088525
 Sum of Mulliken charges =   0.00000

 Dipole moment (field-independent basis, Debye):
    X=              3.1859    Y=              0.8545    Z=              0.4346  Tot=              3.3270
 Quadrupole moment (field-independent basis, Debye-Ang):
   XX=            -27.9191   YY=            -21.3788   ZZ=            -25.0800
   XY=             -0.8732   XZ=             -0.1344   YZ=             -0.3066

 Normal termination of Gaussian 09 at Wed Aug 26 13:01:38 2020.
