 Gaussian 09, Revision D.01,
 Gaussian 09:  ES64L-G09RevD.01 24-Apr-2013

 --------------------
 #p B2PLYPD3/Def2QZVP
 --------------------

 --------
 acrolein
 --------
 Symbolic Z-matrix:
 Charge =  0 Multiplicity = 1

                         Standard orientation:
 ---------------------------------------------------------------------
 Center     Atomic      Atomic             Coordinates (Angstroms)
 Number     Number       Type             X           Y           Z
 ---------------------------------------------------------------------
      1          6           0       -0.685478    0.341057    0.038738
      2          8           0       -1.791211   -0.110294   -0.041718
      3          6           0        0.569907   -0.476426    0.007321
      4          6           0        1.753024    0.149287   -0.021245
      5          1           0        0.455692   -1.549398    0.148530
      6          1           0        1.929499    1.289315   -0.052614
      7          1           0        2.672038   -0.408074   -0.048723
      8          1           0       -0.552256    1.466995    0.137670
 ---------------------------------------------------------------------

 SCF Done:  E(RB2PLYPD3) =  -191.610381390     A.U. after   12 cycles
 E2(B2PLYPD3) =    -0.2472674416D+00 E(B2PLYPD3) =    -0.19185764883197D+03

 The electronic state is 1-A.
 Alpha  occ. eigenvalues --  -19.72858 -10.71852 -10.66078 -10.64945  -1.20371
 Alpha  occ. eigenvalues --   -0.92245  -0.74521  -0.66181  -0.56495  -0.55763
 Alpha  occ. eigenvalues --   -0.50811  -0.47134  -0.46170  -0.34679  -0.33496
 Alpha virt. eigenvalues --   -0.01350   0.05663   0.06974   0.08026   0.09505
 Alpha virt. eigenvalues --    0.12280   0.14033   0.15201   0.17627   0.19379
 Alpha virt. eigenvalues --    0.19950   0.21458   0.25056   0.26520   0.28493

 Mulliken charges:
               1
     1  C    0.159090
     2  O   -0.334738
     3  C   -0.055149
     4  C   -0.124373
     5  H    0.108560
     6  H    0.083483
     7  H    0.097321
     8  H    0.065806
 Sum of Mulliken charges =   0.00000

 Dipole moment (field-independent basis, Debye):
    X=              3.3831    Y=              0.6874    Z=              0.2299  Tot=              3.4599
 Quadrupole moment (field-independent basis, Debye-Ang):
   XX=            -27.3582   YY=            -21.7195   ZZ=            -25.3396
   XY=             -0.6964   XZ=             -0.3288   YZ=             -0.2223

 Normal termination of Gaussian 09 at Wed Aug 26 09:43:26 2020.
