 Gaussian 09, Revision D.01,
 Gaussian 09:  ES64L-G09RevD.01 24-Apr-2013

 --------------------
 #p B2PLYPD3/Def2QZVP
 --------------------

 --------
 acrolein
 --------
 Symbolic Z-matrix:
 Charge =  0 Multiplicity = 1

                         Standard orientation:
 ---------------------------------------------------------------------
 Center     Atomic      Atomic             Coordinates (Angstroms)
 Number     Number       Type             X           Y           Z
 ---------------------------------------------------------------------
      1          6           0       -0.670694    0.363740   -0.029331
      2          8           0       -1.778510   -0.146937    0.030162
      3          6           0        0.570407   -0.420369   -0.042843
      4          6           0        1.748408    0.146888    0.008165
      5          1           0        0.457766   -1.540971    0.021337
      6          1           0        1.726473    1.136609    0.092032
      7          1           0        2.688353   -0.444619    0.068011
      8          1           0       -0.533238    1.482926   -0.038620
 ---------------------------------------------------------------------

 SCF Done:  E(RB2PLYPD3) =  -191.605332639     A.U. after   12 cycles
 E2(B2PLYPD3) =    -0.2474616248D+00 E(B2PLYPD3) =    -0.19185279426413D+03

 The electronic state is 1-A.
 Alpha  occ. eigenvalues --  -19.73025 -10.72101 -10.64388 -10.64240  -1.19048
 Alpha  occ. eigenvalues --   -0.93898  -0.75479  -0.66778  -0.57269  -0.56117
 Alpha  occ. eigenvalues --   -0.50475  -0.46763  -0.46274  -0.35049  -0.34017
 Alpha virt. eigenvalues --   -0.01676   0.05838   0.06797   0.08176   0.09928
 Alpha virt. eigenvalues --    0.12586   0.13772   0.15325   0.17101   0.19736
 Alpha virt. eigenvalues --    0.20457   0.21655   0.25631   0.26237   0.29115

 Mulliken charges:
               1
     1  C    0.148612
     2  O   -0.350280
     3  C   -0.024028
     4  C   -0.132845
     5  H    0.096721
     6  H    0.084603
     7  H    0.107360
     8  H    0.069858
 Sum of Mulliken charges =   0.00000

 Dipole moment (field-independent basis, Debye):
    X=              3.4315    Y=              0.8384    Z=              0.0485  Tot=              3.5328
 Quadrupole moment (field-independent basis, Debye-Ang):
   XX=            -27.4942   YY=            -21.8142   ZZ=            -25.1387
   XY=             -1.3138   XZ=              0.4707   YZ=             -0.0040

 Normal termination of Gaussian 09 at Wed Aug 26 07:45:37 2020.
