 Gaussian 09, Revision D.01,
 Gaussian 09:  ES64L-G09RevD.01 24-Apr-2013

 --------------------
 #p B2PLYPD3/Def2QZVP
 --------------------

 --------
 acrolein
 --------
 Symbolic Z-matrix:
 Charge =  0 Multiplicity = 1

                         Standard orientation:
 ---------------------------------------------------------------------
 Center     Atomic      Atomic             Coordinates (Angstroms)
 Number     Number       Type             X           Y           Z
 ---------------------------------------------------------------------
      1          6           0        0.681770    0.331922   -0.022729
      2          8           0        1.798931   -0.099656    0.007121
      3          6           0       -0.567802   -0.482090    0.023199
      4          6           0       -1.758998    0.140928   -0.008968
      5          1           0       -0.464873   -1.475038   -0.017855
      6          1           0       -1.911357    1.325885    0.079855
      7          1           0       -2.620922   -0.417582   -0.048939
      8          1           0        0.475877    1.419425   -0.019036
 ---------------------------------------------------------------------

 SCF Done:  E(RB2PLYPD3) =  -191.601233339     A.U. after   13 cycles
 E2(B2PLYPD3) =    -0.2469206174D+00 E(B2PLYPD3) =    -0.19184815395642D+03

 The electronic state is 1-A.
 Alpha  occ. eigenvalues --  -19.72889 -10.71479 -10.66143 -10.63898  -1.20260
 Alpha  occ. eigenvalues --   -0.92719  -0.75251  -0.67547  -0.57018  -0.55636
 Alpha  occ. eigenvalues --   -0.51108  -0.47114  -0.46989  -0.34592  -0.33612
 Alpha virt. eigenvalues --   -0.01597   0.05539   0.07475   0.08060   0.09580
 Alpha virt. eigenvalues --    0.12422   0.13911   0.15358   0.18002   0.19087
 Alpha virt. eigenvalues --    0.20000   0.21610   0.25027   0.26721   0.28424

 Mulliken charges:
               1
     1  C    0.164497
     2  O   -0.340551
     3  C   -0.058159
     4  C   -0.125291
     5  H    0.110791
     6  H    0.081711
     7  H    0.101467
     8  H    0.065536
 Sum of Mulliken charges =   0.00000

 Dipole moment (field-independent basis, Debye):
    X=             -3.4499    Y=              0.6222    Z=             -0.0465  Tot=              3.5059
 Quadrupole moment (field-independent basis, Debye-Ang):
   XX=            -27.4564   YY=            -21.7167   ZZ=            -25.2189
   XY=              0.6843   XZ=             -0.0207   YZ=              0.1734

 Normal termination of Gaussian 09 at Wed Aug 26 20:53:25 2020.
