 Gaussian 09, Revision D.01,
 Gaussian 09:  ES64L-G09RevD.01 24-Apr-2013

 --------------------
 #p B2PLYPD3/Def2QZVP
 --------------------

 --------
 acrolein
 --------
 Symbolic Z-matrix:
 Charge =  0 Multiplicity = 1

                         Standard orientation:
 ---------------------------------------------------------------------
 Center     Atomic      Atomic             Coordinates (Angstroms)
 Number     Number       Type             X           Y           Z
 ---------------------------------------------------------------------
      1          6           0        0.664987    0.334068    0.011169
      2          8           0        1.801547   -0.109773   -0.021669
      3          6           0       -0.578137   -0.457398    0.016683
      4          6           0       -1.756250    0.149768   -0.009004
      5          1           0       -0.448974   -1.538439    0.053831
      6          1           0       -1.814249    1.238414   -0.052757
      7          1           0       -2.634066   -0.410055   -0.041306
      8          1           0        0.501312    1.429630    0.100495
 ---------------------------------------------------------------------

 SCF Done:  E(RB2PLYPD3) =  -191.615022467     A.U. after   12 cycles
 E2(B2PLYPD3) =    -0.2474559765D+00 E(B2PLYPD3) =    -0.19186247844342D+03

 The electronic state is 1-A.
 Alpha  occ. eigenvalues --  -19.72887 -10.71734 -10.65167 -10.64532  -1.18889
 Alpha  occ. eigenvalues --   -0.93409  -0.75782  -0.66784  -0.56954  -0.56193
 Alpha  occ. eigenvalues --   -0.50619  -0.47251  -0.46360  -0.34935  -0.33769
 Alpha virt. eigenvalues --   -0.01839   0.05808   0.07095   0.08128   0.09738
 Alpha virt. eigenvalues --    0.12691   0.13937   0.15276   0.17344   0.19612
 Alpha virt. eigenvalues --    0.20093   0.21804   0.25302   0.26592   0.28721

 Mulliken charges:
               1
     1  C    0.157741
     2  O   -0.353282
     3  C   -0.035473
     4  C   -0.129176
     5  H    0.102043
     6  H    0.086848
     7  H    0.105926
     8  H    0.065373
 Sum of Mulliken charges =   0.00000

 Dipole moment (field-independent basis, Debye):
    X=             -3.5742    Y=              0.6906    Z=              0.0614  Tot=              3.6408
 Quadrupole moment (field-independent basis, Debye-Ang):
   XX=            -27.6085   YY=            -21.7385   ZZ=            -25.1827
   XY=              0.8474   XZ=              0.2729   YZ=             -0.0753

 Normal termination of Gaussian 09 at Wed Aug 26 18:44:52 2020.
