 Gaussian 09, Revision D.01,
 Gaussian 09:  ES64L-G09RevD.01 24-Apr-2013

 --------------------
 #p B2PLYPD3/Def2QZVP
 --------------------

 --------
 acrolein
 --------
 Symbolic Z-matrix:
 Charge =  0 Multiplicity = 1

                         Standard orientation:
 ---------------------------------------------------------------------
 Center     Atomic      Atomic             Coordinates (Angstroms)
 Number     Number       Type             X           Y           Z
 ---------------------------------------------------------------------
      1          6           0        0.637675   -0.316292   -0.073991
      2          8           0        1.836797    0.073735    0.054563
      3          6           0       -0.588218    0.487882   -0.069717
      4          6           0       -1.781729   -0.170868   -0.004648
      5          1           0       -0.316780    1.643467    0.060116
      6          1           0       -1.914681   -1.229358    0.081668
      7          1           0       -2.594655    0.410757    0.257320
      8          1           0        0.525366   -1.419071    0.054531
 ---------------------------------------------------------------------

 SCF Done:  E(RB2PLYPD3) =  -191.587314265     A.U. after   14 cycles
 E2(B2PLYPD3) =    -0.2520293901D+00 E(B2PLYPD3) =    -0.19183934365466D+03

 The electronic state is 1-A.
 Alpha  occ. eigenvalues --  -19.72700 -10.72066 -10.67042 -10.66251  -1.16048
 Alpha  occ. eigenvalues --   -0.93072  -0.76650  -0.65846  -0.56469  -0.56126
 Alpha  occ. eigenvalues --   -0.49120  -0.46888  -0.44858  -0.34466  -0.33515
 Alpha virt. eigenvalues --   -0.03304   0.05580   0.06331   0.07504   0.09509
 Alpha virt. eigenvalues --    0.12586   0.13810   0.15131   0.16689   0.19357
 Alpha virt. eigenvalues --    0.19720   0.22267   0.23707   0.26941   0.27936

 Mulliken charges:
               1
     1  C    0.164489
     2  O   -0.381210
     3  C   -0.043288
     4  C   -0.112436
     5  H    0.108232
     6  H    0.097741
     7  H    0.102051
     8  H    0.064422
 Sum of Mulliken charges =   0.00000

 Dipole moment (field-independent basis, Debye):
    X=             -3.9055    Y=             -0.6475    Z=              0.1579  Tot=              3.9620
 Quadrupole moment (field-independent basis, Debye-Ang):
   XX=            -28.2072   YY=            -21.5684   ZZ=            -25.4167
   XY=             -0.2111   XZ=             -1.0152   YZ=              0.1137

 Normal termination of Gaussian 09 at Wed Aug 26 10:46:02 2020.
