 Gaussian 09, Revision D.01,
 Gaussian 09:  ES64L-G09RevD.01 24-Apr-2013

 --------------------
 #p B2PLYPD3/Def2QZVP
 --------------------

 --------
 acrolein
 --------
 Symbolic Z-matrix:
 Charge =  0 Multiplicity = 1

                         Standard orientation:
 ---------------------------------------------------------------------
 Center     Atomic      Atomic             Coordinates (Angstroms)
 Number     Number       Type             X           Y           Z
 ---------------------------------------------------------------------
      1          6           0        0.659391    0.342064    0.022374
      2          8           0        1.794353   -0.115438   -0.013788
      3          6           0       -0.563273   -0.459375    0.004116
      4          6           0       -1.746948    0.155572   -0.014334
      5          1           0       -0.454136   -1.550279    0.019666
      6          1           0       -1.805825    1.209712   -0.012098
      7          1           0       -2.693309   -0.419677    0.017158
      8          1           0        0.503427    1.454181    0.012650
 ---------------------------------------------------------------------

 SCF Done:  E(RB2PLYPD3) =  -191.614590250     A.U. after   12 cycles
 E2(B2PLYPD3) =    -0.2480456300D+00 E(B2PLYPD3) =    -0.19186263588028D+03

 The electronic state is 1-A.
 Alpha  occ. eigenvalues --  -19.72764 -10.71821 -10.65643 -10.64699  -1.18648
 Alpha  occ. eigenvalues --   -0.93294  -0.75404  -0.66881  -0.56569  -0.56117
 Alpha  occ. eigenvalues --   -0.50058  -0.47174  -0.46380  -0.34727  -0.33816
 Alpha virt. eigenvalues --   -0.01978   0.05713   0.06934   0.08048   0.09743
 Alpha virt. eigenvalues --    0.12569   0.13961   0.15274   0.17273   0.19960
 Alpha virt. eigenvalues --    0.20055   0.21442   0.25386   0.26335   0.28902

 Mulliken charges:
               1
     1  C    0.152626
     2  O   -0.355622
     3  C   -0.030245
     4  C   -0.130269
     5  H    0.105390
     6  H    0.090093
     7  H    0.100855
     8  H    0.067172
 Sum of Mulliken charges =   0.00000

 Dipole moment (field-independent basis, Debye):
    X=             -3.6042    Y=              0.7286    Z=              0.0826  Tot=              3.6780
 Quadrupole moment (field-independent basis, Debye-Ang):
   XX=            -27.6087   YY=            -21.6812   ZZ=            -25.2678
   XY=              0.8862   XZ=              0.0229   YZ=             -0.0492

 Normal termination of Gaussian 09 at Wed Aug 26 18:37:17 2020.
