 Gaussian 09, Revision D.01,
 Gaussian 09:  ES64L-G09RevD.01 24-Apr-2013

 --------------------
 #p B2PLYPD3/Def2QZVP
 --------------------

 --------
 acrolein
 --------
 Symbolic Z-matrix:
 Charge =  0 Multiplicity = 1

                         Standard orientation:
 ---------------------------------------------------------------------
 Center     Atomic      Atomic             Coordinates (Angstroms)
 Number     Number       Type             X           Y           Z
 ---------------------------------------------------------------------
      1          6           0       -0.661408    0.318571    0.023697
      2          8           0       -1.797088   -0.103485   -0.054963
      3          6           0        0.583074   -0.453027    0.042261
      4          6           0        1.758754    0.171352   -0.020961
      5          1           0        0.468261   -1.580895    0.111160
      6          1           0        1.848408    1.238935   -0.176594
      7          1           0        2.599293   -0.436782   -0.062782
      8          1           0       -0.621778    1.385248    0.297941
 ---------------------------------------------------------------------

 SCF Done:  E(RB2PLYPD3) =  -191.607499263     A.U. after   14 cycles
 E2(B2PLYPD3) =    -0.2474051471D+00 E(B2PLYPD3) =    -0.19185490440964D+03

 The electronic state is 1-A.
 Alpha  occ. eigenvalues --  -19.72517 -10.71233 -10.65265 -10.65126  -1.19146
 Alpha  occ. eigenvalues --   -0.93286  -0.75848  -0.66227  -0.57169  -0.56305
 Alpha  occ. eigenvalues --   -0.50270  -0.47412  -0.46081  -0.34912  -0.33338
 Alpha virt. eigenvalues --   -0.01899   0.05903   0.06752   0.07988   0.09653
 Alpha virt. eigenvalues --    0.12769   0.14065   0.15196   0.17288   0.18908
 Alpha virt. eigenvalues --    0.20354   0.21869   0.24666   0.26607   0.28506

 Mulliken charges:
               1
     1  C    0.153309
     2  O   -0.348375
     3  C   -0.048057
     4  C   -0.123947
     5  H    0.100023
     6  H    0.095193
     7  H    0.103942
     8  H    0.067912
 Sum of Mulliken charges =   0.00000

 Dipole moment (field-independent basis, Debye):
    X=              3.5509    Y=              0.6535    Z=              0.1355  Tot=              3.6131
 Quadrupole moment (field-independent basis, Debye-Ang):
   XX=            -27.6842   YY=            -21.6543   ZZ=            -25.1591
   XY=             -0.9097   XZ=             -0.7271   YZ=             -0.2411

 Normal termination of Gaussian 09 at Wed Aug 26 14:15:55 2020.
