 Gaussian 09, Revision D.01,
 Gaussian 09:  ES64L-G09RevD.01 24-Apr-2013

 --------------------
 #p B2PLYPD3/Def2QZVP
 --------------------

 --------
 acrolein
 --------
 Symbolic Z-matrix:
 Charge =  0 Multiplicity = 1

                         Standard orientation:
 ---------------------------------------------------------------------
 Center     Atomic      Atomic             Coordinates (Angstroms)
 Number     Number       Type             X           Y           Z
 ---------------------------------------------------------------------
      1          6           0       -0.674383    0.351820   -0.007727
      2          8           0       -1.787234   -0.126752    0.011898
      3          6           0        0.553947   -0.436450   -0.014172
      4          6           0        1.757685    0.132295    0.000122
      5          1           0        0.428404   -1.515527   -0.039352
      6          1           0        1.833332    1.223028   -0.031482
      7          1           0        2.709152   -0.442823    0.097339
      8          1           0       -0.496514    1.463351    0.008977
 ---------------------------------------------------------------------

 SCF Done:  E(RB2PLYPD3) =  -191.614974571     A.U. after   13 cycles
 E2(B2PLYPD3) =    -0.2476278369D+00 E(B2PLYPD3) =    -0.19186260240740D+03

 The electronic state is 1-A.
 Alpha  occ. eigenvalues --  -19.72952 -10.71787 -10.65992 -10.64339  -1.19569
 Alpha  occ. eigenvalues --   -0.93044  -0.75341  -0.66636  -0.56432  -0.56092
 Alpha  occ. eigenvalues --   -0.50581  -0.46983  -0.46361  -0.34724  -0.33918
 Alpha virt. eigenvalues --   -0.01907   0.05650   0.07070   0.08290   0.09763
 Alpha virt. eigenvalues --    0.12403   0.13848   0.15358   0.17493   0.19641
 Alpha virt. eigenvalues --    0.19914   0.21439   0.25539   0.26442   0.28802

 Mulliken charges:
               1
     1  C    0.158272
     2  O   -0.347895
     3  C   -0.034203
     4  C   -0.130092
     5  H    0.104057
     6  H    0.082044
     7  H    0.103848
     8  H    0.063969
 Sum of Mulliken charges =   0.00000

 Dipole moment (field-independent basis, Debye):
    X=              3.4935    Y=              0.7458    Z=             -0.0085  Tot=              3.5723
 Quadrupole moment (field-independent basis, Debye-Ang):
   XX=            -27.3456   YY=            -21.8894   ZZ=            -25.2546
   XY=             -0.9545   XZ=              0.2354   YZ=             -0.0410

 Normal termination of Gaussian 09 at Wed Aug 26 18:54:47 2020.
