 Gaussian 09, Revision D.01,
 Gaussian 09:  ES64L-G09RevD.01 24-Apr-2013

 --------------------
 #p B2PLYPD3/Def2QZVP
 --------------------

 --------
 acrolein
 --------
 Symbolic Z-matrix:
 Charge =  0 Multiplicity = 1

                         Standard orientation:
 ---------------------------------------------------------------------
 Center     Atomic      Atomic             Coordinates (Angstroms)
 Number     Number       Type             X           Y           Z
 ---------------------------------------------------------------------
      1          6           0       -0.667940    0.339230    0.021595
      2          8           0       -1.788175   -0.109670   -0.010143
      3          6           0        0.565432   -0.454933   -0.006069
      4          6           0        1.746533    0.150433   -0.007062
      5          1           0        0.456019   -1.533405    0.009276
      6          1           0        1.839553    1.235672   -0.045695
      7          1           0        2.673336   -0.408034    0.047209
      8          1           0       -0.527656    1.374749    0.019571
 ---------------------------------------------------------------------

 SCF Done:  E(RB2PLYPD3) =  -191.615187346     A.U. after   12 cycles
 E2(B2PLYPD3) =    -0.2463360442D+00 E(B2PLYPD3) =    -0.19186152339069D+03

 The electronic state is 1-A.
 Alpha  occ. eigenvalues --  -19.72561 -10.70733 -10.65471 -10.64277  -1.19569
 Alpha  occ. eigenvalues --   -0.93197  -0.75668  -0.67738  -0.56934  -0.56384
 Alpha  occ. eigenvalues --   -0.50684  -0.46921  -0.46740  -0.34787  -0.33794
 Alpha virt. eigenvalues --   -0.01616   0.05741   0.07275   0.08282   0.09688
 Alpha virt. eigenvalues --    0.12669   0.14204   0.15341   0.17604   0.19707
 Alpha virt. eigenvalues --    0.19994   0.21601   0.25504   0.26636   0.28743

 Mulliken charges:
               1
     1  C    0.154393
     2  O   -0.351144
     3  C   -0.037658
     4  C   -0.131966
     5  H    0.104224
     6  H    0.084888
     7  H    0.100515
     8  H    0.076749
 Sum of Mulliken charges =   0.00000

 Dipole moment (field-independent basis, Debye):
    X=              3.5088    Y=              0.7711    Z=              0.0665  Tot=              3.5931
 Quadrupole moment (field-independent basis, Debye-Ang):
   XX=            -27.4914   YY=            -21.6653   ZZ=            -25.1165
   XY=             -0.8625   XZ=              0.0072   YZ=             -0.0936

 Normal termination of Gaussian 09 at Wed Aug 26 14:17:28 2020.
