 Gaussian 09, Revision D.01,
 Gaussian 09:  ES64L-G09RevD.01 24-Apr-2013

 --------------------
 #p B2PLYPD3/Def2QZVP
 --------------------

 --------
 acrolein
 --------
 Symbolic Z-matrix:
 Charge =  0 Multiplicity = 1

                         Standard orientation:
 ---------------------------------------------------------------------
 Center     Atomic      Atomic             Coordinates (Angstroms)
 Number     Number       Type             X           Y           Z
 ---------------------------------------------------------------------
      1          6           0        0.662599    0.340448    0.009508
      2          8           0        1.793380   -0.112073   -0.009627
      3          6           0       -0.569025   -0.459230   -0.000543
      4          6           0       -1.753965    0.155632    0.001361
      5          1           0       -0.437748   -1.546732    0.040118
      6          1           0       -1.815479    1.196450   -0.014001
      7          1           0       -2.655791   -0.403004   -0.034818
      8          1           0        0.524328    1.428769    0.023761
 ---------------------------------------------------------------------

 SCF Done:  E(RB2PLYPD3) =  -191.615396285     A.U. after   12 cycles
 E2(B2PLYPD3) =    -0.2471879060D+00 E(B2PLYPD3) =    -0.19186258419055D+03

 The electronic state is 1-A.
 Alpha  occ. eigenvalues --  -19.72678 -10.71439 -10.65002 -10.64670  -1.18959
 Alpha  occ. eigenvalues --   -0.93268  -0.75836  -0.67191  -0.56922  -0.56505
 Alpha  occ. eigenvalues --   -0.50366  -0.47528  -0.46441  -0.34702  -0.33759
 Alpha virt. eigenvalues --   -0.01866   0.05834   0.07145   0.08125   0.09760
 Alpha virt. eigenvalues --    0.12721   0.14048   0.15286   0.17305   0.19974
 Alpha virt. eigenvalues --    0.20086   0.21771   0.25371   0.26445   0.28828

 Mulliken charges:
               1
     1  C    0.152392
     2  O   -0.354398
     3  C   -0.033232
     4  C   -0.132265
     5  H    0.104400
     6  H    0.089990
     7  H    0.102987
     8  H    0.070126
 Sum of Mulliken charges =   0.00000

 Dipole moment (field-independent basis, Debye):
    X=             -3.5693    Y=              0.7430    Z=              0.0345  Tot=              3.6460
 Quadrupole moment (field-independent basis, Debye-Ang):
   XX=            -27.5443   YY=            -21.6659   ZZ=            -25.1722
   XY=              0.8468   XZ=              0.1347   YZ=             -0.0513

 Normal termination of Gaussian 09 at Wed Aug 26 15:07:53 2020.
