 Gaussian 09, Revision D.01,
 Gaussian 09:  ES64L-G09RevD.01 24-Apr-2013

 --------------------
 #p B2PLYPD3/Def2QZVP
 --------------------

 --------
 acrolein
 --------
 Symbolic Z-matrix:
 Charge =  0 Multiplicity = 1

                         Standard orientation:
 ---------------------------------------------------------------------
 Center     Atomic      Atomic             Coordinates (Angstroms)
 Number     Number       Type             X           Y           Z
 ---------------------------------------------------------------------
      1          6           0       -0.671332    0.359413    0.003258
      2          8           0       -1.784645   -0.134754    0.012256
      3          6           0        0.559033   -0.408208   -0.024840
      4          6           0        1.761287    0.120680    0.003274
      5          1           0        0.396926   -1.508583   -0.027789
      6          1           0        1.798603    1.140331    0.000397
      7          1           0        2.681674   -0.419800    0.083920
      8          1           0       -0.493977    1.434776   -0.044723
 ---------------------------------------------------------------------

 SCF Done:  E(RB2PLYPD3) =  -191.611141760     A.U. after   12 cycles
 E2(B2PLYPD3) =    -0.2469224122D+00 E(B2PLYPD3) =    -0.19185806417265D+03

 The electronic state is 1-A.
 Alpha  occ. eigenvalues --  -19.73018 -10.71512 -10.64510 -10.64082  -1.19218
 Alpha  occ. eigenvalues --   -0.93843  -0.76537  -0.67134  -0.57122  -0.56871
 Alpha  occ. eigenvalues --   -0.51193  -0.46850  -0.46050  -0.35001  -0.34095
 Alpha virt. eigenvalues --   -0.01995   0.05826   0.07223   0.08488   0.09881
 Alpha virt. eigenvalues --    0.12666   0.14062   0.15368   0.17267   0.19751
 Alpha virt. eigenvalues --    0.20127   0.21952   0.25823   0.26499   0.28837

 Mulliken charges:
               1
     1  C    0.156133
     2  O   -0.353476
     3  C   -0.021965
     4  C   -0.133399
     5  H    0.095582
     6  H    0.079708
     7  H    0.108198
     8  H    0.069218
 Sum of Mulliken charges =   0.00000

 Dipole moment (field-independent basis, Debye):
    X=              3.5199    Y=              0.8420    Z=              0.0134  Tot=              3.6192
 Quadrupole moment (field-independent basis, Debye-Ang):
   XX=            -27.1854   YY=            -22.0089   ZZ=            -25.0406
   XY=             -1.0030   XZ=              0.2735   YZ=             -0.0418

 Normal termination of Gaussian 09 at Wed Aug 26 20:44:57 2020.
