 Gaussian 09, Revision D.01,
 Gaussian 09:  ES64L-G09RevD.01 24-Apr-2013

 --------------------
 #p B2PLYPD3/Def2QZVP
 --------------------

 --------
 acrolein
 --------
 Symbolic Z-matrix:
 Charge =  0 Multiplicity = 1

                         Standard orientation:
 ---------------------------------------------------------------------
 Center     Atomic      Atomic             Coordinates (Angstroms)
 Number     Number       Type             X           Y           Z
 ---------------------------------------------------------------------
      1          6           0        0.667919    0.336458   -0.076290
      2          8           0        1.792479   -0.095303    0.079913
      3          6           0       -0.561496   -0.493353   -0.067595
      4          6           0       -1.773303    0.152466    0.071753
      5          1           0       -0.391434   -1.670447   -0.203061
      6          1           0       -1.841685    1.345334   -0.128870
      7          1           0       -2.646597   -0.376216    0.216198
      8          1           0        0.541161    1.490328   -0.090773
 ---------------------------------------------------------------------

 SCF Done:  E(RB2PLYPD3) =  -191.586966763     A.U. after   14 cycles
 E2(B2PLYPD3) =    -0.2505569539D+00 E(B2PLYPD3) =    -0.19183752371701D+03

 The electronic state is 1-A.
 Alpha  occ. eigenvalues --  -19.72756 -10.72202 -10.67176 -10.66783  -1.19233
 Alpha  occ. eigenvalues --   -0.91565  -0.74967  -0.64742  -0.56444  -0.54488
 Alpha  occ. eigenvalues --   -0.50086  -0.47085  -0.45414  -0.33887  -0.33497
 Alpha virt. eigenvalues --   -0.02283   0.05173   0.06360   0.07598   0.09440
 Alpha virt. eigenvalues --    0.11918   0.13956   0.15229   0.16730   0.19495
 Alpha virt. eigenvalues --    0.20103   0.21299   0.24185   0.26236   0.28994

 Mulliken charges:
               1
     1  C    0.163574
     2  O   -0.343535
     3  C   -0.045738
     4  C   -0.129320
     5  H    0.101218
     6  H    0.086966
     7  H    0.111784
     8  H    0.055051
 Sum of Mulliken charges =   0.00000

 Dipole moment (field-independent basis, Debye):
    X=             -3.5178    Y=              0.5988    Z=             -0.3772  Tot=              3.5883
 Quadrupole moment (field-independent basis, Debye-Ang):
   XX=            -27.6384   YY=            -21.6135   ZZ=            -25.6035
   XY=              0.7381   XZ=             -0.6495   YZ=             -0.0275

 Normal termination of Gaussian 09 at Wed Aug 26 13:05:08 2020.
