 Gaussian 09, Revision D.01,
 Gaussian 09:  ES64L-G09RevD.01 24-Apr-2013

 --------------------
 #p B2PLYPD3/Def2QZVP
 --------------------

 --------
 acrolein
 --------
 Symbolic Z-matrix:
 Charge =  0 Multiplicity = 1

                         Standard orientation:
 ---------------------------------------------------------------------
 Center     Atomic      Atomic             Coordinates (Angstroms)
 Number     Number       Type             X           Y           Z
 ---------------------------------------------------------------------
      1          6           0       -0.674655    0.341180    0.021032
      2          8           0       -1.788586   -0.114459   -0.025253
      3          6           0        0.567224   -0.458946    0.018769
      4          6           0        1.752327    0.148338   -0.011860
      5          1           0        0.485477   -1.517852    0.033348
      6          1           0        1.887074    1.255395   -0.068892
      7          1           0        2.637932   -0.410819   -0.019205
      8          1           0       -0.571164    1.405519    0.089131
 ---------------------------------------------------------------------

 SCF Done:  E(RB2PLYPD3) =  -191.614778426     A.U. after   12 cycles
 E2(B2PLYPD3) =    -0.2462537804D+00 E(B2PLYPD3) =    -0.19186103220644D+03

 The electronic state is 1-A.
 Alpha  occ. eigenvalues --  -19.72544 -10.71043 -10.65326 -10.64280  -1.19757
 Alpha  occ. eigenvalues --   -0.92937  -0.75471  -0.67490  -0.56823  -0.56627
 Alpha  occ. eigenvalues --   -0.50678  -0.47075  -0.46772  -0.34698  -0.33703
 Alpha virt. eigenvalues --   -0.01511   0.05772   0.07328   0.08227   0.09625
 Alpha virt. eigenvalues --    0.12593   0.14243   0.15391   0.17702   0.19477
 Alpha virt. eigenvalues --    0.20059   0.21706   0.25401   0.26384   0.28630

 Mulliken charges:
               1
     1  C    0.153560
     2  O   -0.346355
     3  C   -0.049170
     4  C   -0.127364
     5  H    0.107380
     6  H    0.084006
     7  H    0.099854
     8  H    0.078088
 Sum of Mulliken charges =   0.00000

 Dipole moment (field-independent basis, Debye):
    X=              3.4737    Y=              0.7538    Z=              0.0670  Tot=              3.5552
 Quadrupole moment (field-independent basis, Debye-Ang):
   XX=            -27.4385   YY=            -21.6114   ZZ=            -25.1469
   XY=             -0.9352   XZ=             -0.2780   YZ=             -0.0828

 Normal termination of Gaussian 09 at Wed Aug 26 19:22:50 2020.
