 Gaussian 09, Revision D.01,
 Gaussian 09:  ES64L-G09RevD.01 24-Apr-2013

 --------------------
 #p B2PLYPD3/Def2QZVP
 --------------------

 --------
 acrolein
 --------
 Symbolic Z-matrix:
 Charge =  0 Multiplicity = 1

                         Standard orientation:
 ---------------------------------------------------------------------
 Center     Atomic      Atomic             Coordinates (Angstroms)
 Number     Number       Type             X           Y           Z
 ---------------------------------------------------------------------
      1          6           0        0.678249   -0.353348    0.074830
      2          8           0        1.778785    0.113906   -0.037178
      3          6           0       -0.542233    0.449553    0.021940
      4          6           0       -1.784044   -0.157577   -0.033229
      5          1           0       -0.403881    1.622002   -0.016813
      6          1           0       -1.824851   -1.239232   -0.019729
      7          1           0       -2.716126    0.438537    0.022319
      8          1           0        0.602743   -1.364321   -0.069604
 ---------------------------------------------------------------------

 SCF Done:  E(RB2PLYPD3) =  -191.597895250     A.U. after   13 cycles
 E2(B2PLYPD3) =    -0.2481711363D+00 E(B2PLYPD3) =    -0.19184606638648D+03

 The electronic state is 1-A.
 Alpha  occ. eigenvalues --  -19.72407 -10.70401 -10.66518 -10.65946  -1.20054
 Alpha  occ. eigenvalues --   -0.91617  -0.75545  -0.67242  -0.56768  -0.55661
 Alpha  occ. eigenvalues --   -0.50062  -0.47022  -0.46175  -0.34194  -0.33364
 Alpha virt. eigenvalues --   -0.02325   0.05714   0.06876   0.07812   0.09688
 Alpha virt. eigenvalues --    0.12377   0.14110   0.15376   0.17289   0.19459
 Alpha virt. eigenvalues --    0.20005   0.21340   0.24892   0.26798   0.29432

 Mulliken charges:
               1
     1  C    0.164471
     2  O   -0.345189
     3  C   -0.053889
     4  C   -0.138117
     5  H    0.100130
     6  H    0.088402
     7  H    0.108533
     8  H    0.075660
 Sum of Mulliken charges =   0.00000

 Dipole moment (field-independent basis, Debye):
    X=             -3.4051    Y=             -0.8308    Z=              0.1296  Tot=              3.5074
 Quadrupole moment (field-independent basis, Debye-Ang):
   XX=            -27.4263   YY=            -21.5768   ZZ=            -25.4101
   XY=             -1.0623   XZ=              0.1261   YZ=              0.0292

 Normal termination of Gaussian 09 at Wed Aug 26 12:31:03 2020.
