 Gaussian 09, Revision D.01,
 Gaussian 09:  ES64L-G09RevD.01 24-Apr-2013

 --------------------
 #p B2PLYPD3/Def2QZVP
 --------------------

 --------
 acrolein
 --------
 Symbolic Z-matrix:
 Charge =  0 Multiplicity = 1

                         Standard orientation:
 ---------------------------------------------------------------------
 Center     Atomic      Atomic             Coordinates (Angstroms)
 Number     Number       Type             X           Y           Z
 ---------------------------------------------------------------------
      1          6           0        0.671078    0.359157    0.017477
      2          8           0        1.785596   -0.126479   -0.018088
      3          6           0       -0.551464   -0.449934    0.028475
      4          6           0       -1.752159    0.139787   -0.021115
      5          1           0       -0.441131   -1.537211   -0.005349
      6          1           0       -1.831981    1.232135   -0.004609
      7          1           0       -2.709013   -0.442486   -0.014576
      8          1           0        0.492628    1.465338    0.020217
 ---------------------------------------------------------------------

 SCF Done:  E(RB2PLYPD3) =  -191.614606833     A.U. after   12 cycles
 E2(B2PLYPD3) =    -0.2480344529D+00 E(B2PLYPD3) =    -0.19186264128610D+03

 The electronic state is 1-A.
 Alpha  occ. eigenvalues --  -19.72877 -10.71851 -10.66080 -10.64570  -1.19242
 Alpha  occ. eigenvalues --   -0.92803  -0.75069  -0.66714  -0.56261  -0.55977
 Alpha  occ. eigenvalues --   -0.50288  -0.46689  -0.46546  -0.34581  -0.33924
 Alpha virt. eigenvalues --   -0.01868   0.05627   0.06994   0.08036   0.09738
 Alpha virt. eigenvalues --    0.12408   0.13860   0.15332   0.17461   0.19739
 Alpha virt. eigenvalues --    0.19925   0.21334   0.25380   0.26414   0.28817

 Mulliken charges:
               1
     1  C    0.156443
     2  O   -0.350172
     3  C   -0.038787
     4  C   -0.129532
     5  H    0.106953
     6  H    0.083044
     7  H    0.100771
     8  H    0.071279
 Sum of Mulliken charges =   0.00000

 Dipole moment (field-independent basis, Debye):
    X=             -3.4957    Y=              0.7761    Z=              0.0442  Tot=              3.5810
 Quadrupole moment (field-independent basis, Debye-Ang):
   XX=            -27.5030   YY=            -21.7105   ZZ=            -25.3314
   XY=              0.9600   XZ=              0.1341   YZ=              0.0374

 Normal termination of Gaussian 09 at Wed Aug 26 19:03:32 2020.
