 Gaussian 09, Revision D.01,
 Gaussian 09:  ES64L-G09RevD.01 24-Apr-2013

 --------------------
 #p B2PLYPD3/Def2QZVP
 --------------------

 --------
 acrolein
 --------
 Symbolic Z-matrix:
 Charge =  0 Multiplicity = 1

                         Standard orientation:
 ---------------------------------------------------------------------
 Center     Atomic      Atomic             Coordinates (Angstroms)
 Number     Number       Type             X           Y           Z
 ---------------------------------------------------------------------
      1          6           0        0.689302    0.370490   -0.009622
      2          8           0        1.785681   -0.154192   -0.023100
      3          6           0       -0.565355   -0.412265    0.073752
      4          6           0       -1.745753    0.129315   -0.052527
      5          1           0       -0.456079   -1.380974    0.061901
      6          1           0       -1.779138    1.144920    0.181270
      7          1           0       -2.819683   -0.470238   -0.145945
      8          1           0        0.500287    1.414589    0.017953
 ---------------------------------------------------------------------

 SCF Done:  E(RB2PLYPD3) =  -191.584939416     A.U. after   14 cycles
 E2(B2PLYPD3) =    -0.2472147136D+00 E(B2PLYPD3) =    -0.19183215412994D+03

 The electronic state is 1-A.
 Alpha  occ. eigenvalues --  -19.73213 -10.71649 -10.65774 -10.62612  -1.19518
 Alpha  occ. eigenvalues --   -0.93874  -0.75206  -0.69092  -0.56869  -0.55591
 Alpha  occ. eigenvalues --   -0.50990  -0.47172  -0.46030  -0.34972  -0.34028
 Alpha virt. eigenvalues --   -0.01710   0.05367   0.07364   0.07876   0.09782
 Alpha virt. eigenvalues --    0.12162   0.13815   0.15160   0.18069   0.19651
 Alpha virt. eigenvalues --    0.20542   0.20924   0.24037   0.26514   0.28554

 Mulliken charges:
               1
     1  C    0.158513
     2  O   -0.349654
     3  C   -0.042169
     4  C   -0.129657
     5  H    0.111224
     6  H    0.080891
     7  H    0.088649
     8  H    0.082203
 Sum of Mulliken charges =   0.00000

 Dipole moment (field-independent basis, Debye):
    X=             -3.3262    Y=              0.8929    Z=              0.1301  Tot=              3.4465
 Quadrupole moment (field-independent basis, Debye-Ang):
   XX=            -27.3990   YY=            -22.0493   ZZ=            -24.9943
   XY=              1.3045   XZ=              0.1675   YZ=              0.2785

 Normal termination of Gaussian 09 at Wed Aug 26 11:59:10 2020.
