 Gaussian 09, Revision D.01,
 Gaussian 09:  ES64L-G09RevD.01 24-Apr-2013

 --------------------
 #p B2PLYPD3/Def2QZVP
 --------------------

 --------
 acrolein
 --------
 Symbolic Z-matrix:
 Charge =  0 Multiplicity = 1

                         Standard orientation:
 ---------------------------------------------------------------------
 Center     Atomic      Atomic             Coordinates (Angstroms)
 Number     Number       Type             X           Y           Z
 ---------------------------------------------------------------------
      1          6           0       -0.676289    0.349210    0.029796
      2          8           0       -1.781244   -0.114626   -0.024794
      3          6           0        0.562541   -0.458858    0.024398
      4          6           0        1.761298    0.150055   -0.019924
      5          1           0        0.420603   -1.563690    0.018971
      6          1           0        1.829247    1.225990   -0.005828
      7          1           0        2.628955   -0.419296   -0.035638
      8          1           0       -0.514156    1.431562    0.015235
 ---------------------------------------------------------------------

 SCF Done:  E(RB2PLYPD3) =  -191.614980078     A.U. after   12 cycles
 E2(B2PLYPD3) =    -0.2467038279D+00 E(B2PLYPD3) =    -0.19186168390631D+03

 The electronic state is 1-A.
 Alpha  occ. eigenvalues --  -19.72752 -10.71292 -10.65061 -10.64785  -1.20153
 Alpha  occ. eigenvalues --   -0.92616  -0.75590  -0.66803  -0.56728  -0.56443
 Alpha  occ. eigenvalues --   -0.50740  -0.47200  -0.47021  -0.34463  -0.33731
 Alpha virt. eigenvalues --   -0.01605   0.05873   0.07156   0.08176   0.09777
 Alpha virt. eigenvalues --    0.12673   0.14026   0.15389   0.17287   0.19828
 Alpha virt. eigenvalues --    0.19984   0.21891   0.25348   0.26552   0.28683

 Mulliken charges:
               1
     1  C    0.158103
     2  O   -0.343148
     3  C   -0.042170
     4  C   -0.137437
     5  H    0.101534
     6  H    0.087993
     7  H    0.106313
     8  H    0.068811
 Sum of Mulliken charges =   0.00000

 Dipole moment (field-independent basis, Debye):
    X=              3.3959    Y=              0.7463    Z=              0.0735  Tot=              3.4777
 Quadrupole moment (field-independent basis, Debye-Ang):
   XX=            -27.4742   YY=            -21.6395   ZZ=            -25.2259
   XY=             -0.8554   XZ=             -0.2081   YZ=              0.0035

 Normal termination of Gaussian 09 at Wed Aug 26 19:43:02 2020.
