 Gaussian 09, Revision D.01,
 Gaussian 09:  ES64L-G09RevD.01 24-Apr-2013

 --------------------
 #p B2PLYPD3/Def2QZVP
 --------------------

 --------
 acrolein
 --------
 Symbolic Z-matrix:
 Charge =  0 Multiplicity = 1

                         Standard orientation:
 ---------------------------------------------------------------------
 Center     Atomic      Atomic             Coordinates (Angstroms)
 Number     Number       Type             X           Y           Z
 ---------------------------------------------------------------------
      1          6           0       -0.667729    0.346453    0.016830
      2          8           0       -1.785365   -0.120248   -0.011287
      3          6           0        0.553114   -0.449470    0.004083
      4          6           0        1.756119    0.144157   -0.018959
      5          1           0        0.441634   -1.549182   -0.001356
      6          1           0        1.824854    1.230393   -0.050621
      7          1           0        2.694189   -0.426342    0.078915
      8          1           0       -0.526774    1.460271    0.051631
 ---------------------------------------------------------------------

 SCF Done:  E(RB2PLYPD3) =  -191.615078195     A.U. after   12 cycles
 E2(B2PLYPD3) =    -0.2477387895D+00 E(B2PLYPD3) =    -0.19186281698477D+03

 The electronic state is 1-A.
 Alpha  occ. eigenvalues --  -19.72730 -10.71631 -10.65978 -10.64754  -1.19449
 Alpha  occ. eigenvalues --   -0.92878  -0.75315  -0.66516  -0.56420  -0.56182
 Alpha  occ. eigenvalues --   -0.50272  -0.46861  -0.46660  -0.34564  -0.33807
 Alpha virt. eigenvalues --   -0.01976   0.05700   0.06952   0.08240   0.09742
 Alpha virt. eigenvalues --    0.12430   0.13985   0.15368   0.17313   0.19623
 Alpha virt. eigenvalues --    0.19989   0.21507   0.25416   0.26328   0.28942

 Mulliken charges:
               1
     1  C    0.154496
     2  O   -0.348236
     3  C   -0.036011
     4  C   -0.129173
     5  H    0.104241
     6  H    0.085308
     7  H    0.103519
     8  H    0.065856
 Sum of Mulliken charges =   0.00000

 Dipole moment (field-independent basis, Debye):
    X=              3.5190    Y=              0.7344    Z=              0.0852  Tot=              3.5958
 Quadrupole moment (field-independent basis, Debye-Ang):
   XX=            -27.4354   YY=            -21.7502   ZZ=            -25.2945
   XY=             -0.9538   XZ=              0.0662   YZ=             -0.0814

 Normal termination of Gaussian 09 at Wed Aug 26 15:21:16 2020.
