 Gaussian 09, Revision D.01,
 Gaussian 09:  ES64L-G09RevD.01 24-Apr-2013

 --------------------
 #p B2PLYPD3/Def2QZVP
 --------------------

 --------
 acrolein
 --------
 Symbolic Z-matrix:
 Charge =  0 Multiplicity = 1

                         Standard orientation:
 ---------------------------------------------------------------------
 Center     Atomic      Atomic             Coordinates (Angstroms)
 Number     Number       Type             X           Y           Z
 ---------------------------------------------------------------------
      1          6           0        0.692475    0.345344   -0.007813
      2          8           0        1.796214   -0.107762    0.037543
      3          6           0       -0.559442   -0.499847   -0.079874
      4          6           0       -1.775586    0.159217    0.038261
      5          1           0       -0.487653   -1.570181   -0.062219
      6          1           0       -1.853225    1.324774   -0.115492
      7          1           0       -2.629278   -0.430982    0.224037
      8          1           0        0.455756    1.510202   -0.050116
 ---------------------------------------------------------------------

 SCF Done:  E(RB2PLYPD3) =  -191.598106120     A.U. after   13 cycles
 E2(B2PLYPD3) =    -0.2493077467D+00 E(B2PLYPD3) =    -0.19184741386621D+03

 The electronic state is 1-A.
 Alpha  occ. eigenvalues --  -19.73173 -10.72635 -10.66804 -10.65366  -1.20711
 Alpha  occ. eigenvalues --   -0.91239  -0.74156  -0.65781  -0.56351  -0.54902
 Alpha  occ. eigenvalues --   -0.50156  -0.47764  -0.46981  -0.33830  -0.33355
 Alpha virt. eigenvalues --   -0.01895   0.05502   0.06896   0.07575   0.09609
 Alpha virt. eigenvalues --    0.12213   0.13686   0.15435   0.17242   0.19393
 Alpha virt. eigenvalues --    0.19938   0.21325   0.24158   0.26343   0.28226

 Mulliken charges:
               1
     1  C    0.168335
     2  O   -0.327803
     3  C   -0.059930
     4  C   -0.137343
     5  H    0.108010
     6  H    0.090329
     7  H    0.105975
     8  H    0.052426
 Sum of Mulliken charges =   0.00000

 Dipole moment (field-independent basis, Debye):
    X=             -3.3456    Y=              0.5910    Z=             -0.0467  Tot=              3.3978
 Quadrupole moment (field-independent basis, Debye-Ang):
   XX=            -27.6558   YY=            -21.6415   ZZ=            -25.5474
   XY=              0.7952   XZ=             -0.5429   YZ=             -0.2684

 Normal termination of Gaussian 09 at Wed Aug 26 10:33:18 2020.
