 Gaussian 09, Revision D.01,
 Gaussian 09:  ES64L-G09RevD.01 24-Apr-2013

 --------------------
 #p B2PLYPD3/Def2QZVP
 --------------------

 --------
 acrolein
 --------
 Symbolic Z-matrix:
 Charge =  0 Multiplicity = 1

                         Standard orientation:
 ---------------------------------------------------------------------
 Center     Atomic      Atomic             Coordinates (Angstroms)
 Number     Number       Type             X           Y           Z
 ---------------------------------------------------------------------
      1          6           0        0.667352   -0.336358    0.031087
      2          8           0        1.780956    0.103658   -0.029207
      3          6           0       -0.558334    0.456571    0.053602
      4          6           0       -1.757790   -0.160067   -0.037486
      5          1           0       -0.420120    1.632137   -0.053305
      6          1           0       -1.824007   -1.245523   -0.020531
      7          1           0       -2.691661    0.399586   -0.000588
      8          1           0        0.580769   -1.376344    0.024862
 ---------------------------------------------------------------------

 SCF Done:  E(RB2PLYPD3) =  -191.605549550     A.U. after   12 cycles
 E2(B2PLYPD3) =    -0.2471899756D+00 E(B2PLYPD3) =    -0.19185273952527D+03

 The electronic state is 1-A.
 Alpha  occ. eigenvalues --  -19.72333 -10.70493 -10.66039 -10.65651  -1.20028
 Alpha  occ. eigenvalues --   -0.92498  -0.75559  -0.66871  -0.56907  -0.55932
 Alpha  occ. eigenvalues --   -0.50252  -0.47040  -0.46044  -0.34516  -0.33635
 Alpha virt. eigenvalues --   -0.01881   0.05762   0.06742   0.08281   0.09673
 Alpha virt. eigenvalues --    0.12499   0.13977   0.15397   0.17212   0.19728
 Alpha virt. eigenvalues --    0.19906   0.21534   0.24974   0.26583   0.29025

 Mulliken charges:
               1
     1  C    0.156132
     2  O   -0.345560
     3  C   -0.041343
     4  C   -0.127042
     5  H    0.097325
     6  H    0.086147
     7  H    0.104664
     8  H    0.069678
 Sum of Mulliken charges =   0.00000

 Dipole moment (field-independent basis, Debye):
    X=             -3.4844    Y=             -0.7832    Z=              0.0407  Tot=              3.5716
 Quadrupole moment (field-independent basis, Debye-Ang):
   XX=            -27.4097   YY=            -21.6344   ZZ=            -25.3011
   XY=             -0.8690   XZ=              0.2114   YZ=             -0.1001

 Normal termination of Gaussian 09 at Wed Aug 26 09:19:00 2020.
