 Gaussian 09, Revision D.01,
 Gaussian 09:  ES64L-G09RevD.01 24-Apr-2013

 --------------------
 #p B2PLYPD3/Def2QZVP
 --------------------

 --------
 acrolein
 --------
 Symbolic Z-matrix:
 Charge =  0 Multiplicity = 1

                         Standard orientation:
 ---------------------------------------------------------------------
 Center     Atomic      Atomic             Coordinates (Angstroms)
 Number     Number       Type             X           Y           Z
 ---------------------------------------------------------------------
      1          6           0       -0.676024    0.369448   -0.010648
      2          8           0       -1.786708   -0.136753    0.017990
      3          6           0        0.567612   -0.435848   -0.033920
      4          6           0        1.757405    0.132051    0.010986
      5          1           0        0.426756   -1.530033    0.003672
      6          1           0        1.829798    1.203160    0.015270
      7          1           0        2.646314   -0.443265    0.064631
      8          1           0       -0.503162    1.470260   -0.026000
 ---------------------------------------------------------------------

 SCF Done:  E(RB2PLYPD3) =  -191.615366985     A.U. after   12 cycles
 E2(B2PLYPD3) =    -0.2474558390D+00 E(B2PLYPD3) =    -0.19186282282363D+03

 The electronic state is 1-A.
 Alpha  occ. eigenvalues --  -19.73054 -10.72029 -10.64818 -10.64347  -1.19044
 Alpha  occ. eigenvalues --   -0.93156  -0.75497  -0.66718  -0.56698  -0.56317
 Alpha  occ. eigenvalues --   -0.50757  -0.46564  -0.46518  -0.34839  -0.33980
 Alpha virt. eigenvalues --   -0.01659   0.05792   0.07108   0.08028   0.09818
 Alpha virt. eigenvalues --    0.12561   0.13856   0.15354   0.17310   0.19794
 Alpha virt. eigenvalues --    0.19936   0.21867   0.25529   0.26488   0.28708

 Mulliken charges:
               1
     1  C    0.158810
     2  O   -0.351610
     3  C   -0.039292
     4  C   -0.132151
     5  H    0.102637
     6  H    0.082050
     7  H    0.105219
     8  H    0.074337
 Sum of Mulliken charges =   0.00000

 Dipole moment (field-independent basis, Debye):
    X=              3.4410    Y=              0.8336    Z=              0.0139  Tot=              3.5406
 Quadrupole moment (field-independent basis, Debye-Ang):
   XX=            -27.5467   YY=            -21.6985   ZZ=            -25.2082
   XY=             -1.0306   XZ=              0.2824   YZ=             -0.0584

 Normal termination of Gaussian 09 at Wed Aug 26 14:17:16 2020.
