 Gaussian 09, Revision D.01,
 Gaussian 09:  ES64L-G09RevD.01 24-Apr-2013

 --------------------
 #p B2PLYPD3/Def2QZVP
 --------------------

 --------
 acrolein
 --------
 Symbolic Z-matrix:
 Charge =  0 Multiplicity = 1

                         Standard orientation:
 ---------------------------------------------------------------------
 Center     Atomic      Atomic             Coordinates (Angstroms)
 Number     Number       Type             X           Y           Z
 ---------------------------------------------------------------------
      1          6           0        0.679122    0.343541   -0.015198
      2          8           0        1.789256   -0.111915    0.018197
      3          6           0       -0.553998   -0.463335   -0.032781
      4          6           0       -1.763003    0.140992    0.007743
      5          1           0       -0.450042   -1.518118    0.026399
      6          1           0       -1.873529    1.273647    0.029325
      7          1           0       -2.668336   -0.423801    0.056420
      8          1           0        0.505131    1.436396   -0.016308
 ---------------------------------------------------------------------

 SCF Done:  E(RB2PLYPD3) =  -191.614176062     A.U. after   13 cycles
 E2(B2PLYPD3) =    -0.2471805667D+00 E(B2PLYPD3) =    -0.19186135662916D+03

 The electronic state is 1-A.
 Alpha  occ. eigenvalues --  -19.72775 -10.71436 -10.66180 -10.64486  -1.20117
 Alpha  occ. eigenvalues --   -0.92444  -0.75241  -0.66974  -0.56526  -0.56057
 Alpha  occ. eigenvalues --   -0.50692  -0.47112  -0.46871  -0.34408  -0.33761
 Alpha virt. eigenvalues --   -0.01791   0.05664   0.07265   0.08194   0.09657
 Alpha virt. eigenvalues --    0.12455   0.13961   0.15397   0.17720   0.19437
 Alpha virt. eigenvalues --    0.19964   0.21500   0.25245   0.26514   0.28659

 Mulliken charges:
               1
     1  C    0.159170
     2  O   -0.342787
     3  C   -0.047404
     4  C   -0.130157
     5  H    0.107929
     6  H    0.082163
     7  H    0.103091
     8  H    0.067994
 Sum of Mulliken charges =   0.00000

 Dipole moment (field-independent basis, Debye):
    X=             -3.4600    Y=              0.7026    Z=              0.0386  Tot=              3.5308
 Quadrupole moment (field-independent basis, Debye-Ang):
   XX=            -27.3761   YY=            -21.7371   ZZ=            -25.2904
   XY=              0.8375   XZ=             -0.3025   YZ=             -0.0561

 Normal termination of Gaussian 09 at Wed Aug 26 10:50:09 2020.
