 Gaussian 09, Revision D.01,
 Gaussian 09:  ES64L-G09RevD.01 24-Apr-2013

 --------------------
 #p B2PLYPD3/Def2QZVP
 --------------------

 --------
 acrolein
 --------
 Symbolic Z-matrix:
 Charge =  0 Multiplicity = 1

                         Standard orientation:
 ---------------------------------------------------------------------
 Center     Atomic      Atomic             Coordinates (Angstroms)
 Number     Number       Type             X           Y           Z
 ---------------------------------------------------------------------
      1          6           0       -0.659767    0.312330    0.049397
      2          8           0       -1.785358   -0.085577   -0.061582
      3          6           0        0.565754   -0.467497    0.017074
      4          6           0        1.750231    0.146748   -0.007280
      5          1           0        0.393030   -1.542524    0.177797
      6          1           0        1.917521    1.294341   -0.114787
      7          1           0        2.667365   -0.361813   -0.141889
      8          1           0       -0.632360    1.345127    0.216386
 ---------------------------------------------------------------------

 SCF Done:  E(RB2PLYPD3) =  -191.602164917     A.U. after   13 cycles
 E2(B2PLYPD3) =    -0.2465861120D+00 E(B2PLYPD3) =    -0.19184875102936D+03

 The electronic state is 1-A.
 Alpha  occ. eigenvalues --  -19.72165 -10.70183 -10.66338 -10.64992  -1.19983
 Alpha  occ. eigenvalues --   -0.93026  -0.75776  -0.67251  -0.57327  -0.56112
 Alpha  occ. eigenvalues --   -0.50800  -0.47065  -0.45736  -0.34931  -0.33261
 Alpha virt. eigenvalues --   -0.01782   0.05615   0.07153   0.08337   0.09524
 Alpha virt. eigenvalues --    0.12442   0.14113   0.15135   0.17753   0.19287
 Alpha virt. eigenvalues --    0.19837   0.21608   0.24734   0.26831   0.28788

 Mulliken charges:
               1
     1  C    0.154962
     2  O   -0.346285
     3  C   -0.044367
     4  C   -0.115999
     5  H    0.107503
     6  H    0.078406
     7  H    0.099445
     8  H    0.066336
 Sum of Mulliken charges =   0.00000

 Dipole moment (field-independent basis, Debye):
    X=              3.5409    Y=              0.6549    Z=              0.2170  Tot=              3.6075
 Quadrupole moment (field-independent basis, Debye-Ang):
   XX=            -27.2460   YY=            -21.8321   ZZ=            -25.1081
   XY=             -0.5932   XZ=             -0.8087   YZ=             -0.2966

 Normal termination of Gaussian 09 at Wed Aug 26 11:56:08 2020.
