 Gaussian 09, Revision D.01,
 Gaussian 09:  ES64L-G09RevD.01 24-Apr-2013

 --------------------
 #p B2PLYPD3/Def2QZVP
 --------------------

 --------
 acrolein
 --------
 Symbolic Z-matrix:
 Charge =  0 Multiplicity = 1

                         Standard orientation:
 ---------------------------------------------------------------------
 Center     Atomic      Atomic             Coordinates (Angstroms)
 Number     Number       Type             X           Y           Z
 ---------------------------------------------------------------------
      1          6           0       -0.662089    0.345972   -0.000632
      2          8           0       -1.789723   -0.110881   -0.003544
      3          6           0        0.570438   -0.458679   -0.003949
      4          6           0        1.755039    0.144857   -0.012577
      5          1           0        0.428274   -1.579398    0.034935
      6          1           0        1.836323    1.257765   -0.006880
      7          1           0        2.607358   -0.400716    0.046327
      8          1           0       -0.534500    1.416498    0.056917
 ---------------------------------------------------------------------

 SCF Done:  E(RB2PLYPD3) =  -191.610797562     A.U. after   12 cycles
 E2(B2PLYPD3) =    -0.2472256572D+00 E(B2PLYPD3) =    -0.19185802321898D+03

 The electronic state is 1-A.
 Alpha  occ. eigenvalues --  -19.72639 -10.71263 -10.65098 -10.64898  -1.19037
 Alpha  occ. eigenvalues --   -0.93136  -0.75916  -0.66724  -0.56973  -0.56303
 Alpha  occ. eigenvalues --   -0.50575  -0.46754  -0.46400  -0.34765  -0.33796
 Alpha virt. eigenvalues --   -0.01735   0.05782   0.07004   0.08150   0.09704
 Alpha virt. eigenvalues --    0.12585   0.14176   0.15311   0.17160   0.19587
 Alpha virt. eigenvalues --    0.20028   0.22039   0.25359   0.26553   0.28806

 Mulliken charges:
               1
     1  C    0.158074
     2  O   -0.353611
     3  C   -0.041236
     4  C   -0.128714
     5  H    0.100428
     6  H    0.084113
     7  H    0.106959
     8  H    0.073987
 Sum of Mulliken charges =   0.00000

 Dipole moment (field-independent basis, Debye):
    X=              3.5285    Y=              0.7543    Z=              0.0944  Tot=              3.6095
 Quadrupole moment (field-independent basis, Debye-Ang):
   XX=            -27.6316   YY=            -21.5666   ZZ=            -25.2048
   XY=             -0.8726   XZ=              0.1011   YZ=             -0.0620

 Normal termination of Gaussian 09 at Wed Aug 26 16:10:03 2020.
