 Gaussian 09, Revision D.01,
 Gaussian 09:  ES64L-G09RevD.01 24-Apr-2013

 --------------------
 #p B2PLYPD3/Def2QZVP
 --------------------

 --------
 acrolein
 --------
 Symbolic Z-matrix:
 Charge =  0 Multiplicity = 1

                         Standard orientation:
 ---------------------------------------------------------------------
 Center     Atomic      Atomic             Coordinates (Angstroms)
 Number     Number       Type             X           Y           Z
 ---------------------------------------------------------------------
      1          6           0       -0.661243    0.338643   -0.052976
      2          8           0       -1.817876   -0.107405    0.036589
      3          6           0        0.599925   -0.477857   -0.051582
      4          6           0        1.741548    0.172745    0.041300
      5          1           0        0.467930   -1.583498   -0.018694
      6          1           0        1.861530    1.224679   -0.131375
      7          1           0        2.725991   -0.373035    0.141585
      8          1           0       -0.593820    1.389908    0.095318
 ---------------------------------------------------------------------

 SCF Done:  E(RB2PLYPD3) =  -191.604129421     A.U. after   14 cycles
 E2(B2PLYPD3) =    -0.2488000562D+00 E(B2PLYPD3) =    -0.19185292947749D+03

 The electronic state is 1-A.
 Alpha  occ. eigenvalues --  -19.72670 -10.71690 -10.65789 -10.65405  -1.17510
 Alpha  occ. eigenvalues --   -0.93194  -0.74893  -0.67355  -0.56819  -0.55737
 Alpha  occ. eigenvalues --   -0.50101  -0.46399  -0.45445  -0.34968  -0.33647
 Alpha virt. eigenvalues --   -0.01828   0.05632   0.07021   0.07107   0.09598
 Alpha virt. eigenvalues --    0.12477   0.14268   0.15137   0.17227   0.19495
 Alpha virt. eigenvalues --    0.20456   0.21370   0.24004   0.26798   0.28437

 Mulliken charges:
               1
     1  C    0.155280
     2  O   -0.364460
     3  C   -0.049363
     4  C   -0.120507
     5  H    0.111469
     6  H    0.093238
     7  H    0.089914
     8  H    0.084430
 Sum of Mulliken charges =   0.00000

 Dipole moment (field-independent basis, Debye):
    X=              3.6439    Y=              0.7925    Z=             -0.1189  Tot=              3.7310
 Quadrupole moment (field-independent basis, Debye-Ang):
   XX=            -27.8907   YY=            -21.5454   ZZ=            -25.2596
   XY=             -0.7979   XZ=              0.2350   YZ=             -0.1731

 Normal termination of Gaussian 09 at Wed Aug 26 14:25:08 2020.
