 Gaussian 09, Revision D.01,
 Gaussian 09:  ES64L-G09RevD.01 24-Apr-2013

 --------------------
 #p B2PLYPD3/Def2QZVP
 --------------------

 --------
 acrolein
 --------
 Symbolic Z-matrix:
 Charge =  0 Multiplicity = 1

                         Standard orientation:
 ---------------------------------------------------------------------
 Center     Atomic      Atomic             Coordinates (Angstroms)
 Number     Number       Type             X           Y           Z
 ---------------------------------------------------------------------
      1          6           0       -0.645291   -0.333932    0.055172
      2          8           0       -1.798463    0.106551   -0.053145
      3          6           0        0.582814    0.431368    0.006756
      4          6           0        1.736541   -0.162876   -0.055303
      5          1           0        0.418694    1.700429    0.216559
      6          1           0        1.796760   -1.143963    0.047365
      7          1           0        2.669203    0.380641   -0.033780
      8          1           0       -0.541334   -1.396875    0.155268
 ---------------------------------------------------------------------

 SCF Done:  E(RB2PLYPD3) =  -191.581483741     A.U. after   13 cycles
 E2(B2PLYPD3) =    -0.2487434865D+00 E(B2PLYPD3) =    -0.19183022722734D+03

 The electronic state is 1-A.
 Alpha  occ. eigenvalues --  -19.72760 -10.71490 -10.66072 -10.64334  -1.17786
 Alpha  occ. eigenvalues --   -0.94497  -0.76671  -0.66332  -0.57861  -0.56293
 Alpha  occ. eigenvalues --   -0.50193  -0.46569  -0.44119  -0.35338  -0.33925
 Alpha virt. eigenvalues --   -0.02120   0.05465   0.05838   0.08300   0.09596
 Alpha virt. eigenvalues --    0.12722   0.14140   0.15023   0.16516   0.19865
 Alpha virt. eigenvalues --    0.20496   0.21980   0.25123   0.26384   0.28869

 Mulliken charges:
               1
     1  C    0.147695
     2  O   -0.360110
     3  C   -0.017200
     4  C   -0.115427
     5  H    0.083147
     6  H    0.086199
     7  H    0.102389
     8  H    0.073308
 Sum of Mulliken charges =   0.00000

 Dipole moment (field-independent basis, Debye):
    X=              3.6923    Y=             -0.8578    Z=              0.4307  Tot=              3.8150
 Quadrupole moment (field-independent basis, Debye-Ang):
   XX=            -27.5997   YY=            -21.8088   ZZ=            -25.1314
   XY=              0.7520   XZ=             -0.1703   YZ=              0.1849

 Normal termination of Gaussian 09 at Wed Aug 26 11:16:51 2020.
