 Gaussian 09, Revision D.01,
 Gaussian 09:  ES64L-G09RevD.01 24-Apr-2013

 --------------------
 #p B2PLYPD3/Def2QZVP
 --------------------

 --------
 acrolein
 --------
 Symbolic Z-matrix:
 Charge =  0 Multiplicity = 1

                         Standard orientation:
 ---------------------------------------------------------------------
 Center     Atomic      Atomic             Coordinates (Angstroms)
 Number     Number       Type             X           Y           Z
 ---------------------------------------------------------------------
      1          6           0        0.672469    0.325474   -0.026894
      2          8           0        1.800552   -0.096877    0.009719
      3          6           0       -0.559457   -0.456178   -0.007044
      4          6           0       -1.762333    0.149652   -0.007083
      5          1           0       -0.459840   -1.560265    0.032200
      6          1           0       -1.921706    1.250493    0.011522
      7          1           0       -2.647054   -0.414855    0.049860
      8          1           0        0.520110    1.385958    0.074787
 ---------------------------------------------------------------------

 SCF Done:  E(RB2PLYPD3) =  -191.612772387     A.U. after   12 cycles
 E2(B2PLYPD3) =    -0.2470743215D+00 E(B2PLYPD3) =    -0.19185984670865D+03

 The electronic state is 1-A.
 Alpha  occ. eigenvalues --  -19.72622 -10.70965 -10.65876 -10.64976  -1.19704
 Alpha  occ. eigenvalues --   -0.92832  -0.76049  -0.66866  -0.56860  -0.56250
 Alpha  occ. eigenvalues --   -0.50608  -0.47011  -0.46653  -0.34616  -0.33678
 Alpha virt. eigenvalues --   -0.02044   0.05724   0.07101   0.08383   0.09592
 Alpha virt. eigenvalues --    0.12632   0.14239   0.15333   0.17515   0.19497
 Alpha virt. eigenvalues --    0.20034   0.21791   0.25217   0.26648   0.28304

 Mulliken charges:
               1
     1  C    0.159766
     2  O   -0.347353
     3  C   -0.040710
     4  C   -0.128447
     5  H    0.100443
     6  H    0.086556
     7  H    0.102630
     8  H    0.067116
 Sum of Mulliken charges =   0.00000

 Dipole moment (field-independent basis, Debye):
    X=             -3.5950    Y=              0.6865    Z=              0.0538  Tot=              3.6604
 Quadrupole moment (field-independent basis, Debye-Ang):
   XX=            -27.3441   YY=            -21.7637   ZZ=            -25.2140
   XY=              0.6639   XZ=             -0.1947   YZ=             -0.0310

 Normal termination of Gaussian 09 at Wed Aug 26 09:25:26 2020.
