 Gaussian 09, Revision D.01,
 Gaussian 09:  ES64L-G09RevD.01 24-Apr-2013

 --------------------
 #p B2PLYPD3/Def2QZVP
 --------------------

 --------
 acrolein
 --------
 Symbolic Z-matrix:
 Charge =  0 Multiplicity = 1

                         Standard orientation:
 ---------------------------------------------------------------------
 Center     Atomic      Atomic             Coordinates (Angstroms)
 Number     Number       Type             X           Y           Z
 ---------------------------------------------------------------------
      1          6           0        0.672559    0.343035   -0.013581
      2          8           0        1.780838   -0.109198    0.018859
      3          6           0       -0.555254   -0.456992   -0.022466
      4          6           0       -1.751422    0.143586    0.001284
      5          1           0       -0.433968   -1.526101   -0.030550
      6          1           0       -1.874785    1.250285    0.001426
      7          1           0       -2.664086   -0.414347    0.103886
      8          1           0        0.530836    1.385970   -0.017057
 ---------------------------------------------------------------------

 SCF Done:  E(RB2PLYPD3) =  -191.614884301     A.U. after   12 cycles
 E2(B2PLYPD3) =    -0.2461713800D+00 E(B2PLYPD3) =    -0.19186105568094D+03

 The electronic state is 1-A.
 Alpha  occ. eigenvalues --  -19.72505 -10.70625 -10.65759 -10.64317  -1.20167
 Alpha  occ. eigenvalues --   -0.92808  -0.75572  -0.67640  -0.56841  -0.56330
 Alpha  occ. eigenvalues --   -0.50795  -0.47162  -0.46757  -0.34572  -0.33742
 Alpha virt. eigenvalues --   -0.01601   0.05716   0.07356   0.08359   0.09666
 Alpha virt. eigenvalues --    0.12585   0.14193   0.15383   0.17690   0.19581
 Alpha virt. eigenvalues --    0.19919   0.21657   0.25453   0.26634   0.28628

 Mulliken charges:
               1
     1  C    0.156615
     2  O   -0.346647
     3  C   -0.043710
     4  C   -0.131227
     5  H    0.106786
     6  H    0.082814
     7  H    0.100304
     8  H    0.075064
 Sum of Mulliken charges =   0.00000

 Dipole moment (field-independent basis, Debye):
    X=             -3.4517    Y=              0.7571    Z=              0.0007  Tot=              3.5338
 Quadrupole moment (field-independent basis, Debye-Ang):
   XX=            -27.3859   YY=            -21.6751   ZZ=            -25.1454
   XY=              0.8056   XZ=             -0.3429   YZ=             -0.0257

 Normal termination of Gaussian 09 at Wed Aug 26 20:28:33 2020.
