 Gaussian 09, Revision D.01,
 Gaussian 09:  ES64L-G09RevD.01 24-Apr-2013

 --------------------
 #p B2PLYPD3/Def2QZVP
 --------------------

 --------
 acrolein
 --------
 Symbolic Z-matrix:
 Charge =  0 Multiplicity = 1

                         Standard orientation:
 ---------------------------------------------------------------------
 Center     Atomic      Atomic             Coordinates (Angstroms)
 Number     Number       Type             X           Y           Z
 ---------------------------------------------------------------------
      1          6           0       -0.670546    0.337216   -0.027663
      2          8           0       -1.807125   -0.102049    0.034970
      3          6           0        0.589652   -0.470557   -0.045962
      4          6           0        1.755841    0.166258    0.010443
      5          1           0        0.456029   -1.565053    0.013975
      6          1           0        1.842413    1.205253    0.107629
      7          1           0        2.599910   -0.398474    0.074816
      8          1           0       -0.491028    1.377162   -0.097085
 ---------------------------------------------------------------------

 SCF Done:  E(RB2PLYPD3) =  -191.609539675     A.U. after   13 cycles
 E2(B2PLYPD3) =    -0.2470021843D+00 E(B2PLYPD3) =    -0.19185654185886D+03

 The electronic state is 1-A.
 Alpha  occ. eigenvalues --  -19.72846 -10.71317 -10.64826 -10.64364  -1.18834
 Alpha  occ. eigenvalues --   -0.93262  -0.76110  -0.67566  -0.57081  -0.56555
 Alpha  occ. eigenvalues --   -0.50701  -0.47638  -0.46233  -0.34797  -0.33744
 Alpha virt. eigenvalues --   -0.01699   0.05881   0.07271   0.07854   0.09717
 Alpha virt. eigenvalues --    0.12976   0.14007   0.15347   0.17366   0.19654
 Alpha virt. eigenvalues --    0.20213   0.22071   0.25029   0.26739   0.28262

 Mulliken charges:
               1
     1  C    0.155654
     2  O   -0.355148
     3  C   -0.042023
     4  C   -0.129233
     5  H    0.101876
     6  H    0.088726
     7  H    0.101192
     8  H    0.078955
 Sum of Mulliken charges =   0.00000

 Dipole moment (field-independent basis, Debye):
    X=              3.5421    Y=              0.7530    Z=              0.0281  Tot=              3.6214
 Quadrupole moment (field-independent basis, Debye-Ang):
   XX=            -27.7722   YY=            -21.5648   ZZ=            -25.1076
   XY=             -0.6973   XZ=              0.5580   YZ=              0.0104

 Normal termination of Gaussian 09 at Wed Aug 26 10:31:26 2020.
