 Gaussian 09, Revision D.01,
 Gaussian 09:  ES64L-G09RevD.01 24-Apr-2013

 --------------------
 #p B2PLYPD3/Def2QZVP
 --------------------

 --------
 acrolein
 --------
 Symbolic Z-matrix:
 Charge =  0 Multiplicity = 1

                         Standard orientation:
 ---------------------------------------------------------------------
 Center     Atomic      Atomic             Coordinates (Angstroms)
 Number     Number       Type             X           Y           Z
 ---------------------------------------------------------------------
      1          6           0       -0.681306    0.369853    0.037369
      2          8           0       -1.760377   -0.136512   -0.054670
      3          6           0        0.514311   -0.432047    0.016149
      4          6           0        1.752833    0.112740   -0.000925
      5          1           0        0.388924   -1.443060    0.218428
      6          1           0        1.922251    1.179739   -0.100530
      7          1           0        2.751360   -0.446484   -0.168532
      8          1           0       -0.494541    1.498623    0.172434
 ---------------------------------------------------------------------

 SCF Done:  E(RB2PLYPD3) =  -191.603360200     A.U. after   13 cycles
 E2(B2PLYPD3) =    -0.2476815707D+00 E(B2PLYPD3) =    -0.19185104177038D+03

 The electronic state is 1-A.
 Alpha  occ. eigenvalues --  -19.72904 -10.71652 -10.66485 -10.64001  -1.20706
 Alpha  occ. eigenvalues --   -0.92602  -0.75326  -0.66989  -0.57009  -0.55671
 Alpha  occ. eigenvalues --   -0.50701  -0.47667  -0.45852  -0.34467  -0.33681
 Alpha virt. eigenvalues --   -0.02070   0.05554   0.07159   0.08166   0.09687
 Alpha virt. eigenvalues --    0.12214   0.13754   0.14943   0.18258   0.19270
 Alpha virt. eigenvalues --    0.19864   0.21503   0.24957   0.26699   0.28799

 Mulliken charges:
               1
     1  C    0.154828
     2  O   -0.337663
     3  C   -0.043615
     4  C   -0.122067
     5  H    0.116654
     6  H    0.074332
     7  H    0.090783
     8  H    0.066747
 Sum of Mulliken charges =   0.00000

 Dipole moment (field-independent basis, Debye):
    X=              3.3621    Y=              0.7925    Z=              0.1841  Tot=              3.4592
 Quadrupole moment (field-independent basis, Debye-Ang):
   XX=            -26.9763   YY=            -22.1116   ZZ=            -25.1781
   XY=             -0.7590   XZ=             -0.7380   YZ=             -0.2645

 Normal termination of Gaussian 09 at Wed Aug 26 13:51:54 2020.
