 Gaussian 09, Revision D.01,
 Gaussian 09:  ES64L-G09RevD.01 24-Apr-2013

 --------------------
 #p B2PLYPD3/Def2QZVP
 --------------------

 --------
 acrolein
 --------
 Symbolic Z-matrix:
 Charge =  0 Multiplicity = 1

                         Standard orientation:
 ---------------------------------------------------------------------
 Center     Atomic      Atomic             Coordinates (Angstroms)
 Number     Number       Type             X           Y           Z
 ---------------------------------------------------------------------
      1          6           0        0.648885    0.328322    0.091817
      2          8           0        1.811387   -0.091757   -0.051279
      3          6           0       -0.564046   -0.468560    0.004478
      4          6           0       -1.748577    0.154246   -0.047368
      5          1           0       -0.512460   -1.513989    0.041809
      6          1           0       -1.835956    1.265061   -0.113819
      7          1           0       -2.700266   -0.353437    0.119006
      8          1           0        0.540012    1.252369    0.069675
 ---------------------------------------------------------------------

 SCF Done:  E(RB2PLYPD3) =  -191.584146734     A.U. after   13 cycles
 E2(B2PLYPD3) =    -0.2481273626D+00 E(B2PLYPD3) =    -0.19183227409671D+03

 The electronic state is 1-A.
 Alpha  occ. eigenvalues --  -19.72415 -10.69866 -10.66277 -10.64384  -1.17378
 Alpha  occ. eigenvalues --   -0.93561  -0.76899  -0.69692  -0.57530  -0.56275
 Alpha  occ. eigenvalues --   -0.50157  -0.47094  -0.45560  -0.34650  -0.33818
 Alpha virt. eigenvalues --   -0.02651   0.05507   0.07379   0.07730   0.09565
 Alpha virt. eigenvalues --    0.12646   0.14556   0.15281   0.17887   0.19184
 Alpha virt. eigenvalues --    0.19970   0.21638   0.24999   0.26730   0.29442

 Mulliken charges:
               1
     1  C    0.148562
     2  O   -0.371482
     3  C   -0.031351
     4  C   -0.124907
     5  H    0.108476
     6  H    0.077229
     7  H    0.097207
     8  H    0.096267
 Sum of Mulliken charges =   0.00000

 Dipole moment (field-independent basis, Debye):
    X=             -3.7875    Y=              0.7989    Z=              0.3080  Tot=              3.8830
 Quadrupole moment (field-independent basis, Debye-Ang):
   XX=            -27.7546   YY=            -21.5809   ZZ=            -25.0489
   XY=              0.8255   XZ=              0.0744   YZ=             -0.2112

 Normal termination of Gaussian 09 at Wed Aug 26 10:39:27 2020.
