 Gaussian 09, Revision D.01,
 Gaussian 09:  ES64L-G09RevD.01 24-Apr-2013

 --------------------
 #p B2PLYPD3/Def2QZVP
 --------------------

 --------
 acrolein
 --------
 Symbolic Z-matrix:
 Charge =  0 Multiplicity = 1

                         Standard orientation:
 ---------------------------------------------------------------------
 Center     Atomic      Atomic             Coordinates (Angstroms)
 Number     Number       Type             X           Y           Z
 ---------------------------------------------------------------------
      1          6           0        0.665434    0.357034    0.060813
      2          8           0        1.793257   -0.138095   -0.040885
      3          6           0       -0.550977   -0.448449    0.015960
      4          6           0       -1.748939    0.124922   -0.031825
      5          1           0       -0.512472   -1.409097    0.044922
      6          1           0       -1.830132    1.207420   -0.102231
      7          1           0       -2.700487   -0.410238    0.049726
      8          1           0        0.503931    1.515625    0.064984
 ---------------------------------------------------------------------

 SCF Done:  E(RB2PLYPD3) =  -191.598662018     A.U. after   13 cycles
 E2(B2PLYPD3) =    -0.2485147633D+00 E(B2PLYPD3) =    -0.19184717678155D+03

 The electronic state is 1-A.
 Alpha  occ. eigenvalues --  -19.73038 -10.72627 -10.65613 -10.63224  -1.18198
 Alpha  occ. eigenvalues --   -0.93729  -0.75364  -0.68186  -0.56742  -0.56154
 Alpha  occ. eigenvalues --   -0.50240  -0.47483  -0.46166  -0.34732  -0.33934
 Alpha virt. eigenvalues --   -0.02225   0.05639   0.07297   0.07834   0.09701
 Alpha virt. eigenvalues --    0.12389   0.13873   0.15379   0.17994   0.19534
 Alpha virt. eigenvalues --    0.19978   0.21267   0.25372   0.26209   0.29208

 Mulliken charges:
               1
     1  C    0.156563
     2  O   -0.356160
     3  C   -0.040808
     4  C   -0.118367
     5  H    0.116766
     6  H    0.076890
     7  H    0.096318
     8  H    0.068799
 Sum of Mulliken charges =   0.00000

 Dipole moment (field-independent basis, Debye):
    X=             -3.6151    Y=              0.7637    Z=              0.1824  Tot=              3.6994
 Quadrupole moment (field-independent basis, Debye-Ang):
   XX=            -27.3765   YY=            -21.8485   ZZ=            -25.1695
   XY=              1.1048   XZ=              0.1737   YZ=             -0.1775

 Normal termination of Gaussian 09 at Wed Aug 26 09:12:47 2020.
