 Gaussian 09, Revision D.01,
 Gaussian 09:  ES64L-G09RevD.01 24-Apr-2013

 --------------------
 #p B2PLYPD3/Def2QZVP
 --------------------

 --------
 acrolein
 --------
 Symbolic Z-matrix:
 Charge =  0 Multiplicity = 1

                         Standard orientation:
 ---------------------------------------------------------------------
 Center     Atomic      Atomic             Coordinates (Angstroms)
 Number     Number       Type             X           Y           Z
 ---------------------------------------------------------------------
      1          6           0        0.670598    0.351034    0.014282
      2          8           0        1.795328   -0.118121   -0.016511
      3          6           0       -0.576076   -0.463162    0.002131
      4          6           0       -1.755920    0.151299   -0.002605
      5          1           0       -0.471362   -1.524146    0.053467
      6          1           0       -1.831661    1.219605   -0.051244
      7          1           0       -2.599927   -0.410673   -0.021561
      8          1           0        0.508708    1.425159    0.068581
 ---------------------------------------------------------------------

 SCF Done:  E(RB2PLYPD3) =  -191.613179987     A.U. after   12 cycles
 E2(B2PLYPD3) =    -0.2469145020D+00 E(B2PLYPD3) =    -0.19186009448925D+03

 The electronic state is 1-A.
 Alpha  occ. eigenvalues --  -19.72827 -10.71607 -10.64484 -10.64276  -1.18960
 Alpha  occ. eigenvalues --   -0.93208  -0.75813  -0.67497  -0.57197  -0.56349
 Alpha  occ. eigenvalues --   -0.50627  -0.47791  -0.46333  -0.34707  -0.33811
 Alpha virt. eigenvalues --   -0.01629   0.05874   0.07295   0.07906   0.09752
 Alpha virt. eigenvalues --    0.12793   0.14049   0.15302   0.17521   0.19764
 Alpha virt. eigenvalues --    0.20079   0.21986   0.25283   0.26621   0.28604

 Mulliken charges:
               1
     1  C    0.153702
     2  O   -0.352625
     3  C   -0.042777
     4  C   -0.132371
     5  H    0.105820
     6  H    0.086783
     7  H    0.102662
     8  H    0.078807
 Sum of Mulliken charges =   0.00000

 Dipole moment (field-independent basis, Debye):
    X=             -3.4994    Y=              0.7731    Z=              0.0641  Tot=              3.5843
 Quadrupole moment (field-independent basis, Debye-Ang):
   XX=            -27.6868   YY=            -21.5470   ZZ=            -25.1296
   XY=              0.9237   XZ=              0.1883   YZ=             -0.1014

 Normal termination of Gaussian 09 at Wed Aug 26 16:26:16 2020.
