 Gaussian 09, Revision D.01,
 Gaussian 09:  ES64L-G09RevD.01 24-Apr-2013

 --------------------
 #p B2PLYPD3/Def2QZVP
 --------------------

 --------
 acrolein
 --------
 Symbolic Z-matrix:
 Charge =  0 Multiplicity = 1

                         Standard orientation:
 ---------------------------------------------------------------------
 Center     Atomic      Atomic             Coordinates (Angstroms)
 Number     Number       Type             X           Y           Z
 ---------------------------------------------------------------------
      1          6           0        0.666514    0.343524   -0.018221
      2          8           0        1.789096   -0.108597    0.041585
      3          6           0       -0.571808   -0.482934   -0.062957
      4          6           0       -1.746766    0.160917    0.037282
      5          1           0       -0.465100   -1.575474   -0.068407
      6          1           0       -1.812980    1.275282   -0.023005
      7          1           0       -2.626791   -0.403953    0.138048
      8          1           0        0.504459    1.443880   -0.115941
 ---------------------------------------------------------------------

 SCF Done:  E(RB2PLYPD3) =  -191.612720054     A.U. after   13 cycles
 E2(B2PLYPD3) =    -0.2477816412D+00 E(B2PLYPD3) =    -0.19186050169545D+03

 The electronic state is 1-A.
 Alpha  occ. eigenvalues --  -19.72740 -10.71766 -10.65613 -10.64916  -1.19355
 Alpha  occ. eigenvalues --   -0.92668  -0.74960  -0.66609  -0.56514  -0.55851
 Alpha  occ. eigenvalues --   -0.50347  -0.47463  -0.46414  -0.34518  -0.33617
 Alpha virt. eigenvalues --   -0.01578   0.05752   0.06913   0.07842   0.09680
 Alpha virt. eigenvalues --    0.12539   0.13977   0.15317   0.17284   0.19700
 Alpha virt. eigenvalues --    0.19957   0.21579   0.24942   0.26417   0.28616

 Mulliken charges:
               1
     1  C    0.158426
     2  O   -0.347519
     3  C   -0.047499
     4  C   -0.129974
     5  H    0.106423
     6  H    0.088068
     7  H    0.102644
     8  H    0.069430
 Sum of Mulliken charges =   0.00000

 Dipole moment (field-independent basis, Debye):
    X=             -3.4808    Y=              0.6956    Z=             -0.1100  Tot=              3.5513
 Quadrupole moment (field-independent basis, Debye-Ang):
   XX=            -27.7445   YY=            -21.5154   ZZ=            -25.3060
   XY=              0.8470   XZ=             -0.4901   YZ=             -0.0875

 Normal termination of Gaussian 09 at Wed Aug 26 09:28:18 2020.
