 Gaussian 09, Revision D.01,
 Gaussian 09:  ES64L-G09RevD.01 24-Apr-2013

 --------------------
 #p B2PLYPD3/Def2QZVP
 --------------------

 --------
 acrolein
 --------
 Symbolic Z-matrix:
 Charge =  0 Multiplicity = 1

                         Standard orientation:
 ---------------------------------------------------------------------
 Center     Atomic      Atomic             Coordinates (Angstroms)
 Number     Number       Type             X           Y           Z
 ---------------------------------------------------------------------
      1          6           0       -0.678497    0.368077   -0.004039
      2          8           0       -1.765905   -0.141633    0.016132
      3          6           0        0.535915   -0.422577   -0.066437
      4          6           0        1.738067    0.110953   -0.017660
      5          1           0        0.452879   -1.499566    0.152862
      6          1           0        1.848363    1.273903    0.115482
      7          1           0        2.688043   -0.490737    0.122873
      8          1           0       -0.434956    1.510744    0.008550
 ---------------------------------------------------------------------

 SCF Done:  E(RB2PLYPD3) =  -191.600450159     A.U. after   13 cycles
 E2(B2PLYPD3) =    -0.2483150680D+00 E(B2PLYPD3) =    -0.19184876522685D+03

 The electronic state is 1-A.
 Alpha  occ. eigenvalues --  -19.73235 -10.72198 -10.66560 -10.63967  -1.20471
 Alpha  occ. eigenvalues --   -0.93195  -0.74810  -0.65561  -0.56460  -0.55456
 Alpha  occ. eigenvalues --   -0.50671  -0.47644  -0.44764  -0.34955  -0.33986
 Alpha virt. eigenvalues --   -0.01746   0.05408   0.06649   0.08192   0.09746
 Alpha virt. eigenvalues --    0.12257   0.13472   0.15091   0.17935   0.19236
 Alpha virt. eigenvalues --    0.19668   0.21341   0.25152   0.26476   0.28526

 Mulliken charges:
               1
     1  C    0.161975
     2  O   -0.334839
     3  C   -0.037937
     4  C   -0.112520
     5  H    0.100809
     6  H    0.066131
     7  H    0.099107
     8  H    0.057275
 Sum of Mulliken charges =   0.00000

 Dipole moment (field-independent basis, Debye):
    X=              3.3509    Y=              0.7200    Z=              0.3036  Tot=              3.4408
 Quadrupole moment (field-independent basis, Debye-Ang):
   XX=            -27.3529   YY=            -22.0993   ZZ=            -25.2572
   XY=             -1.1045   XZ=              0.6728   YZ=             -0.1859

 Normal termination of Gaussian 09 at Wed Aug 26 10:44:29 2020.
