 Gaussian 09, Revision D.01,
 Gaussian 09:  ES64L-G09RevD.01 24-Apr-2013

 --------------------
 #p B2PLYPD3/Def2QZVP
 --------------------

 --------
 acrolein
 --------
 Symbolic Z-matrix:
 Charge =  0 Multiplicity = 1

                         Standard orientation:
 ---------------------------------------------------------------------
 Center     Atomic      Atomic             Coordinates (Angstroms)
 Number     Number       Type             X           Y           Z
 ---------------------------------------------------------------------
      1          6           0       -0.669430    0.338318    0.057908
      2          8           0       -1.769239   -0.089167   -0.081124
      3          6           0        0.541516   -0.481368    0.062864
      4          6           0        1.757433    0.138495   -0.021473
      5          1           0        0.455772   -1.522209    0.088819
      6          1           0        1.937054    1.360578   -0.205492
      7          1           0        2.593227   -0.372071   -0.135020
      8          1           0       -0.609251    1.274365    0.304891
 ---------------------------------------------------------------------

 SCF Done:  E(RB2PLYPD3) =  -191.576190021     A.U. after   13 cycles
 E2(B2PLYPD3) =    -0.2461785604D+00 E(B2PLYPD3) =    -0.19182236858149D+03

 The electronic state is 1-A.
 Alpha  occ. eigenvalues --  -19.72031 -10.69389 -10.66367 -10.64554  -1.20622
 Alpha  occ. eigenvalues --   -0.92303  -0.76341  -0.69036  -0.57063  -0.56832
 Alpha  occ. eigenvalues --   -0.51066  -0.46941  -0.46052  -0.34155  -0.33623
 Alpha virt. eigenvalues --   -0.01736   0.05319   0.07524   0.08062   0.09408
 Alpha virt. eigenvalues --    0.12466   0.14483   0.15377   0.17798   0.18924
 Alpha virt. eigenvalues --    0.19986   0.21688   0.24552   0.26675   0.28732

 Mulliken charges:
               1
     1  C    0.164025
     2  O   -0.345543
     3  C   -0.069093
     4  C   -0.124701
     5  H    0.113688
     6  H    0.069623
     7  H    0.103649
     8  H    0.088351
 Sum of Mulliken charges =   0.00000

 Dipole moment (field-independent basis, Debye):
    X=              3.3970    Y=              0.6747    Z=              0.1727  Tot=              3.4677
 Quadrupole moment (field-independent basis, Debye-Ang):
   XX=            -27.3968   YY=            -21.4939   ZZ=            -25.0921
   XY=             -0.8526   XZ=             -1.1085   YZ=             -0.2005

 Normal termination of Gaussian 09 at Wed Aug 26 14:11:34 2020.
