 Gaussian 09, Revision D.01,
 Gaussian 09:  ES64L-G09RevD.01 24-Apr-2013

 --------------------
 #p B2PLYPD3/Def2QZVP
 --------------------

 --------
 acrolein
 --------
 Symbolic Z-matrix:
 Charge =  0 Multiplicity = 1

                         Standard orientation:
 ---------------------------------------------------------------------
 Center     Atomic      Atomic             Coordinates (Angstroms)
 Number     Number       Type             X           Y           Z
 ---------------------------------------------------------------------
      1          6           0       -0.681793    0.351481    0.013714
      2          8           0       -1.783630   -0.121742   -0.017199
      3          6           0        0.561379   -0.465889    0.014629
      4          6           0        1.756574    0.143828   -0.014889
      5          1           0        0.450008   -1.503734    0.056502
      6          1           0        1.843127    1.236489    0.026550
      7          1           0        2.686474   -0.400317   -0.052846
      8          1           0       -0.527527    1.464970    0.026656
 ---------------------------------------------------------------------

 SCF Done:  E(RB2PLYPD3) =  -191.615731833     A.U. after   12 cycles
 E2(B2PLYPD3) =    -0.2467549276D+00 E(B2PLYPD3) =    -0.19186248676095D+03

 The electronic state is 1-A.
 Alpha  occ. eigenvalues --  -19.72848 -10.71722 -10.65548 -10.64244  -1.20238
 Alpha  occ. eigenvalues --   -0.92535  -0.74916  -0.67184  -0.56504  -0.56310
 Alpha  occ. eigenvalues --   -0.50800  -0.47396  -0.46908  -0.34494  -0.33704
 Alpha virt. eigenvalues --   -0.01488   0.05768   0.07327   0.08067   0.09710
 Alpha virt. eigenvalues --    0.12491   0.14023   0.15405   0.17665   0.19759
 Alpha virt. eigenvalues --    0.19959   0.21432   0.25385   0.26389   0.28779

 Mulliken charges:
               1
     1  C    0.156758
     2  O   -0.340241
     3  C   -0.049133
     4  C   -0.130160
     5  H    0.110922
     6  H    0.083260
     7  H    0.099673
     8  H    0.068920
 Sum of Mulliken charges =   0.00000

 Dipole moment (field-independent basis, Debye):
    X=              3.3804    Y=              0.7354    Z=              0.0895  Tot=              3.4606
 Quadrupole moment (field-independent basis, Debye-Ang):
   XX=            -27.3331   YY=            -21.7434   ZZ=            -25.2388
   XY=             -0.8950   XZ=             -0.1417   YZ=             -0.0038

 Normal termination of Gaussian 09 at Wed Aug 26 08:51:49 2020.
