 Gaussian 09, Revision D.01,
 Gaussian 09:  ES64L-G09RevD.01 24-Apr-2013

 --------------------
 #p B2PLYPD3/Def2QZVP
 --------------------

 --------
 acrolein
 --------
 Symbolic Z-matrix:
 Charge =  0 Multiplicity = 1

                         Standard orientation:
 ---------------------------------------------------------------------
 Center     Atomic      Atomic             Coordinates (Angstroms)
 Number     Number       Type             X           Y           Z
 ---------------------------------------------------------------------
      1          6           0       -0.684651    0.332549    0.034539
      2          8           0       -1.776248   -0.105451   -0.060068
      3          6           0        0.579059   -0.461623    0.028166
      4          6           0        1.748676    0.154745   -0.068582
      5          1           0        0.453650   -1.464245    0.211353
      6          1           0        1.905842    1.272791   -0.048327
      7          1           0        2.612664   -0.422709    0.038726
      8          1           0       -0.620679    1.303749    0.314057
 ---------------------------------------------------------------------

 SCF Done:  E(RB2PLYPD3) =  -191.600357486     A.U. after   12 cycles
 E2(B2PLYPD3) =    -0.2446430746D+00 E(B2PLYPD3) =    -0.19184500056041D+03

 The electronic state is 1-A.
 Alpha  occ. eigenvalues --  -19.72436 -10.69950 -10.64994 -10.63720  -1.21281
 Alpha  occ. eigenvalues --   -0.92834  -0.75435  -0.68444  -0.57306  -0.56620
 Alpha  occ. eigenvalues --   -0.51772  -0.47498  -0.46632  -0.34823  -0.33322
 Alpha virt. eigenvalues --   -0.00990   0.05923   0.07192   0.08457   0.09570
 Alpha virt. eigenvalues --    0.12729   0.14304   0.15281   0.18115   0.18735
 Alpha virt. eigenvalues --    0.20169   0.21942   0.24880   0.27319   0.28363

 Mulliken charges:
               1
     1  C    0.158391
     2  O   -0.333498
     3  C   -0.065582
     4  C   -0.122396
     5  H    0.108617
     6  H    0.082253
     7  H    0.093944
     8  H    0.078271
 Sum of Mulliken charges =   0.00000

 Dipole moment (field-independent basis, Debye):
    X=              3.2275    Y=              0.7485    Z=              0.4768  Tot=              3.3473
 Quadrupole moment (field-independent basis, Debye-Ang):
   XX=            -27.4523   YY=            -21.6639   ZZ=            -24.9210
   XY=             -0.7940   XZ=             -0.2036   YZ=             -0.2914

 Normal termination of Gaussian 09 at Wed Aug 26 13:15:04 2020.
