 Gaussian 09, Revision D.01,
 Gaussian 09:  ES64L-G09RevD.01 24-Apr-2013

 --------------------
 #p B2PLYPD3/Def2QZVP
 --------------------

 --------
 acrolein
 --------
 Symbolic Z-matrix:
 Charge =  0 Multiplicity = 1

                         Standard orientation:
 ---------------------------------------------------------------------
 Center     Atomic      Atomic             Coordinates (Angstroms)
 Number     Number       Type             X           Y           Z
 ---------------------------------------------------------------------
      1          6           0       -0.684571    0.365178    0.005973
      2          8           0       -1.779329   -0.136535   -0.026398
      3          6           0        0.538822   -0.438335    0.054315
      4          6           0        1.766217    0.138982   -0.040891
      5          1           0        0.401522   -1.514290    0.036151
      6          1           0        1.783994    1.203296    0.055805
      7          1           0        2.834502   -0.456380   -0.061661
      8          1           0       -0.508191    1.464703    0.064506
 ---------------------------------------------------------------------

 SCF Done:  E(RB2PLYPD3) =  -191.601623199     A.U. after   13 cycles
 E2(B2PLYPD3) =    -0.2485761716D+00 E(B2PLYPD3) =    -0.19185019937081D+03

 The electronic state is 1-A.
 Alpha  occ. eigenvalues --  -19.72957 -10.71757 -10.67072 -10.64671  -1.20073
 Alpha  occ. eigenvalues --   -0.92267  -0.74674  -0.66963  -0.56287  -0.55309
 Alpha  occ. eigenvalues --   -0.50069  -0.47139  -0.46143  -0.34222  -0.33996
 Alpha virt. eigenvalues --   -0.02051   0.05324   0.06981   0.08023   0.09735
 Alpha virt. eigenvalues --    0.12066   0.13738   0.15305   0.17608   0.19801
 Alpha virt. eigenvalues --    0.20006   0.20690   0.24927   0.26298   0.28941

 Mulliken charges:
               1
     1  C    0.158631
     2  O   -0.343762
     3  C   -0.041205
     4  C   -0.133851
     5  H    0.108470
     6  H    0.084596
     7  H    0.098817
     8  H    0.068304
 Sum of Mulliken charges =   0.00000

 Dipole moment (field-independent basis, Debye):
    X=              3.3813    Y=              0.8118    Z=              0.1082  Tot=              3.4791
 Quadrupole moment (field-independent basis, Debye-Ang):
   XX=            -27.2439   YY=            -21.9235   ZZ=            -25.4341
   XY=             -1.0976   XZ=             -0.1913   YZ=              0.1180

 Normal termination of Gaussian 09 at Wed Aug 26 09:34:05 2020.
