 Gaussian 09, Revision D.01,
 Gaussian 09:  ES64L-G09RevD.01 24-Apr-2013

 --------------------
 #p B2PLYPD3/Def2QZVP
 --------------------

 --------
 acrolein
 --------
 Symbolic Z-matrix:
 Charge =  0 Multiplicity = 1

                         Standard orientation:
 ---------------------------------------------------------------------
 Center     Atomic      Atomic             Coordinates (Angstroms)
 Number     Number       Type             X           Y           Z
 ---------------------------------------------------------------------
      1          6           0       -0.684552    0.325483    0.090068
      2          8           0       -1.795806   -0.128409   -0.065189
      3          6           0        0.552842   -0.437926    0.071760
      4          6           0        1.768770    0.142552   -0.055695
      5          1           0        0.466638   -1.423886   -0.006530
      6          1           0        1.758392    1.183835   -0.007320
      7          1           0        2.807488   -0.441331   -0.074998
      8          1           0       -0.488435    1.528002   -0.026440
 ---------------------------------------------------------------------

 SCF Done:  E(RB2PLYPD3) =  -191.589195782     A.U. after   13 cycles
 E2(B2PLYPD3) =    -0.2492126092D+00 E(B2PLYPD3) =    -0.19183840839074D+03

 The electronic state is 1-A.
 Alpha  occ. eigenvalues --  -19.73430 -10.72811 -10.66706 -10.63906  -1.19958
 Alpha  occ. eigenvalues --   -0.93240  -0.75263  -0.67104  -0.56156  -0.55717
 Alpha  occ. eigenvalues --   -0.50071  -0.47534  -0.47103  -0.34756  -0.33588
 Alpha virt. eigenvalues --   -0.02505   0.05463   0.06977   0.07979   0.09803
 Alpha virt. eigenvalues --    0.12185   0.13498   0.15245   0.17971   0.19513
 Alpha virt. eigenvalues --    0.20199   0.20779   0.24414   0.26485   0.29086

 Mulliken charges:
               1
     1  C    0.162460
     2  O   -0.336990
     3  C   -0.027522
     4  C   -0.127008
     5  H    0.109328
     6  H    0.088031
     7  H    0.103431
     8  H    0.028270
 Sum of Mulliken charges =   0.00000

 Dipole moment (field-independent basis, Debye):
    X=              3.5209    Y=              0.5451    Z=              0.1489  Tot=              3.5660
 Quadrupole moment (field-independent basis, Debye-Ang):
   XX=            -26.9017   YY=            -22.3911   ZZ=            -25.3237
   XY=             -1.0404   XZ=             -0.5033   YZ=              0.0332

 Normal termination of Gaussian 09 at Wed Aug 26 12:26:46 2020.
