 Gaussian 09, Revision D.01,
 Gaussian 09:  ES64L-G09RevD.01 24-Apr-2013

 --------------------
 #p B2PLYPD3/Def2QZVP
 --------------------

 --------
 acrolein
 --------
 Symbolic Z-matrix:
 Charge =  0 Multiplicity = 1

                         Standard orientation:
 ---------------------------------------------------------------------
 Center     Atomic      Atomic             Coordinates (Angstroms)
 Number     Number       Type             X           Y           Z
 ---------------------------------------------------------------------
      1          6           0        0.675076    0.345490   -0.021564
      2          8           0        1.778124   -0.128036    0.021202
      3          6           0       -0.546793   -0.439190   -0.017991
      4          6           0       -1.755195    0.147465    0.008004
      5          1           0       -0.465762   -1.506204   -0.001628
      6          1           0       -1.801067    1.176383    0.089332
      7          1           0       -2.722565   -0.433682   -0.002130
      8          1           0        0.525873    1.465204   -0.065887
 ---------------------------------------------------------------------

 SCF Done:  E(RB2PLYPD3) =  -191.612873478     A.U. after   12 cycles
 E2(B2PLYPD3) =    -0.2469799132D+00 E(B2PLYPD3) =    -0.19185985339112D+03

 The electronic state is 1-A.
 Alpha  occ. eigenvalues --  -19.72768 -10.71566 -10.65583 -10.64212  -1.20133
 Alpha  occ. eigenvalues --   -0.93054  -0.75449  -0.67087  -0.56958  -0.56110
 Alpha  occ. eigenvalues --   -0.50340  -0.47313  -0.47117  -0.34504  -0.33827
 Alpha virt. eigenvalues --   -0.01883   0.05747   0.07105   0.08395   0.09790
 Alpha virt. eigenvalues --    0.12526   0.13952   0.15401   0.17534   0.19770
 Alpha virt. eigenvalues --    0.20234   0.21319   0.25491   0.26204   0.28934

 Mulliken charges:
               1
     1  C    0.149594
     2  O   -0.342144
     3  C   -0.031216
     4  C   -0.134230
     5  H    0.105310
     6  H    0.088349
     7  H    0.101301
     8  H    0.063036
 Sum of Mulliken charges =   0.00000

 Dipole moment (field-independent basis, Debye):
    X=             -3.4613    Y=              0.7335    Z=             -0.0165  Tot=              3.5382
 Quadrupole moment (field-independent basis, Debye-Ang):
   XX=            -27.2190   YY=            -21.8842   ZZ=            -25.2004
   XY=              1.0514   XZ=             -0.2399   YZ=              0.0808

 Normal termination of Gaussian 09 at Wed Aug 26 20:22:28 2020.
