 Gaussian 09, Revision D.01,
 Gaussian 09:  ES64L-G09RevD.01 24-Apr-2013

 --------------------
 #p B2PLYPD3/Def2QZVP
 --------------------

 --------
 acrolein
 --------
 Symbolic Z-matrix:
 Charge =  0 Multiplicity = 1

                         Standard orientation:
 ---------------------------------------------------------------------
 Center     Atomic      Atomic             Coordinates (Angstroms)
 Number     Number       Type             X           Y           Z
 ---------------------------------------------------------------------
      1          6           0        0.666308    0.339588    0.015609
      2          8           0        1.800363   -0.104536   -0.021854
      3          6           0       -0.567342   -0.460889    0.011199
      4          6           0       -1.750755    0.146193   -0.020213
      5          1           0       -0.417541   -1.566602    0.066383
      6          1           0       -1.861171    1.243701   -0.031100
      7          1           0       -2.696385   -0.405036    0.000093
      8          1           0        0.482927    1.414877    0.099890
 ---------------------------------------------------------------------

 SCF Done:  E(RB2PLYPD3) =  -191.614494947     A.U. after   12 cycles
 E2(B2PLYPD3) =    -0.2478058709D+00 E(B2PLYPD3) =    -0.19186230081779D+03

 The electronic state is 1-A.
 Alpha  occ. eigenvalues --  -19.72850 -10.71537 -10.65967 -10.64914  -1.19004
 Alpha  occ. eigenvalues --   -0.93038  -0.75478  -0.66707  -0.56625  -0.55862
 Alpha  occ. eigenvalues --   -0.50579  -0.46642  -0.46222  -0.34838  -0.33830
 Alpha virt. eigenvalues --   -0.01864   0.05649   0.06984   0.08136   0.09652
 Alpha virt. eigenvalues --    0.12544   0.14051   0.15282   0.17270   0.19568
 Alpha virt. eigenvalues --    0.20058   0.21513   0.25297   0.26704   0.28598

 Mulliken charges:
               1
     1  C    0.159749
     2  O   -0.353801
     3  C   -0.036889
     4  C   -0.127744
     5  H    0.103150
     6  H    0.084601
     7  H    0.101114
     8  H    0.069821
 Sum of Mulliken charges =   0.00000

 Dipole moment (field-independent basis, Debye):
    X=             -3.5786    Y=              0.7289    Z=              0.1341  Tot=              3.6546
 Quadrupole moment (field-independent basis, Debye-Ang):
   XX=            -27.5158   YY=            -21.7578   ZZ=            -25.2752
   XY=              0.6471   XZ=              0.1272   YZ=             -0.0918

 Normal termination of Gaussian 09 at Wed Aug 26 15:36:52 2020.
