 Gaussian 09, Revision D.01,
 Gaussian 09:  ES64L-G09RevD.01 24-Apr-2013

 --------------------
 #p B2PLYPD3/Def2QZVP
 --------------------

 --------
 acrolein
 --------
 Symbolic Z-matrix:
 Charge =  0 Multiplicity = 1

                         Standard orientation:
 ---------------------------------------------------------------------
 Center     Atomic      Atomic             Coordinates (Angstroms)
 Number     Number       Type             X           Y           Z
 ---------------------------------------------------------------------
      1          6           0       -0.671035    0.357023    0.000564
      2          8           0       -1.778748   -0.133310    0.003644
      3          6           0        0.556937   -0.436683   -0.010976
      4          6           0        1.743913    0.135811   -0.003521
      5          1           0        0.482285   -1.487078   -0.012888
      6          1           0        1.810348    1.193332   -0.037295
      7          1           0        2.677679   -0.417029    0.079984
      8          1           0       -0.519217    1.440348    0.024637
 ---------------------------------------------------------------------

 SCF Done:  E(RB2PLYPD3) =  -191.616043852     A.U. after   12 cycles
 E2(B2PLYPD3) =    -0.2464474488D+00 E(B2PLYPD3) =    -0.19186249130049D+03

 The electronic state is 1-A.
 Alpha  occ. eigenvalues --  -19.72779 -10.71457 -10.64905 -10.63649  -1.19495
 Alpha  occ. eigenvalues --   -0.93531  -0.75548  -0.67657  -0.56999  -0.56540
 Alpha  occ. eigenvalues --   -0.50695  -0.47052  -0.46756  -0.34840  -0.33951
 Alpha virt. eigenvalues --   -0.01596   0.05796   0.07288   0.08269   0.09777
 Alpha virt. eigenvalues --    0.12625   0.14128   0.15384   0.17686   0.19773
 Alpha virt. eigenvalues --    0.20051   0.21579   0.25668   0.26433   0.28902

 Mulliken charges:
               1
     1  C    0.148725
     2  O   -0.348901
     3  C   -0.033674
     4  C   -0.130178
     5  H    0.106473
     6  H    0.080378
     7  H    0.100068
     8  H    0.077109
 Sum of Mulliken charges =   0.00000

 Dipole moment (field-independent basis, Debye):
    X=              3.4658    Y=              0.8098    Z=              0.0283  Tot=              3.5592
 Quadrupole moment (field-independent basis, Debye-Ang):
   XX=            -27.3738   YY=            -21.7670   ZZ=            -25.0708
   XY=             -1.1030   XZ=              0.1546   YZ=             -0.0642

 Normal termination of Gaussian 09 at Wed Aug 26 12:11:15 2020.
