 Gaussian 09, Revision D.01,
 Gaussian 09:  ES64L-G09RevD.01 24-Apr-2013

 --------------------
 #p B2PLYPD3/Def2QZVP
 --------------------

 --------
 acrolein
 --------
 Symbolic Z-matrix:
 Charge =  0 Multiplicity = 1

                         Standard orientation:
 ---------------------------------------------------------------------
 Center     Atomic      Atomic             Coordinates (Angstroms)
 Number     Number       Type             X           Y           Z
 ---------------------------------------------------------------------
      1          6           0        0.674963    0.365977   -0.006452
      2          8           0        1.772151   -0.130513    0.032768
      3          6           0       -0.548796   -0.443598   -0.059207
      4          6           0       -1.763092    0.135670    0.013971
      5          1           0       -0.406279   -1.532976   -0.046932
      6          1           0       -1.792945    1.191344   -0.004827
      7          1           0       -2.668885   -0.416261    0.177419
      8          1           0        0.512450    1.453703   -0.077678
 ---------------------------------------------------------------------

 SCF Done:  E(RB2PLYPD3) =  -191.614309580     A.U. after   13 cycles
 E2(B2PLYPD3) =    -0.2471698073D+00 E(B2PLYPD3) =    -0.19186147938776D+03

 The electronic state is 1-A.
 Alpha  occ. eigenvalues --  -19.72799 -10.71492 -10.65229 -10.64521  -1.19925
 Alpha  occ. eigenvalues --   -0.92675  -0.75539  -0.67029  -0.56598  -0.56460
 Alpha  occ. eigenvalues --   -0.50767  -0.47267  -0.46669  -0.34369  -0.33814
 Alpha virt. eigenvalues --   -0.01820   0.05836   0.07190   0.08066   0.09837
 Alpha virt. eigenvalues --    0.12563   0.14013   0.15392   0.17362   0.19668
 Alpha virt. eigenvalues --    0.20047   0.21745   0.25239   0.26452   0.28902

 Mulliken charges:
               1
     1  C    0.156039
     2  O   -0.346037
     3  C   -0.040666
     4  C   -0.135703
     5  H    0.105163
     6  H    0.083025
     7  H    0.105928
     8  H    0.072251
 Sum of Mulliken charges =   0.00000

 Dipole moment (field-independent basis, Debye):
    X=             -3.3906    Y=              0.8112    Z=              0.0116  Tot=              3.4863
 Quadrupole moment (field-independent basis, Debye-Ang):
   XX=            -27.3831   YY=            -21.7540   ZZ=            -25.1985
   XY=              1.0171   XZ=             -0.6043   YZ=             -0.1063

 Normal termination of Gaussian 09 at Wed Aug 26 21:19:57 2020.
