 Gaussian 09, Revision D.01,
 Gaussian 09:  ES64L-G09RevD.01 24-Apr-2013

 --------------------
 #p B2PLYPD3/Def2QZVP
 --------------------

 --------
 acrolein
 --------
 Symbolic Z-matrix:
 Charge =  0 Multiplicity = 1

                         Standard orientation:
 ---------------------------------------------------------------------
 Center     Atomic      Atomic             Coordinates (Angstroms)
 Number     Number       Type             X           Y           Z
 ---------------------------------------------------------------------
      1          6           0       -0.679554    0.356500    0.023913
      2          8           0       -1.784375   -0.128645   -0.016537
      3          6           0        0.547934   -0.440254    0.010579
      4          6           0        1.769576    0.137981   -0.013694
      5          1           0        0.422466   -1.536501    0.021545
      6          1           0        1.813493    1.201383   -0.000937
      7          1           0        2.732164   -0.426964   -0.012966
      8          1           0       -0.520861    1.465875   -0.000131
 ---------------------------------------------------------------------

 SCF Done:  E(RB2PLYPD3) =  -191.614232546     A.U. after   12 cycles
 E2(B2PLYPD3) =    -0.2477472811D+00 E(B2PLYPD3) =    -0.19186197982742D+03

 The electronic state is 1-A.
 Alpha  occ. eigenvalues --  -19.72885 -10.71731 -10.65951 -10.64785  -1.19822
 Alpha  occ. eigenvalues --   -0.92518  -0.75344  -0.66660  -0.56449  -0.56109
 Alpha  occ. eigenvalues --   -0.50497  -0.46972  -0.46621  -0.34365  -0.33928
 Alpha virt. eigenvalues --   -0.02003   0.05705   0.07065   0.08203   0.09764
 Alpha virt. eigenvalues --    0.12409   0.13960   0.15396   0.17372   0.19845
 Alpha virt. eigenvalues --    0.19974   0.21347   0.25436   0.26325   0.28999

 Mulliken charges:
               1
     1  C    0.156284
     2  O   -0.344937
     3  C   -0.036994
     4  C   -0.134739
     5  H    0.103640
     6  H    0.084437
     7  H    0.105415
     8  H    0.066894
 Sum of Mulliken charges =   0.00000

 Dipole moment (field-independent basis, Debye):
    X=              3.4556    Y=              0.7788    Z=              0.0701  Tot=              3.5429
 Quadrupole moment (field-independent basis, Debye-Ang):
   XX=            -27.2473   YY=            -21.8514   ZZ=            -25.3293
   XY=             -1.0131   XZ=             -0.0969   YZ=             -0.0209

 Normal termination of Gaussian 09 at Wed Aug 26 19:04:42 2020.
