 Gaussian 09, Revision D.01,
 Gaussian 09:  ES64L-G09RevD.01 24-Apr-2013

 --------------------
 #p B2PLYPD3/Def2QZVP
 --------------------

 --------
 acrolein
 --------
 Symbolic Z-matrix:
 Charge =  0 Multiplicity = 1

                         Standard orientation:
 ---------------------------------------------------------------------
 Center     Atomic      Atomic             Coordinates (Angstroms)
 Number     Number       Type             X           Y           Z
 ---------------------------------------------------------------------
      1          6           0        0.677710    0.358197   -0.006909
      2          8           0        1.791688   -0.125280    0.010648
      3          6           0       -0.544206   -0.437700   -0.037941
      4          6           0       -1.756628    0.138621   -0.003073
      5          1           0       -0.449553   -1.566263    0.075002
      6          1           0       -1.871003    1.197823    0.036589
      7          1           0       -2.756771   -0.437669    0.068663
      8          1           0        0.482571    1.453641    0.022104
 ---------------------------------------------------------------------

 SCF Done:  E(RB2PLYPD3) =  -191.608749307     A.U. after   12 cycles
 E2(B2PLYPD3) =    -0.2483904654D+00 E(B2PLYPD3) =    -0.19185713977275D+03

 The electronic state is 1-A.
 Alpha  occ. eigenvalues --  -19.72953 -10.71837 -10.66313 -10.65051  -1.19394
 Alpha  occ. eigenvalues --   -0.92697  -0.75348  -0.66478  -0.56757  -0.55490
 Alpha  occ. eigenvalues --   -0.50174  -0.46885  -0.45757  -0.34562  -0.34014
 Alpha virt. eigenvalues --   -0.02085   0.05530   0.06778   0.08144   0.09652
 Alpha virt. eigenvalues --    0.12379   0.13971   0.15284   0.17387   0.19833
 Alpha virt. eigenvalues --    0.19901   0.21292   0.25235   0.26436   0.28620

 Mulliken charges:
               1
     1  C    0.155445
     2  O   -0.347528
     3  C   -0.034078
     4  C   -0.127087
     5  H    0.101645
     6  H    0.082834
     7  H    0.096860
     8  H    0.071908
 Sum of Mulliken charges =   0.00000

 Dipole moment (field-independent basis, Debye):
    X=             -3.5292    Y=              0.8227    Z=              0.1343  Tot=              3.6263
 Quadrupole moment (field-independent basis, Debye-Ang):
   XX=            -27.3269   YY=            -21.8652   ZZ=            -25.3561
   XY=              0.8510   XZ=             -0.3327   YZ=             -0.1175

 Normal termination of Gaussian 09 at Wed Aug 26 08:36:22 2020.
