 Gaussian 09, Revision D.01,
 Gaussian 09:  ES64L-G09RevD.01 24-Apr-2013

 --------------------
 #p B2PLYPD3/Def2QZVP
 --------------------

 --------
 acrolein
 --------
 Symbolic Z-matrix:
 Charge =  0 Multiplicity = 1

                         Standard orientation:
 ---------------------------------------------------------------------
 Center     Atomic      Atomic             Coordinates (Angstroms)
 Number     Number       Type             X           Y           Z
 ---------------------------------------------------------------------
      1          6           0        0.672755    0.336608   -0.038929
      2          8           0        1.768135   -0.111573    0.041323
      3          6           0       -0.558365   -0.466760   -0.006184
      4          6           0       -1.732659    0.161549   -0.010640
      5          1           0       -0.524094   -1.494019   -0.126377
      6          1           0       -1.819851    1.267978    0.106066
      7          1           0       -2.641677   -0.422308    0.139503
      8          1           0        0.550160    1.352549   -0.115253
 ---------------------------------------------------------------------

 SCF Done:  E(RB2PLYPD3) =  -191.608044061     A.U. after   13 cycles
 E2(B2PLYPD3) =    -0.2453412661D+00 E(B2PLYPD3) =    -0.19185338532732D+03

 The electronic state is 1-A.
 Alpha  occ. eigenvalues --  -19.72348 -10.70218 -10.65483 -10.63653  -1.20816
 Alpha  occ. eigenvalues --   -0.93086  -0.75151  -0.68405  -0.57507  -0.56140
 Alpha  occ. eigenvalues --   -0.50630  -0.47602  -0.46844  -0.34731  -0.33629
 Alpha virt. eigenvalues --   -0.01249   0.05793   0.07429   0.08094   0.09676
 Alpha virt. eigenvalues --    0.12788   0.14071   0.15204   0.18153   0.19578
 Alpha virt. eigenvalues --    0.19758   0.21579   0.24948   0.26799   0.28400

 Mulliken charges:
               1
     1  C    0.150736
     2  O   -0.338316
     3  C   -0.047755
     4  C   -0.123015
     5  H    0.107736
     6  H    0.077473
     7  H    0.092396
     8  H    0.080745
 Sum of Mulliken charges =   0.00000

 Dipole moment (field-independent basis, Debye):
    X=             -3.3175    Y=              0.7478    Z=             -0.0887  Tot=              3.4019
 Quadrupole moment (field-independent basis, Debye-Ang):
   XX=            -27.6207   YY=            -21.5733   ZZ=            -24.9979
   XY=              1.0482   XZ=             -0.6419   YZ=              0.2030

 Normal termination of Gaussian 09 at Wed Aug 26 14:56:56 2020.
