 Gaussian 09, Revision D.01,
 Gaussian 09:  ES64L-G09RevD.01 24-Apr-2013

 --------------------
 #p B2PLYPD3/Def2QZVP
 --------------------

 --------
 acrolein
 --------
 Symbolic Z-matrix:
 Charge =  0 Multiplicity = 1

                         Standard orientation:
 ---------------------------------------------------------------------
 Center     Atomic      Atomic             Coordinates (Angstroms)
 Number     Number       Type             X           Y           Z
 ---------------------------------------------------------------------
      1          6           0       -0.645339    0.310474   -0.039571
      2          8           0       -1.801799   -0.073940    0.037842
      3          6           0        0.556413   -0.476430   -0.019342
      4          6           0        1.752783    0.128388   -0.004989
      5          1           0        0.417502   -1.556331   -0.088035
      6          1           0        1.915415    1.291065    0.033511
      7          1           0        2.499083   -0.349252    0.184853
      8          1           0       -0.400747    1.431444   -0.049645
 ---------------------------------------------------------------------

 SCF Done:  E(RB2PLYPD3) =  -191.577244600     A.U. after   13 cycles
 E2(B2PLYPD3) =    -0.2484325712D+00 E(B2PLYPD3) =    -0.19182567717148D+03

 The electronic state is 1-A.
 Alpha  occ. eigenvalues --  -19.72843 -10.71635 -10.65137 -10.64874  -1.18780
 Alpha  occ. eigenvalues --   -0.94070  -0.77965  -0.66117  -0.58437  -0.55248
 Alpha  occ. eigenvalues --   -0.50656  -0.47450  -0.46357  -0.34850  -0.33625
 Alpha virt. eigenvalues --   -0.02590   0.05595   0.07091   0.08279   0.09633
 Alpha virt. eigenvalues --    0.12642   0.14056   0.15105   0.17248   0.19596
 Alpha virt. eigenvalues --    0.19756   0.22656   0.24820   0.26760   0.28233

 Mulliken charges:
               1
     1  C    0.161716
     2  O   -0.354300
     3  C   -0.021764
     4  C   -0.131331
     5  H    0.099382
     6  H    0.077970
     7  H    0.121212
     8  H    0.047115
 Sum of Mulliken charges =   0.00000

 Dipole moment (field-independent basis, Debye):
    X=              3.7527    Y=              0.4772    Z=             -0.0363  Tot=              3.7831
 Quadrupole moment (field-independent basis, Debye-Ang):
   XX=            -27.4962   YY=            -21.8608   ZZ=            -25.0873
   XY=             -0.3059   XZ=              0.6361   YZ=              0.0761

 Normal termination of Gaussian 09 at Wed Aug 26 11:22:07 2020.
