 Gaussian 09, Revision D.01,
 Gaussian 09:  ES64L-G09RevD.01 24-Apr-2013

 --------------------
 #p B2PLYPD3/Def2QZVP
 --------------------

 --------
 acrolein
 --------
 Symbolic Z-matrix:
 Charge =  0 Multiplicity = 1

                         Standard orientation:
 ---------------------------------------------------------------------
 Center     Atomic      Atomic             Coordinates (Angstroms)
 Number     Number       Type             X           Y           Z
 ---------------------------------------------------------------------
      1          6           0        0.666172    0.365078    0.040467
      2          8           0        1.784526   -0.145087   -0.066095
      3          6           0       -0.531228   -0.420893    0.050591
      4          6           0       -1.739424    0.134385   -0.060831
      5          1           0       -0.399859   -1.523782    0.211363
      6          1           0       -1.779590    1.163057   -0.079677
      7          1           0       -2.918790   -0.493557   -0.045762
      8          1           0        0.448913    1.543555    0.261477
 ---------------------------------------------------------------------

 SCF Done:  E(RB2PLYPD3) =  -191.570942067     A.U. after   13 cycles
 E2(B2PLYPD3) =    -0.2514871535D+00 E(B2PLYPD3) =    -0.19182242922045D+03

 The electronic state is 1-A.
 Alpha  occ. eigenvalues --  -19.73411 -10.73085 -10.67515 -10.64910  -1.18643
 Alpha  occ. eigenvalues --   -0.93492  -0.74993  -0.65863  -0.56164  -0.54712
 Alpha  occ. eigenvalues --   -0.49576  -0.46329  -0.44831  -0.34841  -0.34073
 Alpha virt. eigenvalues --   -0.02475   0.04456   0.05945   0.08056   0.09578
 Alpha virt. eigenvalues --    0.11653   0.13504   0.15086   0.17208   0.19339
 Alpha virt. eigenvalues --    0.19965   0.20533   0.25044   0.25822   0.28075

 Mulliken charges:
               1
     1  C    0.156792
     2  O   -0.351269
     3  C   -0.019347
     4  C   -0.132642
     5  H    0.107412
     6  H    0.091627
     7  H    0.093879
     8  H    0.053548
 Sum of Mulliken charges =   0.00000

 Dipole moment (field-independent basis, Debye):
    X=             -3.5302    Y=              0.7696    Z=              0.3454  Tot=              3.6296
 Quadrupole moment (field-independent basis, Debye-Ang):
   XX=            -27.3703   YY=            -22.1531   ZZ=            -25.5138
   XY=              0.9270   XZ=              0.4233   YZ=             -0.2239

 Normal termination of Gaussian 09 at Wed Aug 26 12:20:16 2020.
