 Gaussian 09, Revision D.01,
 Gaussian 09:  ES64L-G09RevD.01 24-Apr-2013

 --------------------
 #p B2PLYPD3/Def2QZVP
 --------------------

 --------
 acrolein
 --------
 Symbolic Z-matrix:
 Charge =  0 Multiplicity = 1

                         Standard orientation:
 ---------------------------------------------------------------------
 Center     Atomic      Atomic             Coordinates (Angstroms)
 Number     Number       Type             X           Y           Z
 ---------------------------------------------------------------------
      1          6           0       -0.709178    0.378071    0.055895
      2          8           0       -1.741638   -0.152517   -0.071844
      3          6           0        0.527909   -0.454247    0.008415
      4          6           0        1.744929    0.143224   -0.013908
      5          1           0        0.466978   -1.431208    0.284353
      6          1           0        1.824681    1.211928   -0.200819
      7          1           0        2.789214   -0.473235   -0.093570
      8          1           0       -0.529732    1.510367    0.282380
 ---------------------------------------------------------------------

 SCF Done:  E(RB2PLYPD3) =  -191.591706788     A.U. after   13 cycles
 E2(B2PLYPD3) =    -0.2470201486D+00 E(B2PLYPD3) =    -0.19183872693689D+03

 The electronic state is 1-A.
 Alpha  occ. eigenvalues --  -19.73171 -10.72033 -10.66381 -10.63672  -1.22680
 Alpha  occ. eigenvalues --   -0.91693  -0.73454  -0.66996  -0.56788  -0.55704
 Alpha  occ. eigenvalues --   -0.50813  -0.47995  -0.46011  -0.34248  -0.33431
 Alpha virt. eigenvalues --   -0.01042   0.05568   0.06696   0.07840   0.09695
 Alpha virt. eigenvalues --    0.12094   0.13623   0.14780   0.18395   0.19177
 Alpha virt. eigenvalues --    0.20019   0.20865   0.24030   0.26950   0.28879

 Mulliken charges:
               1
     1  C    0.156828
     2  O   -0.310413
     3  C   -0.064870
     4  C   -0.128607
     5  H    0.116320
     6  H    0.077184
     7  H    0.084756
     8  H    0.068802
 Sum of Mulliken charges =   0.00000

 Dipole moment (field-independent basis, Debye):
    X=              2.9250    Y=              0.8236    Z=              0.3132  Tot=              3.0549
 Quadrupole moment (field-independent basis, Debye-Ang):
   XX=            -27.1989   YY=            -22.0081   ZZ=            -25.2318
   XY=             -1.0961   XZ=             -0.7054   YZ=             -0.4848

 Normal termination of Gaussian 09 at Wed Aug 26 13:35:01 2020.
