 Gaussian 09, Revision D.01,
 Gaussian 09:  ES64L-G09RevD.01 24-Apr-2013

 --------------------
 #p B2PLYPD3/Def2QZVP
 --------------------

 --------
 acrolein
 --------
 Symbolic Z-matrix:
 Charge =  0 Multiplicity = 1

                         Standard orientation:
 ---------------------------------------------------------------------
 Center     Atomic      Atomic             Coordinates (Angstroms)
 Number     Number       Type             X           Y           Z
 ---------------------------------------------------------------------
      1          6           0        0.650324    0.336875    0.041630
      2          8           0        1.792557   -0.108154   -0.028263
      3          6           0       -0.571196   -0.456829    0.034549
      4          6           0       -1.741039    0.150099   -0.024067
      5          1           0       -0.424947   -1.505854   -0.009371
      6          1           0       -1.789474    1.231504    0.015653
      7          1           0       -2.671665   -0.409857   -0.057049
      8          1           0        0.517099    1.368561   -0.035801
 ---------------------------------------------------------------------

 SCF Done:  E(RB2PLYPD3) =  -191.612446985     A.U. after   12 cycles
 E2(B2PLYPD3) =    -0.2471565070D+00 E(B2PLYPD3) =    -0.19185960349183D+03

 The electronic state is 1-A.
 Alpha  occ. eigenvalues --  -19.72536 -10.70804 -10.65525 -10.64023  -1.18316
 Alpha  occ. eigenvalues --   -0.93832  -0.75925  -0.68135  -0.56899  -0.56508
 Alpha  occ. eigenvalues --   -0.50417  -0.47204  -0.46207  -0.34965  -0.33810
 Alpha virt. eigenvalues --   -0.01891   0.05714   0.07303   0.08035   0.09774
 Alpha virt. eigenvalues --    0.12697   0.13955   0.15233   0.17663   0.19717
 Alpha virt. eigenvalues --    0.20079   0.21614   0.25205   0.26932   0.29055

 Mulliken charges:
               1
     1  C    0.154261
     2  O   -0.364913
     3  C   -0.033187
     4  C   -0.129577
     5  H    0.108543
     6  H    0.086833
     7  H    0.102031
     8  H    0.076010
 Sum of Mulliken charges =   0.00000

 Dipole moment (field-independent basis, Debye):
    X=             -3.6386    Y=              0.7572    Z=              0.0530  Tot=              3.7169
 Quadrupole moment (field-independent basis, Debye-Ang):
   XX=            -27.6699   YY=            -21.6602   ZZ=            -25.0763
   XY=              0.8838   XZ=              0.2431   YZ=              0.0677

 Normal termination of Gaussian 09 at Wed Aug 26 08:54:38 2020.
