 Gaussian 09, Revision D.01,
 Gaussian 09:  ES64L-G09RevD.01 24-Apr-2013

 --------------------
 #p B2PLYPD3/Def2QZVP
 --------------------

 --------
 acrolein
 --------
 Symbolic Z-matrix:
 Charge =  0 Multiplicity = 1

                         Standard orientation:
 ---------------------------------------------------------------------
 Center     Atomic      Atomic             Coordinates (Angstroms)
 Number     Number       Type             X           Y           Z
 ---------------------------------------------------------------------
      1          6           0       -0.664336    0.335354    0.024452
      2          8           0       -1.790114   -0.108306   -0.017640
      3          6           0        0.575417   -0.455737    0.011848
      4          6           0        1.747681    0.154572   -0.023337
      5          1           0        0.472049   -1.538989   -0.010976
      6          1           0        1.809209    1.212484   -0.067365
      7          1           0        2.611582   -0.386079    0.079727
      8          1           0       -0.524506    1.373896    0.061957
 ---------------------------------------------------------------------

 SCF Done:  E(RB2PLYPD3) =  -191.612477310     A.U. after   13 cycles
 E2(B2PLYPD3) =    -0.2460810476D+00 E(B2PLYPD3) =    -0.19185855835781D+03

 The electronic state is 1-A.
 Alpha  occ. eigenvalues --  -19.72599 -10.70825 -10.64445 -10.64217  -1.19346
 Alpha  occ. eigenvalues --   -0.93587  -0.76189  -0.67776  -0.57334  -0.56776
 Alpha  occ. eigenvalues --   -0.50765  -0.47527  -0.46593  -0.34870  -0.33756
 Alpha virt. eigenvalues --   -0.01647   0.05897   0.07305   0.08270   0.09768
 Alpha virt. eigenvalues --    0.12850   0.14187   0.15409   0.17479   0.19646
 Alpha virt. eigenvalues --    0.20138   0.22054   0.25485   0.26624   0.28781

 Mulliken charges:
               1
     1  C    0.150652
     2  O   -0.351949
     3  C   -0.033522
     4  C   -0.131117
     5  H    0.101161
     6  H    0.084894
     7  H    0.103484
     8  H    0.076397
 Sum of Mulliken charges =   0.00000

 Dipole moment (field-independent basis, Debye):
    X=              3.5226    Y=              0.7581    Z=              0.0925  Tot=              3.6044
 Quadrupole moment (field-independent basis, Debye-Ang):
   XX=            -27.5725   YY=            -21.6369   ZZ=            -25.0111
   XY=             -0.8877   XZ=             -0.0033   YZ=             -0.0779

 Normal termination of Gaussian 09 at Wed Aug 26 09:40:32 2020.
