 Gaussian 09, Revision D.01,
 Gaussian 09:  ES64L-G09RevD.01 24-Apr-2013

 --------------------
 #p B2PLYPD3/Def2QZVP
 --------------------

 --------
 acrolein
 --------
 Symbolic Z-matrix:
 Charge =  0 Multiplicity = 1

                         Standard orientation:
 ---------------------------------------------------------------------
 Center     Atomic      Atomic             Coordinates (Angstroms)
 Number     Number       Type             X           Y           Z
 ---------------------------------------------------------------------
      1          6           0        0.649405    0.317839    0.024918
      2          8           0        1.804136   -0.104919   -0.023696
      3          6           0       -0.574627   -0.459699   -0.006589
      4          6           0       -1.734113    0.167877   -0.022933
      5          1           0       -0.505853   -1.556997    0.109090
      6          1           0       -1.782126    1.226271   -0.035602
      7          1           0       -2.675181   -0.424679    0.029902
      8          1           0        0.486086    1.438656    0.113804
 ---------------------------------------------------------------------

 SCF Done:  E(RB2PLYPD3) =  -191.611707520     A.U. after   12 cycles
 E2(B2PLYPD3) =    -0.2483367795D+00 E(B2PLYPD3) =    -0.19186004429956D+03

 The electronic state is 1-A.
 Alpha  occ. eigenvalues --  -19.72792 -10.71938 -10.65659 -10.64616  -1.18225
 Alpha  occ. eigenvalues --   -0.94023  -0.75546  -0.66623  -0.56616  -0.56103
 Alpha  occ. eigenvalues --   -0.49915  -0.47230  -0.46077  -0.35113  -0.33743
 Alpha virt. eigenvalues --   -0.02038   0.05720   0.06608   0.08189   0.09707
 Alpha virt. eigenvalues --    0.12667   0.13886   0.15086   0.17297   0.19753
 Alpha virt. eigenvalues --    0.20222   0.21424   0.25166   0.26549   0.28866

 Mulliken charges:
               1
     1  C    0.149155
     2  O   -0.356760
     3  C   -0.018544
     4  C   -0.125480
     5  H    0.099780
     6  H    0.092475
     7  H    0.100341
     8  H    0.059033
 Sum of Mulliken charges =   0.00000

 Dipole moment (field-independent basis, Debye):
    X=             -3.7117    Y=              0.6471    Z=              0.2116  Tot=              3.7736
 Quadrupole moment (field-independent basis, Debye-Ang):
   XX=            -27.7471   YY=            -21.7528   ZZ=            -25.2112
   XY=              0.8690   XZ=              0.0286   YZ=             -0.1877

 Normal termination of Gaussian 09 at Wed Aug 26 08:48:45 2020.
