 Gaussian 09, Revision D.01,
 Gaussian 09:  ES64L-G09RevD.01 24-Apr-2013

 --------------------
 #p B2PLYPD3/Def2QZVP
 --------------------

 --------
 acrolein
 --------
 Symbolic Z-matrix:
 Charge =  0 Multiplicity = 1

                         Standard orientation:
 ---------------------------------------------------------------------
 Center     Atomic      Atomic             Coordinates (Angstroms)
 Number     Number       Type             X           Y           Z
 ---------------------------------------------------------------------
      1          6           0        0.640903    0.324304    0.094740
      2          8           0        1.808556   -0.083220   -0.068630
      3          6           0       -0.573266   -0.503201    0.016485
      4          6           0       -1.734518    0.145066   -0.048220
      5          1           0       -0.458270   -1.625763    0.104743
      6          1           0       -1.885000    1.441736   -0.129647
      7          1           0       -2.605515   -0.389190    0.034730
      8          1           0        0.481625    1.441968    0.161187
 ---------------------------------------------------------------------

 SCF Done:  E(RB2PLYPD3) =  -191.580419654     A.U. after   14 cycles
 E2(B2PLYPD3) =    -0.2509669040D+00 E(B2PLYPD3) =    -0.19183138655826D+03

 The electronic state is 1-A.
 Alpha  occ. eigenvalues --  -19.72745 -10.72197 -10.67201 -10.65621  -1.17212
 Alpha  occ. eigenvalues --   -0.93208  -0.75264  -0.65478  -0.56755  -0.54366
 Alpha  occ. eigenvalues --   -0.49878  -0.45463  -0.45249  -0.34831  -0.33707
 Alpha virt. eigenvalues --   -0.02218   0.04581   0.06500   0.07513   0.09397
 Alpha virt. eigenvalues --    0.11763   0.14106   0.15100   0.16944   0.18581
 Alpha virt. eigenvalues --    0.20066   0.21676   0.24725   0.26382   0.27803

 Mulliken charges:
               1
     1  C    0.164042
     2  O   -0.363588
     3  C   -0.043159
     4  C   -0.120375
     5  H    0.104745
     6  H    0.080126
     7  H    0.107557
     8  H    0.070652
 Sum of Mulliken charges =   0.00000

 Dipole moment (field-independent basis, Debye):
    X=             -3.7368    Y=              0.5714    Z=              0.3467  Tot=              3.7961
 Quadrupole moment (field-independent basis, Debye-Ang):
   XX=            -28.1102   YY=            -21.3276   ZZ=            -25.5323
   XY=              0.6346   XZ=              0.3669   YZ=             -0.2872

 Normal termination of Gaussian 09 at Wed Aug 26 13:28:55 2020.
