 Gaussian 09, Revision D.01,
 Gaussian 09:  ES64L-G09RevD.01 24-Apr-2013

 --------------------
 #p B2PLYPD3/Def2QZVP
 --------------------

 --------
 acrolein
 --------
 Symbolic Z-matrix:
 Charge =  0 Multiplicity = 1

                         Standard orientation:
 ---------------------------------------------------------------------
 Center     Atomic      Atomic             Coordinates (Angstroms)
 Number     Number       Type             X           Y           Z
 ---------------------------------------------------------------------
      1          6           0        0.653563    0.337443    0.030156
      2          8           0        1.794726   -0.104663   -0.018797
      3          6           0       -0.570065   -0.461452    0.020903
      4          6           0       -1.742714    0.150958   -0.022377
      5          1           0       -0.429054   -1.520973    0.007505
      6          1           0       -1.820685    1.189810    0.044708
      7          1           0       -2.660358   -0.373200   -0.035129
      8          1           0        0.507587    1.379974   -0.038798
 ---------------------------------------------------------------------

 SCF Done:  E(RB2PLYPD3) =  -191.613079929     A.U. after   12 cycles
 E2(B2PLYPD3) =    -0.2468383397D+00 E(B2PLYPD3) =    -0.19185991826824D+03

 The electronic state is 1-A.
 Alpha  occ. eigenvalues --  -19.72576 -10.70949 -10.64842 -10.64242  -1.18495
 Alpha  occ. eigenvalues --   -0.93755  -0.76272  -0.68105  -0.57108  -0.56813
 Alpha  occ. eigenvalues --   -0.50547  -0.47498  -0.46271  -0.34877  -0.33803
 Alpha virt. eigenvalues --   -0.01897   0.05795   0.07399   0.08034   0.09752
 Alpha virt. eigenvalues --    0.12855   0.14241   0.15245   0.17488   0.19855
 Alpha virt. eigenvalues --    0.20268   0.21805   0.25197   0.26804   0.28794

 Mulliken charges:
               1
     1  C    0.152077
     2  O   -0.361977
     3  C   -0.031884
     4  C   -0.128499
     5  H    0.107660
     6  H    0.086949
     7  H    0.098871
     8  H    0.076804
 Sum of Mulliken charges =   0.00000

 Dipole moment (field-independent basis, Debye):
    X=             -3.6446    Y=              0.7586    Z=              0.0766  Tot=              3.7235
 Quadrupole moment (field-independent basis, Debye-Ang):
   XX=            -27.5267   YY=            -21.6887   ZZ=            -25.0361
   XY=              0.7325   XZ=              0.0886   YZ=              0.0562

 Normal termination of Gaussian 09 at Wed Aug 26 21:07:35 2020.
