 Gaussian 09, Revision D.01,
 Gaussian 09:  ES64L-G09RevD.01 24-Apr-2013

 --------------------
 #p B2PLYPD3/Def2QZVP
 --------------------

 --------
 acrolein
 --------
 Symbolic Z-matrix:
 Charge =  0 Multiplicity = 1

                         Standard orientation:
 ---------------------------------------------------------------------
 Center     Atomic      Atomic             Coordinates (Angstroms)
 Number     Number       Type             X           Y           Z
 ---------------------------------------------------------------------
      1          6           0       -0.673569    0.356641   -0.004056
      2          8           0       -1.787025   -0.129804    0.007543
      3          6           0        0.561594   -0.441112   -0.023082
      4          6           0        1.757046    0.137301    0.000351
      5          1           0        0.426027   -1.506303    0.033264
      6          1           0        1.822191    1.196745    0.014224
      7          1           0        2.713044   -0.419376    0.047327
      8          1           0       -0.535489    1.450383    0.005561
 ---------------------------------------------------------------------

 SCF Done:  E(RB2PLYPD3) =  -191.616061564     A.U. after   12 cycles
 E2(B2PLYPD3) =    -0.2471641080D+00 E(B2PLYPD3) =    -0.19186322567194D+03

 The electronic state is 1-A.
 Alpha  occ. eigenvalues --  -19.72838 -10.71630 -10.65438 -10.64267  -1.19295
 Alpha  occ. eigenvalues --   -0.93092  -0.75393  -0.67250  -0.56698  -0.56288
 Alpha  occ. eigenvalues --   -0.50613  -0.46865  -0.46579  -0.34742  -0.33911
 Alpha virt. eigenvalues --   -0.01761   0.05726   0.07227   0.08154   0.09771
 Alpha virt. eigenvalues --    0.12479   0.13979   0.15356   0.17545   0.19892
 Alpha virt. eigenvalues --    0.19929   0.21470   0.25491   0.26432   0.28939

 Mulliken charges:
               1
     1  C    0.154376
     2  O   -0.351399
     3  C   -0.038306
     4  C   -0.130023
     5  H    0.107270
     6  H    0.083630
     7  H    0.101301
     8  H    0.073152
 Sum of Mulliken charges =   0.00000

 Dipole moment (field-independent basis, Debye):
    X=              3.4787    Y=              0.8113    Z=              0.0651  Tot=              3.5727
 Quadrupole moment (field-independent basis, Debye-Ang):
   XX=            -27.3676   YY=            -21.7970   ZZ=            -25.1977
   XY=             -0.9917   XZ=              0.2019   YZ=             -0.0656

 Normal termination of Gaussian 09 at Wed Aug 26 21:04:28 2020.
