 Gaussian 09, Revision D.01,
 Gaussian 09:  ES64L-G09RevD.01 24-Apr-2013

 --------------------
 #p B2PLYPD3/Def2QZVP
 --------------------

 --------
 acrolein
 --------
 Symbolic Z-matrix:
 Charge =  0 Multiplicity = 1

                         Standard orientation:
 ---------------------------------------------------------------------
 Center     Atomic      Atomic             Coordinates (Angstroms)
 Number     Number       Type             X           Y           Z
 ---------------------------------------------------------------------
      1          6           0        0.665889    0.400986    0.067708
      2          8           0        1.770765   -0.156021   -0.044979
      3          6           0       -0.557078   -0.428270    0.057438
      4          6           0       -1.741580    0.116240   -0.025608
      5          1           0       -0.368148   -1.526749   -0.027356
      6          1           0       -1.792764    1.202239   -0.014254
      7          1           0       -2.721830   -0.448634   -0.110019
      8          1           0        0.513232    1.487575   -0.085761
 ---------------------------------------------------------------------

 SCF Done:  E(RB2PLYPD3) =  -191.605998967     A.U. after   13 cycles
 E2(B2PLYPD3) =    -0.2490672083D+00 E(B2PLYPD3) =    -0.19185506617494D+03

 The electronic state is 1-A.
 Alpha  occ. eigenvalues --  -19.73088 -10.72294 -10.65442 -10.64370  -1.17935
 Alpha  occ. eigenvalues --   -0.93244  -0.74943  -0.66709  -0.56233  -0.55827
 Alpha  occ. eigenvalues --   -0.50336  -0.46116  -0.45356  -0.34978  -0.34041
 Alpha virt. eigenvalues --   -0.01825   0.05585   0.06853   0.07520   0.09863
 Alpha virt. eigenvalues --    0.12201   0.13838   0.15290   0.17366   0.19503
 Alpha virt. eigenvalues --    0.20040   0.21386   0.25073   0.27025   0.29186

 Mulliken charges:
               1
     1  C    0.166471
     2  O   -0.362495
     3  C   -0.048437
     4  C   -0.124419
     5  H    0.110530
     6  H    0.075088
     7  H    0.102062
     8  H    0.081199
 Sum of Mulliken charges =   0.00000

 Dipole moment (field-independent basis, Debye):
    X=             -3.4146    Y=              0.9608    Z=              0.0091  Tot=              3.5473
 Quadrupole moment (field-independent basis, Debye-Ang):
   XX=            -27.6344   YY=            -21.6555   ZZ=            -25.2862
   XY=              1.1753   XZ=              0.4969   YZ=              0.0797

 Normal termination of Gaussian 09 at Wed Aug 26 11:40:55 2020.
