 Gaussian 09, Revision D.01,
 Gaussian 09:  ES64L-G09RevD.01 24-Apr-2013

 --------------------
 #p B2PLYPD3/Def2QZVP
 --------------------

 --------
 acrolein
 --------
 Symbolic Z-matrix:
 Charge =  0 Multiplicity = 1

                         Standard orientation:
 ---------------------------------------------------------------------
 Center     Atomic      Atomic             Coordinates (Angstroms)
 Number     Number       Type             X           Y           Z
 ---------------------------------------------------------------------
      1          6           0        0.681724    0.350623   -0.033320
      2          8           0        1.787109   -0.125588    0.027459
      3          6           0       -0.555199   -0.443230   -0.013163
      4          6           0       -1.761414    0.131084    0.003602
      5          1           0       -0.444120   -1.496562   -0.031363
      6          1           0       -1.872202    1.221884    0.084514
      7          1           0       -2.661146   -0.437781    0.034957
      8          1           0        0.489929    1.486305   -0.050498
 ---------------------------------------------------------------------

 SCF Done:  E(RB2PLYPD3) =  -191.614928216     A.U. after   12 cycles
 E2(B2PLYPD3) =    -0.2472430639D+00 E(B2PLYPD3) =    -0.19186217128002D+03

 The electronic state is 1-A.
 Alpha  occ. eigenvalues --  -19.73074 -10.72036 -10.65480 -10.64183  -1.20023
 Alpha  occ. eigenvalues --   -0.92887  -0.75465  -0.66611  -0.56778  -0.56073
 Alpha  occ. eigenvalues --   -0.50821  -0.47077  -0.46953  -0.34663  -0.33832
 Alpha virt. eigenvalues --   -0.01805   0.05754   0.07223   0.08242   0.09756
 Alpha virt. eigenvalues --    0.12538   0.13844   0.15372   0.17578   0.19651
 Alpha virt. eigenvalues --    0.19956   0.21666   0.25414   0.26396   0.28571

 Mulliken charges:
               1
     1  C    0.161636
     2  O   -0.341590
     3  C   -0.040353
     4  C   -0.128971
     5  H    0.105633
     6  H    0.081847
     7  H    0.102496
     8  H    0.059302
 Sum of Mulliken charges =   0.00000

 Dipole moment (field-independent basis, Debye):
    X=             -3.4414    Y=              0.6973    Z=             -0.0394  Tot=              3.5116
 Quadrupole moment (field-independent basis, Debye-Ang):
   XX=            -27.2694   YY=            -21.8961   ZZ=            -25.2255
   XY=              0.8817   XZ=             -0.3346   YZ=              0.1098

 Normal termination of Gaussian 09 at Wed Aug 26 16:04:21 2020.
