 Gaussian 09, Revision D.01,
 Gaussian 09:  ES64L-G09RevD.01 24-Apr-2013

 --------------------
 #p B2PLYPD3/Def2QZVP
 --------------------

 --------
 acrolein
 --------
 Symbolic Z-matrix:
 Charge =  0 Multiplicity = 1

                         Standard orientation:
 ---------------------------------------------------------------------
 Center     Atomic      Atomic             Coordinates (Angstroms)
 Number     Number       Type             X           Y           Z
 ---------------------------------------------------------------------
      1          6           0       -0.651530    0.331031   -0.010053
      2          8           0       -1.790988   -0.100969    0.011398
      3          6           0        0.560854   -0.456408   -0.010734
      4          6           0        1.755697    0.147266    0.008175
      5          1           0        0.441448   -1.568302    0.023252
      6          1           0        1.817227    1.288187    0.084652
      7          1           0        2.638975   -0.400505   -0.049760
      8          1           0       -0.559869    1.357040   -0.073655
 ---------------------------------------------------------------------

 SCF Done:  E(RB2PLYPD3) =  -191.607584040     A.U. after   13 cycles
 E2(B2PLYPD3) =    -0.2473748564D+00 E(B2PLYPD3) =    -0.19185495889648D+03

 The electronic state is 1-A.
 Alpha  occ. eigenvalues --  -19.72289 -10.70429 -10.66050 -10.64850  -1.18760
 Alpha  occ. eigenvalues --   -0.93259  -0.76191  -0.67387  -0.56778  -0.56509
 Alpha  occ. eigenvalues --   -0.50308  -0.46712  -0.46301  -0.34612  -0.33772
 Alpha virt. eigenvalues --   -0.02099   0.05636   0.07035   0.08329   0.09661
 Alpha virt. eigenvalues --    0.12491   0.14104   0.15350   0.17387   0.19245
 Alpha virt. eigenvalues --    0.20139   0.21754   0.25368   0.26548   0.29200

 Mulliken charges:
               1
     1  C    0.156522
     2  O   -0.359656
     3  C   -0.036471
     4  C   -0.127847
     5  H    0.100588
     6  H    0.083678
     7  H    0.109082
     8  H    0.074104
 Sum of Mulliken charges =   0.00000

 Dipole moment (field-independent basis, Debye):
    X=              3.6546    Y=              0.7300    Z=             -0.0172  Tot=              3.7268
 Quadrupole moment (field-independent basis, Debye-Ang):
   XX=            -27.6127   YY=            -21.5867   ZZ=            -25.1883
   XY=             -0.9511   XZ=              0.0903   YZ=              0.0657

 Normal termination of Gaussian 09 at Wed Aug 26 09:03:45 2020.
