 Gaussian 09, Revision D.01,
 Gaussian 09:  ES64L-G09RevD.01 24-Apr-2013

 --------------------
 #p B2PLYPD3/Def2QZVP
 --------------------

 --------
 acrolein
 --------
 Symbolic Z-matrix:
 Charge =  0 Multiplicity = 1

                         Standard orientation:
 ---------------------------------------------------------------------
 Center     Atomic      Atomic             Coordinates (Angstroms)
 Number     Number       Type             X           Y           Z
 ---------------------------------------------------------------------
      1          6           0       -0.669185    0.384949   -0.011981
      2          8           0       -1.764458   -0.143315   -0.025933
      3          6           0        0.551854   -0.434489    0.007652
      4          6           0        1.769075    0.125871    0.008462
      5          1           0        0.404701   -1.614880    0.114497
      6          1           0        1.819384    1.227981   -0.179391
      7          1           0        2.613493   -0.392906   -0.028568
      8          1           0       -0.632377    1.468334    0.276136
 ---------------------------------------------------------------------

 SCF Done:  E(RB2PLYPD3) =  -191.595651453     A.U. after   14 cycles
 E2(B2PLYPD3) =    -0.2483513890D+00 E(B2PLYPD3) =    -0.19184400284183D+03

 The electronic state is 1-A.
 Alpha  occ. eigenvalues --  -19.72719 -10.71824 -10.65644 -10.64733  -1.19334
 Alpha  occ. eigenvalues --   -0.92491  -0.75726  -0.65689  -0.57144  -0.56091
 Alpha  occ. eigenvalues --   -0.50675  -0.46650  -0.45123  -0.34531  -0.33760
 Alpha virt. eigenvalues --   -0.01921   0.05933   0.06369   0.07522   0.09672
 Alpha virt. eigenvalues --    0.12458   0.14497   0.15150   0.16891   0.18841
 Alpha virt. eigenvalues --    0.20402   0.22064   0.24534   0.26679   0.28985

 Mulliken charges:
               1
     1  C    0.159508
     2  O   -0.342982
     3  C   -0.060764
     4  C   -0.120081
     5  H    0.101142
     6  H    0.074576
     7  H    0.106903
     8  H    0.081698
 Sum of Mulliken charges =   0.00000

 Dipole moment (field-independent basis, Debye):
    X=              3.3273    Y=              0.8470    Z=              0.0721  Tot=              3.4342
 Quadrupole moment (field-independent basis, Debye-Ang):
   XX=            -27.4552   YY=            -21.6407   ZZ=            -25.2588
   XY=             -1.2910   XZ=             -0.4785   YZ=             -0.2322

 Normal termination of Gaussian 09 at Wed Aug 26 13:56:44 2020.
