 Gaussian 09, Revision D.01,
 Gaussian 09:  ES64L-G09RevD.01 24-Apr-2013

 --------------------
 #p B2PLYPD3/Def2QZVP
 --------------------

 --------
 acrolein
 --------
 Symbolic Z-matrix:
 Charge =  0 Multiplicity = 1

                         Standard orientation:
 ---------------------------------------------------------------------
 Center     Atomic      Atomic             Coordinates (Angstroms)
 Number     Number       Type             X           Y           Z
 ---------------------------------------------------------------------
      1          6           0        0.669786    0.350943   -0.001773
      2          8           0        1.788509   -0.119368    0.006808
      3          6           0       -0.559990   -0.461620   -0.018651
      4          6           0       -1.742766    0.147709   -0.001155
      5          1           0       -0.474132   -1.544430    0.025028
      6          1           0       -1.826221    1.227228    0.025360
      7          1           0       -2.709534   -0.397436    0.037129
      8          1           0        0.499630    1.447386   -0.012513
 ---------------------------------------------------------------------

 SCF Done:  E(RB2PLYPD3) =  -191.615954817     A.U. after   12 cycles
 E2(B2PLYPD3) =    -0.2474396602D+00 E(B2PLYPD3) =    -0.19186339447698D+03

 The electronic state is 1-A.
 Alpha  occ. eigenvalues --  -19.72816 -10.71743 -10.65678 -10.64500  -1.19338
 Alpha  occ. eigenvalues --   -0.92991  -0.75023  -0.67030  -0.56532  -0.56091
 Alpha  occ. eigenvalues --   -0.50423  -0.46773  -0.46581  -0.34721  -0.33873
 Alpha virt. eigenvalues --   -0.01646   0.05690   0.07069   0.08017   0.09678
 Alpha virt. eigenvalues --    0.12538   0.14114   0.15327   0.17456   0.19859
 Alpha virt. eigenvalues --    0.19986   0.21322   0.25444   0.26377   0.28776

 Mulliken charges:
               1
     1  C    0.153417
     2  O   -0.348500
     3  C   -0.038476
     4  C   -0.127025
     5  H    0.106783
     6  H    0.082412
     7  H    0.097289
     8  H    0.074099
 Sum of Mulliken charges =   0.00000

 Dipole moment (field-independent basis, Debye):
    X=             -3.5000    Y=              0.7677    Z=              0.0560  Tot=              3.5836
 Quadrupole moment (field-independent basis, Debye-Ang):
   XX=            -27.4852   YY=            -21.7018   ZZ=            -25.2569
   XY=              0.8903   XZ=             -0.1879   YZ=             -0.0406

 Normal termination of Gaussian 09 at Wed Aug 26 11:00:47 2020.
