 Gaussian 09, Revision D.01,
 Gaussian 09:  ES64L-G09RevD.01 24-Apr-2013

 --------------------
 #p B2PLYPD3/Def2QZVP
 --------------------

 --------
 acrolein
 --------
 Symbolic Z-matrix:
 Charge =  0 Multiplicity = 1

                         Standard orientation:
 ---------------------------------------------------------------------
 Center     Atomic      Atomic             Coordinates (Angstroms)
 Number     Number       Type             X           Y           Z
 ---------------------------------------------------------------------
      1          6           0       -0.653633    0.336670   -0.026003
      2          8           0       -1.805971   -0.099164    0.024723
      3          6           0        0.588581   -0.459777   -0.029447
      4          6           0        1.756117    0.148577    0.007689
      5          1           0        0.392092   -1.603630   -0.023575
      6          1           0        1.865498    1.246504   -0.011080
      7          1           0        2.597554   -0.380252    0.119459
      8          1           0       -0.553761    1.377873    0.003977
 ---------------------------------------------------------------------

 SCF Done:  E(RB2PLYPD3) =  -191.602765402     A.U. after   13 cycles
 E2(B2PLYPD3) =    -0.2476891399D+00 E(B2PLYPD3) =    -0.19185045454211D+03

 The electronic state is 1-A.
 Alpha  occ. eigenvalues --  -19.72589 -10.71061 -10.65350 -10.64844  -1.18009
 Alpha  occ. eigenvalues --   -0.93565  -0.76431  -0.67001  -0.57180  -0.56530
 Alpha  occ. eigenvalues --   -0.50400  -0.46477  -0.45884  -0.35023  -0.33750
 Alpha virt. eigenvalues --   -0.01895   0.05746   0.06996   0.08045   0.09641
 Alpha virt. eigenvalues --    0.12638   0.14172   0.15244   0.17016   0.19639
 Alpha virt. eigenvalues --    0.20000   0.22185   0.25194   0.26718   0.28674

 Mulliken charges:
               1
     1  C    0.160899
     2  O   -0.365228
     3  C   -0.039008
     4  C   -0.124810
     5  H    0.098649
     6  H    0.086676
     7  H    0.106642
     8  H    0.076179
 Sum of Mulliken charges =   0.00000

 Dipole moment (field-independent basis, Debye):
    X=              3.6598    Y=              0.7728    Z=             -0.0103  Tot=              3.7405
 Quadrupole moment (field-independent basis, Debye-Ang):
   XX=            -27.7276   YY=            -21.5579   ZZ=            -25.1557
   XY=             -0.6712   XZ=              0.3850   YZ=             -0.0503

 Normal termination of Gaussian 09 at Wed Aug 26 10:30:40 2020.
