 Gaussian 09, Revision D.01,
 Gaussian 09:  ES64L-G09RevD.01 24-Apr-2013

 --------------------
 #p B2PLYPD3/Def2QZVP
 --------------------

 --------
 acrolein
 --------
 Symbolic Z-matrix:
 Charge =  0 Multiplicity = 1

                         Standard orientation:
 ---------------------------------------------------------------------
 Center     Atomic      Atomic             Coordinates (Angstroms)
 Number     Number       Type             X           Y           Z
 ---------------------------------------------------------------------
      1          6           0       -0.661938    0.350508   -0.026728
      2          8           0       -1.791322   -0.119771    0.020753
      3          6           0        0.561949   -0.451419   -0.025472
      4          6           0        1.744336    0.142957    0.008572
      5          1           0        0.424973   -1.530831    0.000979
      6          1           0        1.816115    1.203138   -0.000498
      7          1           0        2.718087   -0.411369    0.073155
      8          1           0       -0.494678    1.444955    0.022106
 ---------------------------------------------------------------------

 SCF Done:  E(RB2PLYPD3) =  -191.614445286     A.U. after   12 cycles
 E2(B2PLYPD3) =    -0.2478095742D+00 E(B2PLYPD3) =    -0.19186225486048D+03

 The electronic state is 1-A.
 Alpha  occ. eigenvalues --  -19.72834 -10.71728 -10.65668 -10.64430  -1.18705
 Alpha  occ. eigenvalues --   -0.93397  -0.75401  -0.67119  -0.56636  -0.56074
 Alpha  occ. eigenvalues --   -0.50362  -0.46679  -0.46431  -0.34864  -0.33905
 Alpha virt. eigenvalues --   -0.01871   0.05661   0.07075   0.08040   0.09747
 Alpha virt. eigenvalues --    0.12520   0.13992   0.15290   0.17375   0.19850
 Alpha virt. eigenvalues --    0.20060   0.21409   0.25381   0.26563   0.28883

 Mulliken charges:
               1
     1  C    0.155337
     2  O   -0.357128
     3  C   -0.032683
     4  C   -0.128475
     5  H    0.107332
     6  H    0.085738
     7  H    0.099139
     8  H    0.070739
 Sum of Mulliken charges =   0.00000

 Dipole moment (field-independent basis, Debye):
    X=              3.5726    Y=              0.7746    Z=             -0.0053  Tot=              3.6556
 Quadrupole moment (field-independent basis, Debye-Ang):
   XX=            -27.5067   YY=            -21.7662   ZZ=            -25.2204
   XY=             -0.8411   XZ=              0.2757   YZ=             -0.0415

 Normal termination of Gaussian 09 at Wed Aug 26 15:07:54 2020.
