 Gaussian 09, Revision D.01,
 Gaussian 09:  ES64L-G09RevD.01 24-Apr-2013

 --------------------
 #p B2PLYPD3/Def2QZVP
 --------------------

 --------
 acrolein
 --------
 Symbolic Z-matrix:
 Charge =  0 Multiplicity = 1

                         Standard orientation:
 ---------------------------------------------------------------------
 Center     Atomic      Atomic             Coordinates (Angstroms)
 Number     Number       Type             X           Y           Z
 ---------------------------------------------------------------------
      1          6           0        0.657881    0.331686    0.009036
      2          8           0        1.800564   -0.103892   -0.012322
      3          6           0       -0.562794   -0.457940    0.022853
      4          6           0       -1.750141    0.147603   -0.013771
      5          1           0       -0.427787   -1.544263   -0.003534
      6          1           0       -1.880132    1.251477    0.005428
      7          1           0       -2.683470   -0.427457   -0.027900
      8          1           0        0.517194    1.423293    0.015870
 ---------------------------------------------------------------------

 SCF Done:  E(RB2PLYPD3) =  -191.614577716     A.U. after   13 cycles
 E2(B2PLYPD3) =    -0.2479532070D+00 E(B2PLYPD3) =    -0.19186253092281D+03

 The electronic state is 1-A.
 Alpha  occ. eigenvalues --  -19.72627 -10.71389 -10.66275 -10.64770  -1.18624
 Alpha  occ. eigenvalues --   -0.93269  -0.75633  -0.66796  -0.56603  -0.56065
 Alpha  occ. eigenvalues --   -0.50198  -0.46689  -0.46386  -0.34812  -0.33743
 Alpha virt. eigenvalues --   -0.02082   0.05597   0.07026   0.08242   0.09647
 Alpha virt. eigenvalues --    0.12458   0.13992   0.15272   0.17416   0.19607
 Alpha virt. eigenvalues --    0.20001   0.21495   0.25314   0.26494   0.28635

 Mulliken charges:
               1
     1  C    0.157019
     2  O   -0.358257
     3  C   -0.034965
     4  C   -0.125055
     5  H    0.105740
     6  H    0.088723
     7  H    0.100414
     8  H    0.066381
 Sum of Mulliken charges =   0.00000

 Dipole moment (field-independent basis, Debye):
    X=             -3.6746    Y=              0.7016    Z=              0.0199  Tot=              3.7410
 Quadrupole moment (field-independent basis, Debye-Ang):
   XX=            -27.5293   YY=            -21.7181   ZZ=            -25.2689
   XY=              0.7083   XZ=              0.1253   YZ=              0.0461

 Normal termination of Gaussian 09 at Wed Aug 26 15:27:31 2020.
