 Gaussian 09, Revision D.01,
 Gaussian 09:  ES64L-G09RevD.01 24-Apr-2013

 --------------------
 #p B2PLYPD3/Def2QZVP
 --------------------

 --------
 acrolein
 --------
 Symbolic Z-matrix:
 Charge =  0 Multiplicity = 1

                         Standard orientation:
 ---------------------------------------------------------------------
 Center     Atomic      Atomic             Coordinates (Angstroms)
 Number     Number       Type             X           Y           Z
 ---------------------------------------------------------------------
      1          6           0       -0.667799    0.336406    0.026333
      2          8           0       -1.784872   -0.112385   -0.022789
      3          6           0        0.561661   -0.452159    0.023034
      4          6           0        1.753954    0.151612   -0.025604
      5          1           0        0.444293   -1.527889    0.000762
      6          1           0        1.833971    1.230133   -0.038326
      7          1           0        2.670156   -0.421402    0.026307
      8          1           0       -0.556334    1.403085    0.050985
 ---------------------------------------------------------------------

 SCF Done:  E(RB2PLYPD3) =  -191.616319836     A.U. after   12 cycles
 E2(B2PLYPD3) =    -0.2465378779D+00 E(B2PLYPD3) =    -0.19186285771414D+03

 The electronic state is 1-A.
 Alpha  occ. eigenvalues --  -19.72507 -10.70881 -10.65591 -10.64422  -1.19717
 Alpha  occ. eigenvalues --   -0.93048  -0.75612  -0.67393  -0.56934  -0.56370
 Alpha  occ. eigenvalues --   -0.50489  -0.47200  -0.46840  -0.34657  -0.33701
 Alpha virt. eigenvalues --   -0.01773   0.05772   0.07228   0.08378   0.09738
 Alpha virt. eigenvalues --    0.12595   0.14049   0.15384   0.17585   0.19641
 Alpha virt. eigenvalues --    0.20006   0.21635   0.25467   0.26429   0.28878

 Mulliken charges:
               1
     1  C    0.152673
     2  O   -0.348970
     3  C   -0.037825
     4  C   -0.131286
     5  H    0.105106
     6  H    0.087557
     7  H    0.102420
     8  H    0.070325
 Sum of Mulliken charges =   0.00000

 Dipole moment (field-independent basis, Debye):
    X=              3.5034    Y=              0.7431    Z=              0.0884  Tot=              3.5825
 Quadrupole moment (field-independent basis, Debye-Ang):
   XX=            -27.4355   YY=            -21.6909   ZZ=            -25.1629
   XY=             -0.9203   XZ=             -0.1093   YZ=             -0.0348

 Normal termination of Gaussian 09 at Wed Aug 26 15:11:20 2020.
