 Gaussian 09, Revision D.01,
 Gaussian 09:  ES64L-G09RevD.01 24-Apr-2013

 --------------------
 #p B2PLYPD3/Def2QZVP
 --------------------

 --------
 acrolein
 --------
 Symbolic Z-matrix:
 Charge =  0 Multiplicity = 1

                         Standard orientation:
 ---------------------------------------------------------------------
 Center     Atomic      Atomic             Coordinates (Angstroms)
 Number     Number       Type             X           Y           Z
 ---------------------------------------------------------------------
      1          6           0        0.670850    0.336915   -0.017367
      2          8           0        1.798681   -0.110145    0.008917
      3          6           0       -0.567202   -0.466128   -0.015549
      4          6           0       -1.756305    0.155598    0.008477
      5          1           0       -0.465774   -1.552237    0.020835
      6          1           0       -1.840657    1.221349   -0.028333
      7          1           0       -2.665521   -0.405188    0.033409
      8          1           0        0.498447    1.458920    0.049384
 ---------------------------------------------------------------------

 SCF Done:  E(RB2PLYPD3) =  -191.615422462     A.U. after   12 cycles
 E2(B2PLYPD3) =    -0.2476832053D+00 E(B2PLYPD3) =    -0.19186310566716D+03

 The electronic state is 1-A.
 Alpha  occ. eigenvalues --  -19.72886 -10.71951 -10.65437 -10.64836  -1.19337
 Alpha  occ. eigenvalues --   -0.92909  -0.75432  -0.66617  -0.56466  -0.56321
 Alpha  occ. eigenvalues --   -0.50364  -0.47399  -0.46635  -0.34645  -0.33718
 Alpha virt. eigenvalues --   -0.01875   0.05792   0.07030   0.08038   0.09705
 Alpha virt. eigenvalues --    0.12644   0.14012   0.15309   0.17308   0.19814
 Alpha virt. eigenvalues --    0.20115   0.21604   0.25139   0.26496   0.28605

 Mulliken charges:
               1
     1  C    0.156763
     2  O   -0.347082
     3  C   -0.037677
     4  C   -0.130300
     5  H    0.104723
     6  H    0.089462
     7  H    0.101962
     8  H    0.062148
 Sum of Mulliken charges =   0.00000

 Dipole moment (field-independent basis, Debye):
    X=             -3.5495    Y=              0.6829    Z=              0.0009  Tot=              3.6146
 Quadrupole moment (field-independent basis, Debye-Ang):
   XX=            -27.4816   YY=            -21.7391   ZZ=            -25.2731
   XY=              0.7859   XZ=             -0.0861   YZ=             -0.0702

 Normal termination of Gaussian 09 at Wed Aug 26 19:34:15 2020.
