 Gaussian 09, Revision D.01,
 Gaussian 09:  ES64L-G09RevD.01 24-Apr-2013

 --------------------
 #p B2PLYPD3/Def2QZVP
 --------------------

 --------
 acrolein
 --------
 Symbolic Z-matrix:
 Charge =  0 Multiplicity = 1

                         Standard orientation:
 ---------------------------------------------------------------------
 Center     Atomic      Atomic             Coordinates (Angstroms)
 Number     Number       Type             X           Y           Z
 ---------------------------------------------------------------------
      1          6           0        0.683612    0.362710   -0.032910
      2          8           0        1.770200   -0.134834    0.015514
      3          6           0       -0.536869   -0.444649   -0.019650
      4          6           0       -1.754237    0.127802    0.015437
      5          1           0       -0.450872   -1.551296    0.029983
      6          1           0       -1.817480    1.252696   -0.027034
      7          1           0       -2.746178   -0.420211    0.021200
      8          1           0        0.497891    1.522306    0.074479
 ---------------------------------------------------------------------

 SCF Done:  E(RB2PLYPD3) =  -191.607616577     A.U. after   13 cycles
 E2(B2PLYPD3) =    -0.2482184958D+00 E(B2PLYPD3) =    -0.19185583507320D+03

 The electronic state is 1-A.
 Alpha  occ. eigenvalues --  -19.73078 -10.72257 -10.66494 -10.64766  -1.20701
 Alpha  occ. eigenvalues --   -0.92303  -0.74494  -0.65663  -0.56266  -0.55708
 Alpha  occ. eigenvalues --   -0.50402  -0.47501  -0.45674  -0.34530  -0.33808
 Alpha virt. eigenvalues --   -0.01725   0.05589   0.06760   0.08090   0.09713
 Alpha virt. eigenvalues --    0.12178   0.13974   0.15373   0.17348   0.19514
 Alpha virt. eigenvalues --    0.19994   0.21059   0.25279   0.26392   0.28907

 Mulliken charges:
               1
     1  C    0.162182
     2  O   -0.331455
     3  C   -0.044374
     4  C   -0.125569
     5  H    0.104895
     6  H    0.074480
     7  H    0.103117
     8  H    0.056723
 Sum of Mulliken charges =   0.00000

 Dipole moment (field-independent basis, Debye):
    X=             -3.3449    Y=              0.7068    Z=             -0.0241  Tot=              3.4188
 Quadrupole moment (field-independent basis, Debye-Ang):
   XX=            -27.1227   YY=            -21.9557   ZZ=            -25.4273
   XY=              1.0538   XZ=             -0.0988   YZ=             -0.0646

 Normal termination of Gaussian 09 at Wed Aug 26 10:09:34 2020.
