 Gaussian 09, Revision D.01,
 Gaussian 09:  ES64L-G09RevD.01 24-Apr-2013

 --------------------
 #p B2PLYPD3/Def2QZVP
 --------------------

 --------
 acrolein
 --------
 Symbolic Z-matrix:
 Charge =  0 Multiplicity = 1

                         Standard orientation:
 ---------------------------------------------------------------------
 Center     Atomic      Atomic             Coordinates (Angstroms)
 Number     Number       Type             X           Y           Z
 ---------------------------------------------------------------------
      1          6           0       -0.666056    0.353206   -0.050977
      2          8           0       -1.764152   -0.138446    0.063531
      3          6           0        0.525998   -0.391540   -0.060606
      4          6           0        1.743364    0.136426    0.025296
      5          1           0        0.456915   -1.463650   -0.057852
      6          1           0        1.750654    1.076030    0.218311
      7          1           0        2.804777   -0.444740    0.055802
      8          1           0       -0.518969    1.351373   -0.206791
 ---------------------------------------------------------------------

 SCF Done:  E(RB2PLYPD3) =  -191.582978369     A.U. after   13 cycles
 E2(B2PLYPD3) =    -0.2467160453D+00 E(B2PLYPD3) =    -0.19182969441442D+03

 The electronic state is 1-A.
 Alpha  occ. eigenvalues --  -19.72519 -10.70163 -10.65399 -10.63450  -1.19614
 Alpha  occ. eigenvalues --   -0.94332  -0.77055  -0.68843  -0.58420  -0.55586
 Alpha  occ. eigenvalues --   -0.50472  -0.47018  -0.46317  -0.34576  -0.34195
 Alpha virt. eigenvalues --   -0.02310   0.05424   0.07276   0.08611   0.09735
 Alpha virt. eigenvalues --    0.12544   0.14148   0.15486   0.17703   0.19079
 Alpha virt. eigenvalues --    0.20456   0.21265   0.25367   0.26493   0.28988

 Mulliken charges:
               1
     1  C    0.138132
     2  O   -0.353874
     3  C   -0.019023
     4  C   -0.135668
     5  H    0.101816
     6  H    0.086578
     7  H    0.099485
     8  H    0.082555
 Sum of Mulliken charges =   0.00000

 Dipole moment (field-independent basis, Debye):
    X=              3.5402    Y=              0.8840    Z=             -0.0857  Tot=              3.6499
 Quadrupole moment (field-independent basis, Debye-Ang):
   XX=            -27.0223   YY=            -22.0482   ZZ=            -24.9104
   XY=             -1.2398   XZ=              0.7736   YZ=              0.1746

 Normal termination of Gaussian 09 at Wed Aug 26 12:22:57 2020.
