 Gaussian 09, Revision D.01,
 Gaussian 09:  ES64L-G09RevD.01 24-Apr-2013

 --------------------
 #p B2PLYPD3/Def2QZVP
 --------------------

 --------
 acrolein
 --------
 Symbolic Z-matrix:
 Charge =  0 Multiplicity = 1

                         Standard orientation:
 ---------------------------------------------------------------------
 Center     Atomic      Atomic             Coordinates (Angstroms)
 Number     Number       Type             X           Y           Z
 ---------------------------------------------------------------------
      1          6           0        0.671463    0.345451    0.035148
      2          8           0        1.802639   -0.108844   -0.034745
      3          6           0       -0.593279   -0.471799    0.037286
      4          6           0       -1.744415    0.156145   -0.035230
      5          1           0       -0.479801   -1.564801    0.003028
      6          1           0       -1.825876    1.288389   -0.069298
      7          1           0       -2.628410   -0.395112    0.020198
      8          1           0        0.510362    1.363488    0.100808
 ---------------------------------------------------------------------

 SCF Done:  E(RB2PLYPD3) =  -191.608733319     A.U. after   13 cycles
 E2(B2PLYPD3) =    -0.2470552061D+00 E(B2PLYPD3) =    -0.19185578852470D+03

 The electronic state is 1-A.
 Alpha  occ. eigenvalues --  -19.72840 -10.71212 -10.65127 -10.64513  -1.18815
 Alpha  occ. eigenvalues --   -0.93186  -0.75498  -0.67480  -0.56643  -0.56175
 Alpha  occ. eigenvalues --   -0.50831  -0.46654  -0.46161  -0.35037  -0.33806
 Alpha virt. eigenvalues --   -0.01373   0.05717   0.07172   0.07827   0.09656
 Alpha virt. eigenvalues --    0.12620   0.14009   0.15400   0.17516   0.19192
 Alpha virt. eigenvalues --    0.20069   0.21810   0.25347   0.26833   0.28604

 Mulliken charges:
               1
     1  C    0.159286
     2  O   -0.354410
     3  C   -0.050088
     4  C   -0.125940
     5  H    0.103367
     6  H    0.079916
     7  H    0.102109
     8  H    0.085760
 Sum of Mulliken charges =   0.00000

 Dipole moment (field-independent basis, Debye):
    X=             -3.4776    Y=              0.7875    Z=              0.1217  Tot=              3.5677
 Quadrupole moment (field-independent basis, Debye-Ang):
   XX=            -27.8678   YY=            -21.4770   ZZ=            -25.1747
   XY=              0.8779   XZ=              0.2333   YZ=             -0.0346

 Normal termination of Gaussian 09 at Wed Aug 26 10:03:26 2020.
