 Gaussian 09, Revision D.01,
 Gaussian 09:  ES64L-G09RevD.01 24-Apr-2013

 --------------------
 #p B2PLYPD3/Def2QZVP
 --------------------

 --------
 acrolein
 --------
 Symbolic Z-matrix:
 Charge =  0 Multiplicity = 1

                         Standard orientation:
 ---------------------------------------------------------------------
 Center     Atomic      Atomic             Coordinates (Angstroms)
 Number     Number       Type             X           Y           Z
 ---------------------------------------------------------------------
      1          6           0        0.659871    0.335209    0.023172
      2          8           0        1.792027   -0.107942   -0.018551
      3          6           0       -0.562595   -0.457247    0.015854
      4          6           0       -1.745908    0.151409   -0.014889
      5          1           0       -0.468793   -1.528205    0.022894
      6          1           0       -1.816613    1.235889    0.003976
      7          1           0       -2.680680   -0.399901   -0.031806
      8          1           0        0.521660    1.379526    0.008518
 ---------------------------------------------------------------------

 SCF Done:  E(RB2PLYPD3) =  -191.615455184     A.U. after   12 cycles
 E2(B2PLYPD3) =    -0.2468876485D+00 E(B2PLYPD3) =    -0.19186234283294D+03

 The electronic state is 1-A.
 Alpha  occ. eigenvalues --  -19.72520 -10.70864 -10.65648 -10.64292  -1.18982
 Alpha  occ. eigenvalues --   -0.93398  -0.75793  -0.67785  -0.56905  -0.56424
 Alpha  occ. eigenvalues --   -0.50429  -0.47093  -0.46524  -0.34749  -0.33845
 Alpha virt. eigenvalues --   -0.01852   0.05713   0.07230   0.08248   0.09681
 Alpha virt. eigenvalues --    0.12668   0.14190   0.15299   0.17606   0.19814
 Alpha virt. eigenvalues --    0.20012   0.21486   0.25451   0.26548   0.28944

 Mulliken charges:
               1
     1  C    0.150975
     2  O   -0.356194
     3  C   -0.032267
     4  C   -0.130304
     5  H    0.105129
     6  H    0.084988
     7  H    0.101314
     8  H    0.076359
 Sum of Mulliken charges =   0.00000

 Dipole moment (field-independent basis, Debye):
    X=             -3.6060    Y=              0.7503    Z=              0.0680  Tot=              3.6838
 Quadrupole moment (field-independent basis, Debye-Ang):
   XX=            -27.5219   YY=            -21.6716   ZZ=            -25.1366
   XY=              0.9010   XZ=              0.1465   YZ=             -0.0007

 Normal termination of Gaussian 09 at Wed Aug 26 20:15:17 2020.
