 Gaussian 09, Revision D.01,
 Gaussian 09:  ES64L-G09RevD.01 24-Apr-2013

 --------------------
 #p B2PLYPD3/Def2QZVP
 --------------------

 --------
 acrolein
 --------
 Symbolic Z-matrix:
 Charge =  0 Multiplicity = 1

                         Standard orientation:
 ---------------------------------------------------------------------
 Center     Atomic      Atomic             Coordinates (Angstroms)
 Number     Number       Type             X           Y           Z
 ---------------------------------------------------------------------
      1          6           0       -0.664783    0.347441   -0.017741
      2          8           0       -1.784180   -0.125539    0.019220
      3          6           0        0.545578   -0.436232   -0.011194
      4          6           0        1.756390    0.130360    0.004026
      5          1           0        0.427210   -1.502894   -0.021605
      6          1           0        1.790827    1.203798    0.087628
      7          1           0        2.709308   -0.427704    0.005188
      8          1           0       -0.477014    1.481699   -0.075520
 ---------------------------------------------------------------------

 SCF Done:  E(RB2PLYPD3) =  -191.613667760     A.U. after   13 cycles
 E2(B2PLYPD3) =    -0.2480053913D+00 E(B2PLYPD3) =    -0.19186167315176D+03

 The electronic state is 1-A.
 Alpha  occ. eigenvalues --  -19.72937 -10.71919 -10.65913 -10.64204  -1.19320
 Alpha  occ. eigenvalues --   -0.93359  -0.75702  -0.66631  -0.56565  -0.56148
 Alpha  occ. eigenvalues --   -0.50501  -0.46854  -0.46766  -0.34665  -0.33945
 Alpha virt. eigenvalues --   -0.02166   0.05693   0.07036   0.08335   0.09817
 Alpha virt. eigenvalues --    0.12502   0.13809   0.15334   0.17404   0.19660
 Alpha virt. eigenvalues --    0.20146   0.21369   0.25437   0.26383   0.28999

 Mulliken charges:
               1
     1  C    0.156491
     2  O   -0.350167
     3  C   -0.027270
     4  C   -0.129242
     5  H    0.104320
     6  H    0.082470
     7  H    0.106063
     8  H    0.057334
 Sum of Mulliken charges =   0.00000

 Dipole moment (field-independent basis, Debye):
    X=              3.5715    Y=              0.6922    Z=             -0.0268  Tot=              3.6381
 Quadrupole moment (field-independent basis, Debye-Ang):
   XX=            -27.2531   YY=            -21.9766   ZZ=            -25.2345
   XY=             -0.9846   XZ=              0.2267   YZ=              0.1011

 Normal termination of Gaussian 09 at Wed Aug 26 16:17:39 2020.
