 Gaussian 09, Revision D.01,
 Gaussian 09:  ES64L-G09RevD.01 24-Apr-2013

 --------------------
 #p B2PLYPD3/Def2QZVP
 --------------------

 --------
 acrolein
 --------
 Symbolic Z-matrix:
 Charge =  0 Multiplicity = 1

                         Standard orientation:
 ---------------------------------------------------------------------
 Center     Atomic      Atomic             Coordinates (Angstroms)
 Number     Number       Type             X           Y           Z
 ---------------------------------------------------------------------
      1          6           0        0.648747    0.322017    0.066280
      2          8           0        1.810331   -0.109219   -0.063277
      3          6           0       -0.582183   -0.470295    0.005767
      4          6           0       -1.717621    0.149172   -0.049244
      5          1           0       -0.573025   -1.448271    0.255016
      6          1           0       -1.819626    1.262991   -0.091586
      7          1           0       -2.542435   -0.452608   -0.026425
      8          1           0        0.358784    1.506279    0.232389
 ---------------------------------------------------------------------

 SCF Done:  E(RB2PLYPD3) =  -191.589967894     A.U. after   13 cycles
 E2(B2PLYPD3) =    -0.2495048260D+00 E(B2PLYPD3) =    -0.19183947271977D+03

 The electronic state is 1-A.
 Alpha  occ. eigenvalues --  -19.73489 -10.73340 -10.64705 -10.63329  -1.17696
 Alpha  occ. eigenvalues --   -0.94975  -0.75730  -0.66893  -0.57287  -0.55026
 Alpha  occ. eigenvalues --   -0.50350  -0.48079  -0.45487  -0.35567  -0.33738
 Alpha virt. eigenvalues --   -0.01901   0.05690   0.06567   0.07690   0.09710
 Alpha virt. eigenvalues --    0.12767   0.13290   0.14610   0.17885   0.19202
 Alpha virt. eigenvalues --    0.20065   0.21658   0.24776   0.27001   0.28570

 Mulliken charges:
               1
     1  C    0.158637
     2  O   -0.353615
     3  C   -0.019569
     4  C   -0.112508
     5  H    0.099223
     6  H    0.087221
     7  H    0.095022
     8  H    0.045591
 Sum of Mulliken charges =   0.00000

 Dipole moment (field-independent basis, Debye):
    X=             -3.7220    Y=              0.5432    Z=              0.4232  Tot=              3.7851
 Quadrupole moment (field-independent basis, Debye-Ang):
   XX=            -27.9038   YY=            -21.9072   ZZ=            -25.0520
   XY=              0.7282   XZ=              0.2698   YZ=             -0.3728

 Normal termination of Gaussian 09 at Wed Aug 26 10:50:59 2020.
