 Gaussian 09, Revision D.01,
 Gaussian 09:  ES64L-G09RevD.01 24-Apr-2013

 --------------------
 #p B2PLYPD3/Def2QZVP
 --------------------

 --------
 acrolein
 --------
 Symbolic Z-matrix:
 Charge =  0 Multiplicity = 1

                         Standard orientation:
 ---------------------------------------------------------------------
 Center     Atomic      Atomic             Coordinates (Angstroms)
 Number     Number       Type             X           Y           Z
 ---------------------------------------------------------------------
      1          6           0       -0.658628    0.326629    0.030527
      2          8           0       -1.799164   -0.096829   -0.057342
      3          6           0        0.588810   -0.459913    0.036897
      4          6           0        1.770342    0.141176   -0.018955
      5          1           0        0.449981   -1.604267    0.125475
      6          1           0        1.893981    1.346851   -0.150255
      7          1           0        2.490686   -0.373858   -0.089759
      8          1           0       -0.644479    1.358550    0.282462
 ---------------------------------------------------------------------

 SCF Done:  E(RB2PLYPD3) =  -191.560786411     A.U. after   13 cycles
 E2(B2PLYPD3) =    -0.2476507292D+00 E(B2PLYPD3) =    -0.19180843713989D+03

 The electronic state is 1-A.
 Alpha  occ. eigenvalues --  -19.72476 -10.71000 -10.65519 -10.64700  -1.18841
 Alpha  occ. eigenvalues --   -0.93576  -0.77193  -0.66417  -0.58092  -0.55799
 Alpha  occ. eigenvalues --   -0.50683  -0.46665  -0.45553  -0.35040  -0.33466
 Alpha virt. eigenvalues --   -0.01841   0.05610   0.06772   0.07914   0.09475
 Alpha virt. eigenvalues --    0.12322   0.14381   0.15112   0.17148   0.18858
 Alpha virt. eigenvalues --    0.20063   0.22617   0.24667   0.26389   0.28878

 Mulliken charges:
               1
     1  C    0.158996
     2  O   -0.352503
     3  C   -0.050903
     4  C   -0.150182
     5  H    0.097191
     6  H    0.085446
     7  H    0.133993
     8  H    0.077961
 Sum of Mulliken charges =   0.00000

 Dipole moment (field-independent basis, Debye):
    X=              3.5265    Y=              0.6692    Z=              0.1781  Tot=              3.5938
 Quadrupole moment (field-independent basis, Debye-Ang):
   XX=            -27.7718   YY=            -21.4835   ZZ=            -25.1369
   XY=             -0.9107   XZ=             -0.7551   YZ=             -0.2200

 Normal termination of Gaussian 09 at Wed Aug 26 11:42:10 2020.
