 Gaussian 09, Revision D.01,
 Gaussian 09:  ES64L-G09RevD.01 24-Apr-2013

 --------------------
 #p B2PLYPD3/Def2QZVP
 --------------------

 --------
 acrolein
 --------
 Symbolic Z-matrix:
 Charge =  0 Multiplicity = 1

                         Standard orientation:
 ---------------------------------------------------------------------
 Center     Atomic      Atomic             Coordinates (Angstroms)
 Number     Number       Type             X           Y           Z
 ---------------------------------------------------------------------
      1          6           0       -0.668751    0.323139    0.031804
      2          8           0       -1.791375   -0.080673   -0.042023
      3          6           0        0.534592   -0.484601    0.074556
      4          6           0        1.759623    0.138275   -0.041961
      5          1           0        0.498233   -1.583613   -0.038181
      6          1           0        1.990449    1.414703   -0.023339
      7          1           0        2.570610   -0.436882   -0.065480
      8          1           0       -0.481079    1.390296    0.076787
 ---------------------------------------------------------------------

 SCF Done:  E(RB2PLYPD3) =  -191.582985184     A.U. after   13 cycles
 E2(B2PLYPD3) =    -0.2485107257D+00 E(B2PLYPD3) =    -0.19183149591010D+03

 The electronic state is 1-A.
 Alpha  occ. eigenvalues --  -19.72407 -10.70824 -10.67417 -10.65329  -1.20179
 Alpha  occ. eigenvalues --   -0.92324  -0.76045  -0.66269  -0.56744  -0.55325
 Alpha  occ. eigenvalues --   -0.50361  -0.47116  -0.45712  -0.34207  -0.33644
 Alpha virt. eigenvalues --   -0.02247   0.04938   0.06849   0.08298   0.09370
 Alpha virt. eigenvalues --    0.11968   0.13967   0.15393   0.17723   0.18660
 Alpha virt. eigenvalues --    0.19974   0.21801   0.24664   0.26533   0.28226

 Mulliken charges:
               1
     1  C    0.160038
     2  O   -0.341501
     3  C   -0.049042
     4  C   -0.130417
     5  H    0.101236
     6  H    0.081876
     7  H    0.109776
     8  H    0.068034
 Sum of Mulliken charges =   0.00000

 Dipole moment (field-independent basis, Debye):
    X=              3.6085    Y=              0.5675    Z=              0.0332  Tot=              3.6531
 Quadrupole moment (field-independent basis, Debye-Ang):
   XX=            -27.4780   YY=            -21.5269   ZZ=            -25.4417
   XY=             -0.6601   XZ=             -0.4657   YZ=              0.1461

 Normal termination of Gaussian 09 at Wed Aug 26 12:01:06 2020.
