 Gaussian 09, Revision D.01,
 Gaussian 09:  ES64L-G09RevD.01 24-Apr-2013

 --------------------
 #p B2PLYPD3/Def2QZVP
 --------------------

 --------
 acrolein
 --------
 Symbolic Z-matrix:
 Charge =  0 Multiplicity = 1

                         Standard orientation:
 ---------------------------------------------------------------------
 Center     Atomic      Atomic             Coordinates (Angstroms)
 Number     Number       Type             X           Y           Z
 ---------------------------------------------------------------------
      1          6           0       -0.647065    0.325518   -0.070450
      2          8           0       -1.809475   -0.120252    0.071224
      3          6           0        0.569354   -0.405702   -0.089929
      4          6           0        1.760570    0.136364    0.014167
      5          1           0        0.429281   -1.566073   -0.058765
      6          1           0        1.771568    1.194836    0.036944
      7          1           0        2.649065   -0.482794    0.330105
      8          1           0       -0.471277    1.478969   -0.000800
 ---------------------------------------------------------------------

 SCF Done:  E(RB2PLYPD3) =  -191.595342528     A.U. after   14 cycles
 E2(B2PLYPD3) =    -0.2507786992D+00 E(B2PLYPD3) =    -0.19184612122693D+03

 The electronic state is 1-A.
 Alpha  occ. eigenvalues --  -19.73180 -10.72558 -10.66171 -10.65131  -1.17214
 Alpha  occ. eigenvalues --   -0.94568  -0.76607  -0.65475  -0.56416  -0.56081
 Alpha  occ. eigenvalues --   -0.50040  -0.46147  -0.45403  -0.35164  -0.34005
 Alpha virt. eigenvalues --   -0.03049   0.05526   0.06300   0.08280   0.09862
 Alpha virt. eigenvalues --    0.12428   0.13536   0.15145   0.16883   0.19124
 Alpha virt. eigenvalues --    0.20054   0.21825   0.24579   0.26776   0.28409

 Mulliken charges:
               1
     1  C    0.161134
     2  O   -0.365236
     3  C   -0.006676
     4  C   -0.116471
     5  H    0.087493
     6  H    0.086172
     7  H    0.111492
     8  H    0.042092
 Sum of Mulliken charges =   0.00000

 Dipole moment (field-independent basis, Debye):
    X=              3.8046    Y=              0.6602    Z=              0.0303  Tot=              3.8616
 Quadrupole moment (field-independent basis, Debye-Ang):
   XX=            -27.7675   YY=            -22.1242   ZZ=            -25.1965
   XY=             -1.0010   XZ=              1.1722   YZ=             -0.1186

 Normal termination of Gaussian 09 at Wed Aug 26 14:54:21 2020.
