 Gaussian 09, Revision D.01,
 Gaussian 09:  ES64L-G09RevD.01 24-Apr-2013

 --------------------
 #p B2PLYPD3/Def2QZVP
 --------------------

 --------
 acrolein
 --------
 Symbolic Z-matrix:
 Charge =  0 Multiplicity = 1

                         Standard orientation:
 ---------------------------------------------------------------------
 Center     Atomic      Atomic             Coordinates (Angstroms)
 Number     Number       Type             X           Y           Z
 ---------------------------------------------------------------------
      1          6           0       -0.674624    0.371899   -0.054525
      2          8           0       -1.798587   -0.141074    0.048327
      3          6           0        0.543488   -0.418260   -0.055678
      4          6           0        1.765386    0.132896    0.036520
      5          1           0        0.469569   -1.545555   -0.086796
      6          1           0        1.858489    1.097201   -0.108584
      7          1           0        2.711657   -0.441513    0.197739
      8          1           0       -0.456515    1.499251    0.053129
 ---------------------------------------------------------------------

 SCF Done:  E(RB2PLYPD3) =  -191.596525683     A.U. after   14 cycles
 E2(B2PLYPD3) =    -0.2497025495D+00 E(B2PLYPD3) =    -0.19184622823217D+03

 The electronic state is 1-A.
 Alpha  occ. eigenvalues --  -19.73201 -10.72656 -10.65129 -10.64997  -1.18049
 Alpha  occ. eigenvalues --   -0.93284  -0.76343  -0.66670  -0.56731  -0.56012
 Alpha  occ. eigenvalues --   -0.50175  -0.46845  -0.45891  -0.34259  -0.34184
 Alpha virt. eigenvalues --   -0.02656   0.05632   0.06812   0.07618   0.09790
 Alpha virt. eigenvalues --    0.12479   0.13940   0.15264   0.17059   0.19624
 Alpha virt. eigenvalues --    0.20498   0.21996   0.24483   0.26661   0.28620

 Mulliken charges:
               1
     1  C    0.155233
     2  O   -0.356137
     3  C   -0.022976
     4  C   -0.134793
     5  H    0.099216
     6  H    0.089691
     7  H    0.101957
     8  H    0.067810
 Sum of Mulliken charges =   0.00000

 Dipole moment (field-independent basis, Debye):
    X=              3.6647    Y=              0.8468    Z=             -0.1502  Tot=              3.7642
 Quadrupole moment (field-independent basis, Debye-Ang):
   XX=            -27.3398   YY=            -21.9280   ZZ=            -25.2482
   XY=             -0.9939   XZ=              0.4867   YZ=             -0.1120

 Normal termination of Gaussian 09 at Wed Aug 26 14:43:20 2020.
