 Gaussian 09, Revision D.01,
 Gaussian 09:  ES64L-G09RevD.01 24-Apr-2013

 --------------------
 #p B2PLYPD3/Def2QZVP
 --------------------

 --------
 acrolein
 --------
 Symbolic Z-matrix:
 Charge =  0 Multiplicity = 1

                         Standard orientation:
 ---------------------------------------------------------------------
 Center     Atomic      Atomic             Coordinates (Angstroms)
 Number     Number       Type             X           Y           Z
 ---------------------------------------------------------------------
      1          6           0        0.665294    0.341535    0.013557
      2          8           0        1.802398   -0.112517   -0.010870
      3          6           0       -0.575868   -0.462553    0.012382
      4          6           0       -1.754456    0.147610   -0.015639
      5          1           0       -0.425964   -1.543812   -0.012192
      6          1           0       -1.834196    1.224112   -0.032969
      7          1           0       -2.667179   -0.402457    0.037888
      8          1           0        0.498332    1.462737    0.032428
 ---------------------------------------------------------------------

 SCF Done:  E(RB2PLYPD3) =  -191.614966837     A.U. after   12 cycles
 E2(B2PLYPD3) =    -0.2479703864D+00 E(B2PLYPD3) =    -0.19186293722330D+03

 The electronic state is 1-A.
 Alpha  occ. eigenvalues --  -19.72952 -10.72072 -10.65375 -10.64737  -1.18694
 Alpha  occ. eigenvalues --   -0.93221  -0.75477  -0.66623  -0.56637  -0.56129
 Alpha  occ. eigenvalues --   -0.50453  -0.47098  -0.46302  -0.34882  -0.33764
 Alpha virt. eigenvalues --   -0.01884   0.05743   0.07078   0.07995   0.09737
 Alpha virt. eigenvalues --    0.12571   0.13899   0.15304   0.17217   0.19767
 Alpha virt. eigenvalues --    0.20016   0.21701   0.25348   0.26464   0.28712

 Mulliken charges:
               1
     1  C    0.159260
     2  O   -0.354571
     3  C   -0.037290
     4  C   -0.126521
     5  H    0.105630
     6  H    0.087058
     7  H    0.102732
     8  H    0.063702
 Sum of Mulliken charges =   0.00000

 Dipole moment (field-independent basis, Debye):
    X=             -3.5813    Y=              0.7081    Z=              0.0432  Tot=              3.6509
 Quadrupole moment (field-independent basis, Debye-Ang):
   XX=            -27.5690   YY=            -21.7452   ZZ=            -25.2561
   XY=              0.7549   XZ=              0.0162   YZ=             -0.0231

 Normal termination of Gaussian 09 at Wed Aug 26 09:11:15 2020.
