 Gaussian 09, Revision D.01,
 Gaussian 09:  ES64L-G09RevD.01 24-Apr-2013

 --------------------
 #p B2PLYPD3/Def2QZVP
 --------------------

 --------
 acrolein
 --------
 Symbolic Z-matrix:
 Charge =  0 Multiplicity = 1

                         Standard orientation:
 ---------------------------------------------------------------------
 Center     Atomic      Atomic             Coordinates (Angstroms)
 Number     Number       Type             X           Y           Z
 ---------------------------------------------------------------------
      1          6           0       -0.668966    0.343320   -0.010349
      2          8           0       -1.801050   -0.112334    0.006978
      3          6           0        0.572039   -0.462873   -0.022602
      4          6           0        1.758363    0.153817    0.014648
      5          1           0        0.440809   -1.557635    0.036015
      6          1           0        1.822093    1.223913   -0.028969
      7          1           0        2.675112   -0.411718    0.013343
      8          1           0       -0.498225    1.438525    0.033609
 ---------------------------------------------------------------------

 SCF Done:  E(RB2PLYPD3) =  -191.615398180     A.U. after   12 cycles
 E2(B2PLYPD3) =    -0.2478824173D+00 E(B2PLYPD3) =    -0.19186328059702D+03

 The electronic state is 1-A.
 Alpha  occ. eigenvalues --  -19.72887 -10.71818 -10.65504 -10.64891  -1.18911
 Alpha  occ. eigenvalues --   -0.92948  -0.75429  -0.66803  -0.56391  -0.56286
 Alpha  occ. eigenvalues --   -0.50400  -0.47124  -0.46379  -0.34702  -0.33807
 Alpha virt. eigenvalues --   -0.01890   0.05762   0.07051   0.07932   0.09729
 Alpha virt. eigenvalues --    0.12624   0.13917   0.15272   0.17300   0.19836
 Alpha virt. eigenvalues --    0.20037   0.21611   0.25106   0.26604   0.28709

 Mulliken charges:
               1
     1  C    0.156521
     2  O   -0.352704
     3  C   -0.037870
     4  C   -0.130967
     5  H    0.104381
     6  H    0.088017
     7  H    0.103321
     8  H    0.069302
 Sum of Mulliken charges =   0.00000

 Dipole moment (field-independent basis, Debye):
    X=              3.5533    Y=              0.7360    Z=              0.0047  Tot=              3.6287
 Quadrupole moment (field-independent basis, Debye-Ang):
   XX=            -27.6068   YY=            -21.6903   ZZ=            -25.2800
   XY=             -0.8255   XZ=              0.0375   YZ=             -0.0971

 Normal termination of Gaussian 09 at Wed Aug 26 18:49:17 2020.
