 Gaussian 09, Revision D.01,
 Gaussian 09:  ES64L-G09RevD.01 24-Apr-2013

 --------------------
 #p B2PLYPD3/Def2QZVP
 --------------------

 --------
 acrolein
 --------
 Symbolic Z-matrix:
 Charge =  0 Multiplicity = 1

                         Standard orientation:
 ---------------------------------------------------------------------
 Center     Atomic      Atomic             Coordinates (Angstroms)
 Number     Number       Type             X           Y           Z
 ---------------------------------------------------------------------
      1          6           0        0.687683    0.358135   -0.035270
      2          8           0        1.771535   -0.137413    0.037690
      3          6           0       -0.535891   -0.423218   -0.038865
      4          6           0       -1.772128    0.127241    0.018390
      5          1           0       -0.452867   -1.489396   -0.073481
      6          1           0       -1.818649    1.195506   -0.014343
      7          1           0       -2.679417   -0.456208    0.137698
      8          1           0        0.500669    1.476451   -0.016922
 ---------------------------------------------------------------------

 SCF Done:  E(RB2PLYPD3) =  -191.613606359     A.U. after   13 cycles
 E2(B2PLYPD3) =    -0.2470466594D+00 E(B2PLYPD3) =    -0.19186065301873D+03

 The electronic state is 1-A.
 Alpha  occ. eigenvalues --  -19.72952 -10.71642 -10.65603 -10.64120  -1.20724
 Alpha  occ. eigenvalues --   -0.92629  -0.75657  -0.66775  -0.56630  -0.56464
 Alpha  occ. eigenvalues --   -0.50940  -0.47627  -0.46674  -0.34220  -0.33949
 Alpha virt. eigenvalues --   -0.01961   0.05802   0.07193   0.08443   0.09837
 Alpha virt. eigenvalues --    0.12489   0.13861   0.15425   0.17671   0.19727
 Alpha virt. eigenvalues --    0.19898   0.21584   0.25455   0.26377   0.28878

 Mulliken charges:
               1
     1  C    0.154752
     2  O   -0.336105
     3  C   -0.032153
     4  C   -0.139940
     5  H    0.102283
     6  H    0.081952
     7  H    0.108429
     8  H    0.060783
 Sum of Mulliken charges =   0.00000

 Dipole moment (field-independent basis, Debye):
    X=             -3.3767    Y=              0.7438    Z=             -0.0795  Tot=              3.4586
 Quadrupole moment (field-independent basis, Debye-Ang):
   XX=            -27.1120   YY=            -21.9603   ZZ=            -25.2131
   XY=              1.1462   XZ=             -0.4743   YZ=             -0.0264

 Normal termination of Gaussian 09 at Wed Aug 26 08:36:13 2020.
