 Gaussian 09, Revision D.01,
 Gaussian 09:  ES64L-G09RevD.01 24-Apr-2013

 --------------------
 #p B2PLYPD3/Def2QZVP
 --------------------

 --------
 acrolein
 --------
 Symbolic Z-matrix:
 Charge =  0 Multiplicity = 1

                         Standard orientation:
 ---------------------------------------------------------------------
 Center     Atomic      Atomic             Coordinates (Angstroms)
 Number     Number       Type             X           Y           Z
 ---------------------------------------------------------------------
      1          6           0       -0.676479    0.347816    0.010009
      2          8           0       -1.786866   -0.123067   -0.016349
      3          6           0        0.548881   -0.446133    0.007684
      4          6           0        1.760283    0.138650   -0.007873
      5          1           0        0.435832   -1.478958    0.047398
      6          1           0        1.834177    1.203663   -0.052354
      7          1           0        2.735406   -0.428789   -0.006459
      8          1           0       -0.506607    1.446623    0.083284
 ---------------------------------------------------------------------

 SCF Done:  E(RB2PLYPD3) =  -191.613914954     A.U. after   13 cycles
 E2(B2PLYPD3) =    -0.2471861431D+00 E(B2PLYPD3) =    -0.19186110109736D+03

 The electronic state is 1-A.
 Alpha  occ. eigenvalues --  -19.72834 -10.71536 -10.66038 -10.64057  -1.19822
 Alpha  occ. eigenvalues --   -0.92891  -0.75379  -0.67476  -0.56619  -0.56154
 Alpha  occ. eigenvalues --   -0.50598  -0.47206  -0.46891  -0.34508  -0.33864
 Alpha virt. eigenvalues --   -0.01930   0.05665   0.07303   0.08262   0.09732
 Alpha virt. eigenvalues --    0.12468   0.13921   0.15375   0.17796   0.19668
 Alpha virt. eigenvalues --    0.20077   0.21243   0.25372   0.26449   0.28859

 Mulliken charges:
               1
     1  C    0.153710
     2  O   -0.346877
     3  C   -0.037099
     4  C   -0.132462
     5  H    0.110259
     6  H    0.085306
     7  H    0.099555
     8  H    0.067607
 Sum of Mulliken charges =   0.00000

 Dipole moment (field-independent basis, Debye):
    X=              3.4890    Y=              0.7461    Z=              0.0675  Tot=              3.5685
 Quadrupole moment (field-independent basis, Debye-Ang):
   XX=            -27.2446   YY=            -21.8883   ZZ=            -25.2203
   XY=             -0.9087   XZ=             -0.1570   YZ=             -0.0936

 Normal termination of Gaussian 09 at Wed Aug 26 18:32:36 2020.
