 Gaussian 09, Revision D.01,
 Gaussian 09:  ES64L-G09RevD.01 24-Apr-2013

 --------------------
 #p B2PLYPD3/Def2QZVP
 --------------------

 --------
 acrolein
 --------
 Symbolic Z-matrix:
 Charge =  0 Multiplicity = 1

                         Standard orientation:
 ---------------------------------------------------------------------
 Center     Atomic      Atomic             Coordinates (Angstroms)
 Number     Number       Type             X           Y           Z
 ---------------------------------------------------------------------
      1          6           0        0.674716    0.340124    0.032088
      2          8           0        1.798661   -0.104926   -0.025591
      3          6           0       -0.592924   -0.485616    0.003183
      4          6           0       -1.756172    0.172231   -0.040792
      5          1           0       -0.408871   -1.544560    0.010382
      6          1           0       -1.784656    1.277099   -0.139039
      7          1           0       -2.756902   -0.384283    0.192218
      8          1           0        0.607426    1.330716    0.174290
 ---------------------------------------------------------------------

 SCF Done:  E(RB2PLYPD3) =  -191.598653049     A.U. after   14 cycles
 E2(B2PLYPD3) =    -0.2473473612D+00 E(B2PLYPD3) =    -0.19184600041028D+03

 The electronic state is 1-A.
 Alpha  occ. eigenvalues --  -19.72533 -10.70555 -10.66601 -10.64904  -1.19431
 Alpha  occ. eigenvalues --   -0.92326  -0.74519  -0.68373  -0.56666  -0.55382
 Alpha  occ. eigenvalues --   -0.50774  -0.46789  -0.46038  -0.34599  -0.33482
 Alpha virt. eigenvalues --   -0.01566   0.05539   0.07297   0.07652   0.09632
 Alpha virt. eigenvalues --    0.12315   0.13877   0.15466   0.17705   0.18641
 Alpha virt. eigenvalues --    0.20102   0.21361   0.24958   0.26849   0.29202

 Mulliken charges:
               1
     1  C    0.160108
     2  O   -0.352844
     3  C   -0.057076
     4  C   -0.126860
     5  H    0.113265
     6  H    0.087082
     7  H    0.094486
     8  H    0.081839
 Sum of Mulliken charges =   0.00000

 Dipole moment (field-independent basis, Debye):
    X=             -3.3531    Y=              0.8156    Z=              0.2265  Tot=              3.4583
 Quadrupole moment (field-independent basis, Debye-Ang):
   XX=            -27.9451   YY=            -21.5171   ZZ=            -25.2380
   XY=              0.8504   XZ=             -0.1208   YZ=             -0.2332

 Normal termination of Gaussian 09 at Wed Aug 26 12:21:45 2020.
