 Gaussian 09, Revision D.01,
 Gaussian 09:  ES64L-G09RevD.01 24-Apr-2013

 --------------------
 #p B2PLYPD3/Def2QZVP
 --------------------

 --------
 acrolein
 --------
 Symbolic Z-matrix:
 Charge =  0 Multiplicity = 1

                         Standard orientation:
 ---------------------------------------------------------------------
 Center     Atomic      Atomic             Coordinates (Angstroms)
 Number     Number       Type             X           Y           Z
 ---------------------------------------------------------------------
      1          6           0        0.652639    0.353642    0.108210
      2          8           0        1.822128   -0.113590   -0.073878
      3          6           0       -0.597834   -0.497199    0.086061
      4          6           0       -1.747065    0.144090   -0.054735
      5          1           0       -0.477762   -1.465936   -0.019225
      6          1           0       -1.850717    1.281386    0.008446
      7          1           0       -2.514791   -0.412815   -0.168139
      8          1           0        0.419812    1.502885   -0.067270
 ---------------------------------------------------------------------

 SCF Done:  E(RB2PLYPD3) =  -191.573657642     A.U. after   13 cycles
 E2(B2PLYPD3) =    -0.2510363599D+00 E(B2PLYPD3) =    -0.19182469400175D+03

 The electronic state is 1-A.
 Alpha  occ. eigenvalues --  -19.73338 -10.73488 -10.64713 -10.64126  -1.16096
 Alpha  occ. eigenvalues --   -0.94009  -0.75934  -0.67593  -0.57783  -0.54548
 Alpha  occ. eigenvalues --   -0.50046  -0.48182  -0.44878  -0.35000  -0.33665
 Alpha virt. eigenvalues --   -0.02277   0.05513   0.06363   0.07279   0.09690
 Alpha virt. eigenvalues --    0.12553   0.13601   0.15121   0.17744   0.19328
 Alpha virt. eigenvalues --    0.19780   0.21970   0.23976   0.27495   0.28377

 Mulliken charges:
               1
     1  C    0.172383
     2  O   -0.372735
     3  C   -0.056875
     4  C   -0.118058
     5  H    0.117269
     6  H    0.092203
     7  H    0.101533
     8  H    0.064280
 Sum of Mulliken charges =   0.00000

 Dipole moment (field-independent basis, Debye):
    X=             -3.7483    Y=              0.6819    Z=              0.0882  Tot=              3.8108
 Quadrupole moment (field-independent basis, Debye-Ang):
   XX=            -28.1949   YY=            -21.4668   ZZ=            -25.2247
   XY=              0.7174   XZ=              0.7348   YZ=              0.1356

 Normal termination of Gaussian 09 at Wed Aug 26 12:43:04 2020.
