 Gaussian 09, Revision D.01,
 Gaussian 09:  ES64L-G09RevD.01 24-Apr-2013

 --------------------
 #p B2PLYPD3/Def2QZVP
 --------------------

 --------
 acrolein
 --------
 Symbolic Z-matrix:
 Charge =  0 Multiplicity = 1

                         Standard orientation:
 ---------------------------------------------------------------------
 Center     Atomic      Atomic             Coordinates (Angstroms)
 Number     Number       Type             X           Y           Z
 ---------------------------------------------------------------------
      1          6           0        0.721900    0.367711   -0.091910
      2          8           0        1.766046   -0.157006    0.082053
      3          6           0       -0.544562   -0.433151   -0.031417
      4          6           0       -1.752760    0.150295    0.025994
      5          1           0       -0.496717   -1.481443   -0.124629
      6          1           0       -1.887383    1.132981    0.321696
      7          1           0       -2.889551   -0.441173   -0.033234
      8          1           0        0.597815    1.536556   -0.236255
 ---------------------------------------------------------------------

 SCF Done:  E(RB2PLYPD3) =  -191.584391558     A.U. after   13 cycles
 E2(B2PLYPD3) =    -0.2477393857D+00 E(B2PLYPD3) =    -0.19183213094340D+03

 The electronic state is 1-A.
 Alpha  occ. eigenvalues --  -19.73383 -10.72647 -10.66415 -10.64415  -1.21900
 Alpha  occ. eigenvalues --   -0.91859  -0.73759  -0.66688  -0.57117  -0.55303
 Alpha  occ. eigenvalues --   -0.50535  -0.47818  -0.45197  -0.34390  -0.33605
 Alpha virt. eigenvalues --   -0.01501   0.05205   0.06982   0.07793   0.09606
 Alpha virt. eigenvalues --    0.11691   0.13927   0.15378   0.17520   0.19537
 Alpha virt. eigenvalues --    0.19885   0.21167   0.24185   0.26076   0.28356

 Mulliken charges:
               1
     1  C    0.159508
     2  O   -0.316303
     3  C   -0.059352
     4  C   -0.131274
     5  H    0.113938
     6  H    0.090600
     7  H    0.073740
     8  H    0.069142
 Sum of Mulliken charges =   0.00000

 Dipole moment (field-independent basis, Debye):
    X=             -2.9756    Y=              0.8582    Z=             -0.1998  Tot=              3.1033
 Quadrupole moment (field-independent basis, Debye-Ang):
   XX=            -27.1552   YY=            -22.0941   ZZ=            -25.3286
   XY=              1.0180   XZ=             -0.7781   YZ=              0.4766

 Normal termination of Gaussian 09 at Wed Aug 26 10:23:20 2020.
