 Gaussian 09, Revision D.01,
 Gaussian 09:  ES64L-G09RevD.01 24-Apr-2013

 --------------------
 #p B2PLYPD3/Def2QZVP
 --------------------

 --------
 acrolein
 --------
 Symbolic Z-matrix:
 Charge =  0 Multiplicity = 1

                         Standard orientation:
 ---------------------------------------------------------------------
 Center     Atomic      Atomic             Coordinates (Angstroms)
 Number     Number       Type             X           Y           Z
 ---------------------------------------------------------------------
      1          6           0       -0.694893    0.344824    0.061267
      2          8           0       -1.770372   -0.123036   -0.058678
      3          6           0        0.560443   -0.478654    0.090903
      4          6           0        1.767033    0.160429   -0.063537
      5          1           0        0.584842   -1.476582   -0.006420
      6          1           0        1.821815    1.314687    0.055894
      7          1           0        2.587306   -0.407513   -0.116934
      8          1           0       -0.626489    1.394100    0.005089
 ---------------------------------------------------------------------

 SCF Done:  E(RB2PLYPD3) =  -191.593519753     A.U. after   12 cycles
 E2(B2PLYPD3) =    -0.2460358537D+00 E(B2PLYPD3) =    -0.19183955560712D+03

 The electronic state is 1-A.
 Alpha  occ. eigenvalues --  -19.72396 -10.70836 -10.65406 -10.64045  -1.21386
 Alpha  occ. eigenvalues --   -0.91999  -0.74986  -0.68277  -0.57825  -0.56272
 Alpha  occ. eigenvalues --   -0.50432  -0.47547  -0.47473  -0.34048  -0.33479
 Alpha virt. eigenvalues --   -0.01355   0.05895   0.07472   0.07773   0.09665
 Alpha virt. eigenvalues --    0.12447   0.14297   0.15436   0.18190   0.19492
 Alpha virt. eigenvalues --    0.19873   0.21555   0.24110   0.26452   0.28669

 Mulliken charges:
               1
     1  C    0.154119
     2  O   -0.326843
     3  C   -0.067096
     4  C   -0.132922
     5  H    0.107554
     6  H    0.081257
     7  H    0.101404
     8  H    0.082527
 Sum of Mulliken charges =   0.00000

 Dipole moment (field-independent basis, Debye):
    X=              3.2063    Y=              0.7624    Z=              0.1241  Tot=              3.2980
 Quadrupole moment (field-independent basis, Debye-Ang):
   XX=            -27.4493   YY=            -21.4816   ZZ=            -25.1947
   XY=             -1.3992   XZ=             -0.5253   YZ=              0.2031

 Normal termination of Gaussian 09 at Wed Aug 26 12:01:29 2020.
