 Gaussian 09, Revision D.01,
 Gaussian 09:  ES64L-G09RevD.01 24-Apr-2013

 --------------------
 #p B2PLYPD3/Def2QZVP
 --------------------

 --------
 acrolein
 --------
 Symbolic Z-matrix:
 Charge =  0 Multiplicity = 1

                         Standard orientation:
 ---------------------------------------------------------------------
 Center     Atomic      Atomic             Coordinates (Angstroms)
 Number     Number       Type             X           Y           Z
 ---------------------------------------------------------------------
      1          6           0       -0.663270    0.311950   -0.018263
      2          8           0       -1.820981   -0.075886    0.019834
      3          6           0        0.585351   -0.483666   -0.034085
      4          6           0        1.770455    0.127669    0.022413
      5          1           0        0.419379   -1.526390   -0.055147
      6          1           0        2.001786    1.304884   -0.120064
      7          1           0        2.427553   -0.355120    0.156057
      8          1           0       -0.436080    1.447994    0.040093
 ---------------------------------------------------------------------

 SCF Done:  E(RB2PLYPD3) =  -191.528545576     A.U. after   14 cycles
 E2(B2PLYPD3) =    -0.2482934845D+00 E(B2PLYPD3) =    -0.19177683906018D+03

 The electronic state is 1-A.
 Alpha  occ. eigenvalues --  -19.73080 -10.72123 -10.64830 -10.64359  -1.18834
 Alpha  occ. eigenvalues --   -0.94250  -0.78399  -0.66111  -0.59023  -0.54853
 Alpha  occ. eigenvalues --   -0.50981  -0.47871  -0.46246  -0.34885  -0.33452
 Alpha virt. eigenvalues --   -0.02240   0.05486   0.07261   0.08009   0.09526
 Alpha virt. eigenvalues --    0.12426   0.14091   0.15241   0.16980   0.19427
 Alpha virt. eigenvalues --    0.20091   0.23082   0.24484   0.26850   0.27902

 Mulliken charges:
               1
     1  C    0.166041
     2  O   -0.350948
     3  C   -0.027060
     4  C   -0.216042
     5  H    0.099579
     6  H    0.093380
     7  H    0.187875
     8  H    0.047174
 Sum of Mulliken charges =   0.00000

 Dipole moment (field-independent basis, Debye):
    X=              3.6956    Y=              0.4798    Z=             -0.0644  Tot=              3.7272
 Quadrupole moment (field-independent basis, Debye-Ang):
   XX=            -27.5091   YY=            -21.7739   ZZ=            -25.0694
   XY=             -0.2310   XZ=              0.2409   YZ=             -0.1622

 Normal termination of Gaussian 09 at Wed Aug 26 13:56:58 2020.
