 Gaussian 09, Revision D.01,
 Gaussian 09:  ES64L-G09RevD.01 24-Apr-2013

 --------------------
 #p B2PLYPD3/Def2QZVP
 --------------------

 --------
 acrolein
 --------
 Symbolic Z-matrix:
 Charge =  0 Multiplicity = 1

                         Standard orientation:
 ---------------------------------------------------------------------
 Center     Atomic      Atomic             Coordinates (Angstroms)
 Number     Number       Type             X           Y           Z
 ---------------------------------------------------------------------
      1          6           0        0.688257    0.366018   -0.012206
      2          8           0        1.777083   -0.133983    0.015231
      3          6           0       -0.553314   -0.442887   -0.015189
      4          6           0       -1.757208    0.135473    0.008043
      5          1           0       -0.453751   -1.526995   -0.035486
      6          1           0       -1.847983    1.216892   -0.005514
      7          1           0       -2.706537   -0.422709    0.054635
      8          1           0        0.525197    1.453051   -0.019374
 ---------------------------------------------------------------------

 SCF Done:  E(RB2PLYPD3) =  -191.616603946     A.U. after   12 cycles
 E2(B2PLYPD3) =    -0.2466708141D+00 E(B2PLYPD3) =    -0.19186327476047D+03

 The electronic state is 1-A.
 Alpha  occ. eigenvalues --  -19.72901 -10.71582 -10.65467 -10.64347  -1.20379
 Alpha  occ. eigenvalues --   -0.92473  -0.74999  -0.67020  -0.56663  -0.56132
 Alpha  occ. eigenvalues --   -0.50811  -0.47221  -0.46401  -0.34510  -0.33908
 Alpha virt. eigenvalues --   -0.01449   0.05747   0.07221   0.08164   0.09719
 Alpha virt. eigenvalues --    0.12459   0.14105   0.15437   0.17565   0.19758
 Alpha virt. eigenvalues --    0.19904   0.21460   0.25600   0.26397   0.28715

 Mulliken charges:
               1
     1  C    0.156181
     2  O   -0.339240
     3  C   -0.046274
     4  C   -0.132910
     5  H    0.105575
     6  H    0.079220
     7  H    0.100401
     8  H    0.077047
 Sum of Mulliken charges =   0.00000

 Dipole moment (field-independent basis, Debye):
    X=             -3.3261    Y=              0.8294    Z=             -0.0424  Tot=              3.4282
 Quadrupole moment (field-independent basis, Debye-Ang):
   XX=            -27.2869   YY=            -21.7519   ZZ=            -25.2470
   XY=              1.0281   XZ=             -0.1846   YZ=             -0.0019

 Normal termination of Gaussian 09 at Wed Aug 26 11:58:53 2020.
