 Gaussian 09, Revision D.01,
 Gaussian 09:  ES64L-G09RevD.01 24-Apr-2013

 --------------------
 #p B2PLYPD3/Def2QZVP
 --------------------

 --------
 acrolein
 --------
 Symbolic Z-matrix:
 Charge =  0 Multiplicity = 1

                         Standard orientation:
 ---------------------------------------------------------------------
 Center     Atomic      Atomic             Coordinates (Angstroms)
 Number     Number       Type             X           Y           Z
 ---------------------------------------------------------------------
      1          6           0        0.668713    0.343552    0.008694
      2          8           0        1.800046   -0.119378   -0.008895
      3          6           0       -0.567001   -0.457039   -0.009709
      4          6           0       -1.754972    0.145828    0.004649
      5          1           0       -0.476683   -1.528135    0.050843
      6          1           0       -1.821498    1.209499   -0.051488
      7          1           0       -2.674289   -0.399632   -0.004737
      8          1           0        0.491664    1.479248    0.054735
 ---------------------------------------------------------------------

 SCF Done:  E(RB2PLYPD3) =  -191.614677658     A.U. after   12 cycles
 E2(B2PLYPD3) =    -0.2479753961D+00 E(B2PLYPD3) =    -0.19186265305440D+03

 The electronic state is 1-A.
 Alpha  occ. eigenvalues --  -19.73007 -10.72280 -10.65259 -10.64532  -1.18879
 Alpha  occ. eigenvalues --   -0.93236  -0.75504  -0.66719  -0.56649  -0.56201
 Alpha  occ. eigenvalues --   -0.50403  -0.47266  -0.46430  -0.34786  -0.33853
 Alpha virt. eigenvalues --   -0.01946   0.05776   0.07044   0.07996   0.09728
 Alpha virt. eigenvalues --    0.12625   0.13948   0.15245   0.17366   0.19833
 Alpha virt. eigenvalues --    0.20112   0.21580   0.25207   0.26422   0.28771

 Mulliken charges:
               1
     1  C    0.155518
     2  O   -0.350333
     3  C   -0.034081
     4  C   -0.126498
     5  H    0.105249
     6  H    0.084692
     7  H    0.101875
     8  H    0.063577
 Sum of Mulliken charges =   0.00000

 Dipole moment (field-independent basis, Debye):
    X=             -3.5808    Y=              0.7066    Z=              0.0466  Tot=              3.6502
 Quadrupole moment (field-independent basis, Debye-Ang):
   XX=            -27.4624   YY=            -21.8049   ZZ=            -25.2433
   XY=              0.8953   XZ=              0.1040   YZ=             -0.1200

 Normal termination of Gaussian 09 at Wed Aug 26 20:14:21 2020.
