 Gaussian 09, Revision D.01,
 Gaussian 09:  ES64L-G09RevD.01 24-Apr-2013

 --------------------
 #p B2PLYPD3/Def2QZVP
 --------------------

 --------
 acrolein
 --------
 Symbolic Z-matrix:
 Charge =  0 Multiplicity = 1

                         Standard orientation:
 ---------------------------------------------------------------------
 Center     Atomic      Atomic             Coordinates (Angstroms)
 Number     Number       Type             X           Y           Z
 ---------------------------------------------------------------------
      1          6           0       -0.681795    0.356857    0.011712
      2          8           0       -1.783403   -0.127193   -0.014240
      3          6           0        0.551263   -0.440381    0.005760
      4          6           0        1.760107    0.134472   -0.002673
      5          1           0        0.395884   -1.521356    0.049786
      6          1           0        1.827278    1.213857   -0.012419
      7          1           0        2.766163   -0.436336   -0.045689
      8          1           0       -0.499548    1.455690    0.033448
 ---------------------------------------------------------------------

 SCF Done:  E(RB2PLYPD3) =  -191.612510380     A.U. after   13 cycles
 E2(B2PLYPD3) =    -0.2475204568D+00 E(B2PLYPD3) =    -0.19186003083673D+03

 The electronic state is 1-A.
 Alpha  occ. eigenvalues --  -19.72975 -10.71657 -10.66311 -10.64507  -1.20096
 Alpha  occ. eigenvalues --   -0.92630  -0.74999  -0.66780  -0.56495  -0.55720
 Alpha  occ. eigenvalues --   -0.50607  -0.47156  -0.46167  -0.34606  -0.33911
 Alpha virt. eigenvalues --   -0.01765   0.05576   0.07109   0.08246   0.09743
 Alpha virt. eigenvalues --    0.12303   0.13858   0.15368   0.17512   0.19752
 Alpha virt. eigenvalues --    0.19893   0.21155   0.25541   0.26461   0.28816

 Mulliken charges:
               1
     1  C    0.159511
     2  O   -0.344287
     3  C   -0.038302
     4  C   -0.132000
     5  H    0.105322
     6  H    0.082617
     7  H    0.100740
     8  H    0.066399
 Sum of Mulliken charges =   0.00000

 Dipole moment (field-independent basis, Debye):
    X=              3.4040    Y=              0.7827    Z=              0.0496  Tot=              3.4932
 Quadrupole moment (field-independent basis, Debye-Ang):
   XX=            -27.2495   YY=            -21.9186   ZZ=            -25.3137
   XY=             -0.8899   XZ=             -0.1812   YZ=             -0.0470

 Normal termination of Gaussian 09 at Wed Aug 26 20:12:29 2020.
