 Gaussian 09, Revision D.01,
 Gaussian 09:  ES64L-G09RevD.01 24-Apr-2013

 --------------------
 #p B2PLYPD3/Def2QZVP
 --------------------

 --------
 acrolein
 --------
 Symbolic Z-matrix:
 Charge =  0 Multiplicity = 1

                         Standard orientation:
 ---------------------------------------------------------------------
 Center     Atomic      Atomic             Coordinates (Angstroms)
 Number     Number       Type             X           Y           Z
 ---------------------------------------------------------------------
      1          6           0        0.667368    0.336642    0.002079
      2          8           0        1.792420   -0.108055    0.002808
      3          6           0       -0.564414   -0.468511   -0.019774
      4          6           0       -1.746609    0.153410   -0.002272
      5          1           0       -0.450566   -1.541125    0.044724
      6          1           0       -1.829374    1.221294    0.019074
      7          1           0       -2.691486   -0.389634    0.031670
      8          1           0        0.493997    1.444658    0.001871
 ---------------------------------------------------------------------

 SCF Done:  E(RB2PLYPD3) =  -191.616436191     A.U. after   12 cycles
 E2(B2PLYPD3) =    -0.2472568981D+00 E(B2PLYPD3) =    -0.19186369308892D+03

 The electronic state is 1-A.
 Alpha  occ. eigenvalues --  -19.72792 -10.71662 -10.65579 -10.64581  -1.19521
 Alpha  occ. eigenvalues --   -0.93051  -0.75306  -0.66955  -0.56565  -0.56266
 Alpha  occ. eigenvalues --   -0.50495  -0.47222  -0.46721  -0.34726  -0.33724
 Alpha virt. eigenvalues --   -0.01738   0.05753   0.07127   0.08124   0.09702
 Alpha virt. eigenvalues --    0.12635   0.14040   0.15300   0.17418   0.19928
 Alpha virt. eigenvalues --    0.20004   0.21473   0.25332   0.26455   0.28725

 Mulliken charges:
               1
     1  C    0.154911
     2  O   -0.347529
     3  C   -0.036095
     4  C   -0.127974
     5  H    0.106523
     6  H    0.087115
     7  H    0.098943
     8  H    0.064106
 Sum of Mulliken charges =   0.00000

 Dipole moment (field-independent basis, Debye):
    X=             -3.5340    Y=              0.6963    Z=              0.0824  Tot=              3.6028
 Quadrupole moment (field-independent basis, Debye-Ang):
   XX=            -27.4288   YY=            -21.7692   ZZ=            -25.2265
   XY=              0.7332   XZ=             -0.1553   YZ=             -0.0694

 Normal termination of Gaussian 09 at Wed Aug 26 12:33:46 2020.
