 Gaussian 09, Revision D.01,
 Gaussian 09:  ES64L-G09RevD.01 24-Apr-2013

 --------------------
 #p B2PLYPD3/Def2QZVP
 --------------------

 --------
 acrolein
 --------
 Symbolic Z-matrix:
 Charge =  0 Multiplicity = 1

                         Standard orientation:
 ---------------------------------------------------------------------
 Center     Atomic      Atomic             Coordinates (Angstroms)
 Number     Number       Type             X           Y           Z
 ---------------------------------------------------------------------
      1          6           0        0.679904    0.353810   -0.027952
      2          8           0        1.771070   -0.129733    0.021211
      3          6           0       -0.553162   -0.446808   -0.004664
      4          6           0       -1.751669    0.137724    0.007589
      5          1           0       -0.472221   -1.490131   -0.025730
      6          1           0       -1.820782    1.232011    0.081922
      7          1           0       -2.675432   -0.413744   -0.017487
      8          1           0        0.549432    1.441376   -0.058228
 ---------------------------------------------------------------------

 SCF Done:  E(RB2PLYPD3) =  -191.616383926     A.U. after   12 cycles
 E2(B2PLYPD3) =    -0.2460084649D+00 E(B2PLYPD3) =    -0.19186239239100D+03

 The electronic state is 1-A.
 Alpha  occ. eigenvalues --  -19.72679 -10.71231 -10.65321 -10.63812  -1.20509
 Alpha  occ. eigenvalues --   -0.92859  -0.75160  -0.67460  -0.56818  -0.56563
 Alpha  occ. eigenvalues --   -0.50844  -0.47279  -0.46950  -0.34573  -0.33804
 Alpha virt. eigenvalues --   -0.01422   0.05809   0.07361   0.08295   0.09751
 Alpha virt. eigenvalues --    0.12534   0.14156   0.15430   0.17764   0.19614
 Alpha virt. eigenvalues --    0.20016   0.21494   0.25532   0.26387   0.28959

 Mulliken charges:
               1
     1  C    0.152839
     2  O   -0.339318
     3  C   -0.045290
     4  C   -0.131455
     5  H    0.107965
     6  H    0.079629
     7  H    0.101415
     8  H    0.074214
 Sum of Mulliken charges =   0.00000

 Dipole moment (field-independent basis, Debye):
    X=             -3.3492    Y=              0.7714    Z=             -0.0697  Tot=              3.4375
 Quadrupole moment (field-independent basis, Debye-Ang):
   XX=            -27.2722   YY=            -21.7502   ZZ=            -25.1365
   XY=              1.1124   XZ=             -0.1686   YZ=              0.1257

 Normal termination of Gaussian 09 at Wed Aug 26 15:09:29 2020.
