 Gaussian 09, Revision D.01,
 Gaussian 09:  ES64L-G09RevD.01 24-Apr-2013

 --------------------
 #p B2PLYPD3/Def2QZVP
 --------------------

 --------
 acrolein
 --------
 Symbolic Z-matrix:
 Charge =  0 Multiplicity = 1

                         Standard orientation:
 ---------------------------------------------------------------------
 Center     Atomic      Atomic             Coordinates (Angstroms)
 Number     Number       Type             X           Y           Z
 ---------------------------------------------------------------------
      1          6           0       -0.689377    0.367614    0.029404
      2          8           0       -1.775531   -0.139062   -0.026510
      3          6           0        0.523736   -0.443728    0.022419
      4          6           0        1.770665    0.111588   -0.037491
      5          1           0        0.450502   -1.450577   -0.024915
      6          1           0        2.005443    1.265341   -0.132867
      7          1           0        2.669834   -0.475373    0.157444
      8          1           0       -0.551679    1.560269    0.126429
 ---------------------------------------------------------------------

 SCF Done:  E(RB2PLYPD3) =  -191.596388116     A.U. after   13 cycles
 E2(B2PLYPD3) =    -0.2485679291D+00 E(B2PLYPD3) =    -0.19184495604520D+03

 The electronic state is 1-A.
 Alpha  occ. eigenvalues --  -19.72959 -10.72344 -10.66991 -10.64253  -1.20427
 Alpha  occ. eigenvalues --   -0.92130  -0.74846  -0.66367  -0.56356  -0.55834
 Alpha  occ. eigenvalues --   -0.50314  -0.47356  -0.46368  -0.34183  -0.33520
 Alpha virt. eigenvalues --   -0.02265   0.05472   0.07150   0.08114   0.09509
 Alpha virt. eigenvalues --    0.11934   0.13728   0.15462   0.17769   0.18858
 Alpha virt. eigenvalues --    0.19915   0.21655   0.25194   0.26203   0.28555

 Mulliken charges:
               1
     1  C    0.163684
     2  O   -0.335580
     3  C   -0.061587
     4  C   -0.119837
     5  H    0.119036
     6  H    0.076589
     7  H    0.097662
     8  H    0.060033
 Sum of Mulliken charges =   0.00000

 Dipole moment (field-independent basis, Debye):
    X=              3.3998    Y=              0.6963    Z=              0.1255  Tot=              3.4727
 Quadrupole moment (field-independent basis, Debye-Ang):
   XX=            -27.1101   YY=            -21.8981   ZZ=            -25.3910
   XY=             -0.9238   XZ=              0.0233   YZ=             -0.1562

 Normal termination of Gaussian 09 at Wed Aug 26 12:57:23 2020.
