 Gaussian 09, Revision D.01,
 Gaussian 09:  ES64L-G09RevD.01 24-Apr-2013

 --------------------
 #p B2PLYPD3/Def2QZVP
 --------------------

 --------
 acrolein
 --------
 Symbolic Z-matrix:
 Charge =  0 Multiplicity = 1

                         Standard orientation:
 ---------------------------------------------------------------------
 Center     Atomic      Atomic             Coordinates (Angstroms)
 Number     Number       Type             X           Y           Z
 ---------------------------------------------------------------------
      1          6           0       -0.653030   -0.312916    0.039244
      2          8           0       -1.833299    0.083460   -0.059630
      3          6           0        0.574036    0.439478    0.041524
      4          6           0        1.760670   -0.144413   -0.073673
      5          1           0        0.417451    1.569451    0.160570
      6          1           0        1.915835   -1.178813   -0.081961
      7          1           0        2.608368    0.425624    0.045221
      8          1           0       -0.365320   -1.376834    0.310645
 ---------------------------------------------------------------------

 SCF Done:  E(RB2PLYPD3) =  -191.598626839     A.U. after   14 cycles
 E2(B2PLYPD3) =    -0.2498090134D+00 E(B2PLYPD3) =    -0.19184843585221D+03

 The electronic state is 1-A.
 Alpha  occ. eigenvalues --  -19.73364 -10.72252 -10.65318 -10.65097  -1.17382
 Alpha  occ. eigenvalues --   -0.94232  -0.77588  -0.66125  -0.57210  -0.56145
 Alpha  occ. eigenvalues --   -0.50787  -0.47118  -0.45135  -0.35179  -0.33798
 Alpha virt. eigenvalues --   -0.02975   0.05769   0.06502   0.08289   0.09683
 Alpha virt. eigenvalues --    0.12938   0.13862   0.15143   0.17071   0.18914
 Alpha virt. eigenvalues --    0.20202   0.22270   0.24606   0.26703   0.28140

 Mulliken charges:
               1
     1  C    0.163219
     2  O   -0.363460
     3  C   -0.015794
     4  C   -0.118832
     5  H    0.091256
     6  H    0.086743
     7  H    0.103583
     8  H    0.053284
 Sum of Mulliken charges =   0.00000

 Dipole moment (field-independent basis, Debye):
    X=              3.8721    Y=             -0.5947    Z=              0.3785  Tot=              3.9357
 Quadrupole moment (field-independent basis, Debye-Ang):
   XX=            -27.6086   YY=            -22.1049   ZZ=            -25.1489
   XY=              0.2274   XZ=             -0.2236   YZ=              0.2330

 Normal termination of Gaussian 09 at Wed Aug 26 11:57:34 2020.
