 Gaussian 09, Revision D.01,
 Gaussian 09:  ES64L-G09RevD.01 24-Apr-2013

 --------------------
 #p B2PLYPD3/Def2QZVP
 --------------------

 --------
 acrolein
 --------
 Symbolic Z-matrix:
 Charge =  0 Multiplicity = 1

                         Standard orientation:
 ---------------------------------------------------------------------
 Center     Atomic      Atomic             Coordinates (Angstroms)
 Number     Number       Type             X           Y           Z
 ---------------------------------------------------------------------
      1          6           0       -0.684444    0.366702   -0.007237
      2          8           0       -1.781556   -0.136533    0.020989
      3          6           0        0.567057   -0.449209   -0.033251
      4          6           0        1.751270    0.139634    0.009007
      5          1           0        0.471725   -1.485856   -0.025977
      6          1           0        1.839504    1.202006    0.022407
      7          1           0        2.666228   -0.420443    0.085120
      8          1           0       -0.528303    1.453794   -0.060574
 ---------------------------------------------------------------------

 SCF Done:  E(RB2PLYPD3) =  -191.615839756     A.U. after   12 cycles
 E2(B2PLYPD3) =    -0.2463653856D+00 E(B2PLYPD3) =    -0.19186220514191D+03

 The electronic state is 1-A.
 Alpha  occ. eigenvalues --  -19.72937 -10.71748 -10.64725 -10.63775  -1.19813
 Alpha  occ. eigenvalues --   -0.92951  -0.75088  -0.67696  -0.56760  -0.56479
 Alpha  occ. eigenvalues --   -0.50913  -0.47233  -0.46802  -0.34719  -0.33843
 Alpha virt. eigenvalues --   -0.01320   0.05824   0.07404   0.07982   0.09762
 Alpha virt. eigenvalues --    0.12612   0.14026   0.15421   0.17768   0.19763
 Alpha virt. eigenvalues --    0.19974   0.21623   0.25561   0.26417   0.28643

 Mulliken charges:
               1
     1  C    0.153774
     2  O   -0.344389
     3  C   -0.048779
     4  C   -0.130680
     5  H    0.110480
     6  H    0.081333
     7  H    0.097638
     8  H    0.080624
 Sum of Mulliken charges =   0.00000

 Dipole moment (field-independent basis, Debye):
    X=              3.3466    Y=              0.8372    Z=             -0.0037  Tot=              3.4497
 Quadrupole moment (field-independent basis, Debye-Ang):
   XX=            -27.4464   YY=            -21.6679   ZZ=            -25.1280
   XY=             -1.0494   XZ=              0.3469   YZ=             -0.0278

 Normal termination of Gaussian 09 at Wed Aug 26 17:58:33 2020.
