 Gaussian 09, Revision D.01,
 Gaussian 09:  ES64L-G09RevD.01 24-Apr-2013

 --------------------
 #p B2PLYPD3/Def2QZVP
 --------------------

 --------
 acrolein
 --------
 Symbolic Z-matrix:
 Charge =  0 Multiplicity = 1

                         Standard orientation:
 ---------------------------------------------------------------------
 Center     Atomic      Atomic             Coordinates (Angstroms)
 Number     Number       Type             X           Y           Z
 ---------------------------------------------------------------------
      1          6           0        0.694173    0.358951   -0.029046
      2          8           0        1.782302   -0.131827    0.035135
      3          6           0       -0.524011   -0.444435   -0.012215
      4          6           0       -1.775606    0.121957    0.005792
      5          1           0       -0.474823   -1.489161   -0.036980
      6          1           0       -2.014839    1.246010    0.213838
      7          1           0       -2.689843   -0.460142   -0.059298
      8          1           0        0.553752    1.539072   -0.185826
 ---------------------------------------------------------------------

 SCF Done:  E(RB2PLYPD3) =  -191.601061002     A.U. after   13 cycles
 E2(B2PLYPD3) =    -0.2484731179D+00 E(B2PLYPD3) =    -0.19184953411979D+03

 The electronic state is 1-A.
 Alpha  occ. eigenvalues --  -19.72943 -10.72287 -10.66946 -10.64764  -1.20663
 Alpha  occ. eigenvalues --   -0.91852  -0.75008  -0.65960  -0.56473  -0.55840
 Alpha  occ. eigenvalues --   -0.50365  -0.47304  -0.46301  -0.33941  -0.33726
 Alpha virt. eigenvalues --   -0.02243   0.05535   0.07069   0.08010   0.09527
 Alpha virt. eigenvalues --    0.12134   0.13903   0.15487   0.17690   0.19196
 Alpha virt. eigenvalues --    0.20070   0.21397   0.24645   0.26267   0.28274

 Mulliken charges:
               1
     1  C    0.161927
     2  O   -0.331263
     3  C   -0.058931
     4  C   -0.124615
     5  H    0.113559
     6  H    0.080624
     7  H    0.097118
     8  H    0.061580
 Sum of Mulliken charges =   0.00000

 Dipole moment (field-independent basis, Debye):
    X=             -3.4310    Y=              0.6619    Z=             -0.0661  Tot=              3.4949
 Quadrupole moment (field-independent basis, Debye-Ang):
   XX=            -26.9611   YY=            -21.9640   ZZ=            -25.4182
   XY=              0.9132   XZ=             -0.3722   YZ=              0.2698

 Normal termination of Gaussian 09 at Wed Aug 26 12:37:13 2020.
