 Gaussian 09, Revision D.01,
 Gaussian 09:  ES64L-G09RevD.01 24-Apr-2013

 --------------------
 #p B2PLYPD3/Def2QZVP
 --------------------

 --------
 acrolein
 --------
 Symbolic Z-matrix:
 Charge =  0 Multiplicity = 1

                         Standard orientation:
 ---------------------------------------------------------------------
 Center     Atomic      Atomic             Coordinates (Angstroms)
 Number     Number       Type             X           Y           Z
 ---------------------------------------------------------------------
      1          6           0       -0.681259   -0.344621   -0.037561
      2          8           0       -1.791873    0.104773    0.027535
      3          6           0        0.573118    0.456055   -0.006181
      4          6           0        1.755669   -0.158540   -0.002867
      5          1           0        0.413227    1.626379   -0.028482
      6          1           0        1.896184   -1.240458    0.093698
      7          1           0        2.687938    0.420238    0.038183
      8          1           0       -0.547533   -1.361710   -0.044023
 ---------------------------------------------------------------------

 SCF Done:  E(RB2PLYPD3) =  -191.605692847     A.U. after   12 cycles
 E2(B2PLYPD3) =    -0.2467948940D+00 E(B2PLYPD3) =    -0.19185248774134D+03

 The electronic state is 1-A.
 Alpha  occ. eigenvalues --  -19.72658 -10.70663 -10.65716 -10.65456  -1.20078
 Alpha  occ. eigenvalues --   -0.92450  -0.75451  -0.67062  -0.56983  -0.55632
 Alpha  occ. eigenvalues --   -0.50622  -0.46934  -0.45797  -0.34722  -0.33751
 Alpha virt. eigenvalues --   -0.01484   0.05709   0.06881   0.08148   0.09596
 Alpha virt. eigenvalues --    0.12602   0.14209   0.15318   0.17159   0.19600
 Alpha virt. eigenvalues --    0.19964   0.21677   0.25214   0.26797   0.28282

 Mulliken charges:
               1
     1  C    0.165438
     2  O   -0.345530
     3  C   -0.047579
     4  C   -0.131184
     5  H    0.096010
     6  H    0.086315
     7  H    0.099042
     8  H    0.077487
 Sum of Mulliken charges =   0.00000

 Dipole moment (field-independent basis, Debye):
    X=              3.3970    Y=             -0.8223    Z=             -0.0332  Tot=              3.4952
 Quadrupole moment (field-independent basis, Debye-Ang):
   XX=            -27.5251   YY=            -21.6001   ZZ=            -25.2631
   XY=              0.6900   XZ=              0.3777   YZ=             -0.1256

 Normal termination of Gaussian 09 at Wed Aug 26 09:13:23 2020.
