 Gaussian 09, Revision D.01,
 Gaussian 09:  ES64L-G09RevD.01 24-Apr-2013

 --------------------
 #p B2PLYPD3/Def2QZVP
 --------------------

 --------
 acrolein
 --------
 Symbolic Z-matrix:
 Charge =  0 Multiplicity = 1

                         Standard orientation:
 ---------------------------------------------------------------------
 Center     Atomic      Atomic             Coordinates (Angstroms)
 Number     Number       Type             X           Y           Z
 ---------------------------------------------------------------------
      1          6           0        0.679697    0.359406    0.013525
      2          8           0        1.790458   -0.132760   -0.012971
      3          6           0       -0.563800   -0.447587    0.000536
      4          6           0       -1.752795    0.139116   -0.000043
      5          1           0       -0.487975   -1.515310    0.039369
      6          1           0       -1.827102    1.202559   -0.045344
      7          1           0       -2.662161   -0.425478   -0.017908
      8          1           0        0.474956    1.494697    0.043553
 ---------------------------------------------------------------------

 SCF Done:  E(RB2PLYPD3) =  -191.614640876     A.U. after   12 cycles
 E2(B2PLYPD3) =    -0.2475436748D+00 E(B2PLYPD3) =    -0.19186218455070D+03

 The electronic state is 1-A.
 Alpha  occ. eigenvalues --  -19.73177 -10.72423 -10.64905 -10.64177  -1.19450
 Alpha  occ. eigenvalues --   -0.93110  -0.75214  -0.66746  -0.56633  -0.56176
 Alpha  occ. eigenvalues --   -0.50644  -0.47087  -0.46712  -0.34782  -0.33926
 Alpha virt. eigenvalues --   -0.01652   0.05796   0.07085   0.08008   0.09776
 Alpha virt. eigenvalues --    0.12629   0.13847   0.15330   0.17465   0.19819
 Alpha virt. eigenvalues --    0.20030   0.21608   0.25470   0.26404   0.28611

 Mulliken charges:
               1
     1  C    0.156794
     2  O   -0.344107
     3  C   -0.036740
     4  C   -0.130026
     5  H    0.104346
     6  H    0.081852
     7  H    0.101219
     8  H    0.066663
 Sum of Mulliken charges =   0.00000

 Dipole moment (field-independent basis, Debye):
    X=             -3.4478    Y=              0.7528    Z=              0.0395  Tot=              3.5293
 Quadrupole moment (field-independent basis, Debye-Ang):
   XX=            -27.4506   YY=            -21.7868   ZZ=            -25.2257
   XY=              0.9997   XZ=              0.1521   YZ=             -0.0845

 Normal termination of Gaussian 09 at Wed Aug 26 19:32:23 2020.
