 Gaussian 09, Revision D.01,
 Gaussian 09:  ES64L-G09RevD.01 24-Apr-2013

 --------------------
 #p B2PLYPD3/Def2QZVP
 --------------------

 --------
 acrolein
 --------
 Symbolic Z-matrix:
 Charge =  0 Multiplicity = 1

                         Standard orientation:
 ---------------------------------------------------------------------
 Center     Atomic      Atomic             Coordinates (Angstroms)
 Number     Number       Type             X           Y           Z
 ---------------------------------------------------------------------
      1          6           0       -0.676699    0.337859    0.030906
      2          8           0       -1.788906   -0.105740   -0.023675
      3          6           0        0.555895   -0.460010    0.008627
      4          6           0        1.763901    0.142638   -0.021560
      5          1           0        0.442719   -1.541559    0.049306
      6          1           0        1.886279    1.282841   -0.016427
      7          1           0        2.641396   -0.426018    0.006469
      8          1           0       -0.517732    1.407739    0.042212
 ---------------------------------------------------------------------

 SCF Done:  E(RB2PLYPD3) =  -191.612856191     A.U. after   12 cycles
 E2(B2PLYPD3) =    -0.2468918915D+00 E(B2PLYPD3) =    -0.19185974808208D+03

 The electronic state is 1-A.
 Alpha  occ. eigenvalues --  -19.72660 -10.71038 -10.66024 -10.64682  -1.20153
 Alpha  occ. eigenvalues --   -0.92518  -0.75612  -0.66917  -0.56663  -0.56122
 Alpha  occ. eigenvalues --   -0.50765  -0.47106  -0.46746  -0.34443  -0.33745
 Alpha virt. eigenvalues --   -0.01806   0.05685   0.07202   0.08335   0.09643
 Alpha virt. eigenvalues --    0.12491   0.14097   0.15380   0.17598   0.19373
 Alpha virt. eigenvalues --    0.19987   0.21726   0.25333   0.26561   0.28616

 Mulliken charges:
               1
     1  C    0.159934
     2  O   -0.343426
     3  C   -0.045139
     4  C   -0.132258
     5  H    0.102960
     6  H    0.083431
     7  H    0.105544
     8  H    0.068953
 Sum of Mulliken charges =   0.00000

 Dipole moment (field-independent basis, Debye):
    X=              3.4696    Y=              0.7006    Z=              0.1394  Tot=              3.5424
 Quadrupole moment (field-independent basis, Debye-Ang):
   XX=            -27.4087   YY=            -21.6851   ZZ=            -25.2610
   XY=             -0.8053   XZ=             -0.0938   YZ=             -0.0804

 Normal termination of Gaussian 09 at Wed Aug 26 12:14:25 2020.
