 Gaussian 09, Revision D.01,
 Gaussian 09:  ES64L-G09RevD.01 24-Apr-2013

 --------------------
 #p B2PLYPD3/Def2QZVP
 --------------------

 --------
 acrolein
 --------
 Symbolic Z-matrix:
 Charge =  0 Multiplicity = 1

                         Standard orientation:
 ---------------------------------------------------------------------
 Center     Atomic      Atomic             Coordinates (Angstroms)
 Number     Number       Type             X           Y           Z
 ---------------------------------------------------------------------
      1          6           0        0.668110    0.342523   -0.010286
      2          8           0        1.795854   -0.108392    0.013389
      3          6           0       -0.578582   -0.464540   -0.048389
      4          6           0       -1.754629    0.161874    0.004913
      5          1           0       -0.428794   -1.570499    0.095167
      6          1           0       -1.792525    1.222701    0.033205
      7          1           0       -2.680884   -0.399387    0.066377
      8          1           0        0.525975    1.375181    0.020706
 ---------------------------------------------------------------------

 SCF Done:  E(RB2PLYPD3) =  -191.611435261     A.U. after   12 cycles
 E2(B2PLYPD3) =    -0.2471481760D+00 E(B2PLYPD3) =    -0.19185858343700D+03

 The electronic state is 1-A.
 Alpha  occ. eigenvalues --  -19.72671 -10.71000 -10.65367 -10.64925  -1.19143
 Alpha  occ. eigenvalues --   -0.92976  -0.75546  -0.67499  -0.56827  -0.56198
 Alpha  occ. eigenvalues --   -0.50523  -0.47090  -0.46235  -0.34737  -0.33772
 Alpha virt. eigenvalues --   -0.01676   0.05798   0.07040   0.07955   0.09710
 Alpha virt. eigenvalues --    0.12708   0.13857   0.15289   0.17469   0.19893
 Alpha virt. eigenvalues --    0.19959   0.21609   0.25020   0.26876   0.28936

 Mulliken charges:
               1
     1  C    0.155356
     2  O   -0.353761
     3  C   -0.040725
     4  C   -0.131106
     5  H    0.102636
     6  H    0.087121
     7  H    0.103417
     8  H    0.077061
 Sum of Mulliken charges =   0.00000

 Dipole moment (field-independent basis, Debye):
    X=             -3.5050    Y=              0.8050    Z=              0.1403  Tot=              3.5990
 Quadrupole moment (field-independent basis, Debye-Ang):
   XX=            -27.6653   YY=            -21.6346   ZZ=            -25.1913
   XY=              0.8522   XZ=             -0.3400   YZ=             -0.1553

 Normal termination of Gaussian 09 at Wed Aug 26 07:35:40 2020.
