 Gaussian 09, Revision D.01,
 Gaussian 09:  ES64L-G09RevD.01 24-Apr-2013

 --------------------
 #p B2PLYPD3/Def2QZVP
 --------------------

 --------
 acrolein
 --------
 Symbolic Z-matrix:
 Charge =  0 Multiplicity = 1

                         Standard orientation:
 ---------------------------------------------------------------------
 Center     Atomic      Atomic             Coordinates (Angstroms)
 Number     Number       Type             X           Y           Z
 ---------------------------------------------------------------------
      1          6           0       -0.668604    0.345739   -0.004991
      2          8           0       -1.795108   -0.118216    0.013827
      3          6           0        0.558823   -0.446107   -0.023342
      4          6           0        1.750051    0.135012    0.013891
      5          1           0        0.438145   -1.498807   -0.023406
      6          1           0        1.854276    1.229045   -0.012115
      7          1           0        2.710578   -0.428089    0.046725
      8          1           0       -0.483757    1.435710   -0.035166
 ---------------------------------------------------------------------

 SCF Done:  E(RB2PLYPD3) =  -191.615182385     A.U. after   13 cycles
 E2(B2PLYPD3) =    -0.2475313041D+00 E(B2PLYPD3) =    -0.19186271368937D+03

 The electronic state is 1-A.
 Alpha  occ. eigenvalues --  -19.72891 -10.71635 -10.66008 -10.64104  -1.19073
 Alpha  occ. eigenvalues --   -0.93318  -0.75469  -0.67224  -0.56593  -0.56086
 Alpha  occ. eigenvalues --   -0.50620  -0.46745  -0.46491  -0.34861  -0.33916
 Alpha virt. eigenvalues --   -0.01903   0.05613   0.07210   0.08229   0.09699
 Alpha virt. eigenvalues --    0.12478   0.13937   0.15326   0.17652   0.19686
 Alpha virt. eigenvalues --    0.19951   0.21363   0.25506   0.26491   0.28699

 Mulliken charges:
               1
     1  C    0.157334
     2  O   -0.353810
     3  C   -0.034780
     4  C   -0.126977
     5  H    0.107586
     6  H    0.082196
     7  H    0.099468
     8  H    0.068983
 Sum of Mulliken charges =   0.00000

 Dipole moment (field-independent basis, Debye):
    X=              3.5723    Y=              0.7416    Z=             -0.0384  Tot=              3.6487
 Quadrupole moment (field-independent basis, Debye-Ang):
   XX=            -27.4032   YY=            -21.8497   ZZ=            -25.2080
   XY=             -0.8300   XZ=              0.1574   YZ=             -0.0359

 Normal termination of Gaussian 09 at Wed Aug 26 10:33:29 2020.
