 Gaussian 09, Revision D.01,
 Gaussian 09:  ES64L-G09RevD.01 24-Apr-2013

 --------------------
 #p B2PLYPD3/Def2QZVP
 --------------------

 --------
 acrolein
 --------
 Symbolic Z-matrix:
 Charge =  0 Multiplicity = 1

                         Standard orientation:
 ---------------------------------------------------------------------
 Center     Atomic      Atomic             Coordinates (Angstroms)
 Number     Number       Type             X           Y           Z
 ---------------------------------------------------------------------
      1          6           0        0.683446    0.352675    0.002651
      2          8           0        1.786190   -0.134546    0.015351
      3          6           0       -0.546058   -0.441104   -0.043756
      4          6           0       -1.767852    0.151291    0.009838
      5          1           0       -0.461328   -1.541967    0.010663
      6          1           0       -1.799266    1.156721   -0.004456
      7          1           0       -2.761734   -0.441434    0.092317
      8          1           0        0.515589    1.525872   -0.033733
 ---------------------------------------------------------------------

 SCF Done:  E(RB2PLYPD3) =  -191.602738977     A.U. after   13 cycles
 E2(B2PLYPD3) =    -0.2484863482D+00 E(B2PLYPD3) =    -0.19185122532505D+03

 The electronic state is 1-A.
 Alpha  occ. eigenvalues --  -19.73081 -10.72448 -10.65897 -10.64988  -1.20047
 Alpha  occ. eigenvalues --   -0.92563  -0.75182  -0.66262  -0.56544  -0.55762
 Alpha  occ. eigenvalues --   -0.49964  -0.47128  -0.47004  -0.34313  -0.33845
 Alpha virt. eigenvalues --   -0.02107   0.05653   0.06752   0.08124   0.09771
 Alpha virt. eigenvalues --    0.12293   0.13776   0.15325   0.17240   0.19815
 Alpha virt. eigenvalues --    0.20289   0.21274   0.25130   0.26038   0.28902

 Mulliken charges:
               1
     1  C    0.154577
     2  O   -0.338095
     3  C   -0.032507
     4  C   -0.134941
     5  H    0.103362
     6  H    0.091985
     7  H    0.102418
     8  H    0.053200
 Sum of Mulliken charges =   0.00000

 Dipole moment (field-independent basis, Debye):
    X=             -3.4542    Y=              0.7238    Z=              0.0504  Tot=              3.5296
 Quadrupole moment (field-independent basis, Debye-Ang):
   XX=            -27.1840   YY=            -21.9538   ZZ=            -25.3942
   XY=              1.0422   XZ=             -0.3241   YZ=             -0.1151

 Normal termination of Gaussian 09 at Wed Aug 26 08:38:04 2020.
