 Gaussian 09, Revision D.01,
 Gaussian 09:  ES64L-G09RevD.01 24-Apr-2013

 --------------------
 #p B2PLYPD3/Def2QZVP
 --------------------

 --------
 acrolein
 --------
 Symbolic Z-matrix:
 Charge =  0 Multiplicity = 1

                         Standard orientation:
 ---------------------------------------------------------------------
 Center     Atomic      Atomic             Coordinates (Angstroms)
 Number     Number       Type             X           Y           Z
 ---------------------------------------------------------------------
      1          6           0        0.674626    0.359395    0.001894
      2          8           0        1.783235   -0.129437   -0.014241
      3          6           0       -0.557930   -0.456797    0.005574
      4          6           0       -1.750862    0.141759   -0.031146
      5          1           0       -0.435379   -1.535427    0.081779
      6          1           0       -1.817362    1.215518   -0.017634
      7          1           0       -2.659695   -0.450149    0.063032
      8          1           0        0.451549    1.539412    0.128822
 ---------------------------------------------------------------------

 SCF Done:  E(RB2PLYPD3) =  -191.609483387     A.U. after   12 cycles
 E2(B2PLYPD3) =    -0.2484528084D+00 E(B2PLYPD3) =    -0.19185793619587D+03

 The electronic state is 1-A.
 Alpha  occ. eigenvalues --  -19.73289 -10.72755 -10.65406 -10.64567  -1.19757
 Alpha  occ. eigenvalues --   -0.92868  -0.74876  -0.65925  -0.56417  -0.55698
 Alpha  occ. eigenvalues --   -0.50382  -0.47305  -0.46685  -0.34694  -0.33759
 Alpha virt. eigenvalues --   -0.01745   0.05720   0.06702   0.08012   0.09831
 Alpha virt. eigenvalues --    0.12514   0.13590   0.15313   0.17195   0.19588
 Alpha virt. eigenvalues --    0.20067   0.21620   0.25195   0.26513   0.28533

 Mulliken charges:
               1
     1  C    0.163450
     2  O   -0.340305
     3  C   -0.038625
     4  C   -0.128643
     5  H    0.106086
     6  H    0.086202
     7  H    0.101331
     8  H    0.050503
 Sum of Mulliken charges =   0.00000

 Dipole moment (field-independent basis, Debye):
    X=             -3.4052    Y=              0.6616    Z=              0.1835  Tot=              3.4737
 Quadrupole moment (field-independent basis, Debye-Ang):
   XX=            -27.5314   YY=            -21.8261   ZZ=            -25.3354
   XY=              0.8589   XZ=             -0.1147   YZ=             -0.1199

 Normal termination of Gaussian 09 at Wed Aug 26 09:10:20 2020.
