 Gaussian 09, Revision D.01,
 Gaussian 09:  ES64L-G09RevD.01 24-Apr-2013

 --------------------
 #p B2PLYPD3/Def2QZVP
 --------------------

 --------
 acrolein
 --------
 Symbolic Z-matrix:
 Charge =  0 Multiplicity = 1

                         Standard orientation:
 ---------------------------------------------------------------------
 Center     Atomic      Atomic             Coordinates (Angstroms)
 Number     Number       Type             X           Y           Z
 ---------------------------------------------------------------------
      1          6           0        0.666224    0.337438    0.006100
      2          8           0        1.796233   -0.113311   -0.002848
      3          6           0       -0.563479   -0.453153    0.002930
      4          6           0       -1.748760    0.144410   -0.012319
      5          1           0       -0.439895   -1.500733   -0.018472
      6          1           0       -1.819826    1.232726   -0.026068
      7          1           0       -2.714552   -0.426961    0.062662
      8          1           0        0.480499    1.429286    0.024400
 ---------------------------------------------------------------------

 SCF Done:  E(RB2PLYPD3) =  -191.614604654     A.U. after   13 cycles
 E2(B2PLYPD3) =    -0.2475145038D+00 E(B2PLYPD3) =    -0.19186211915765D+03

 The electronic state is 1-A.
 Alpha  occ. eigenvalues --  -19.72869 -10.71584 -10.66076 -10.64100  -1.19152
 Alpha  occ. eigenvalues --   -0.93377  -0.75346  -0.67299  -0.56406  -0.56168
 Alpha  occ. eigenvalues --   -0.50541  -0.46970  -0.46587  -0.34875  -0.33841
 Alpha virt. eigenvalues --   -0.01900   0.05625   0.07188   0.08225   0.09728
 Alpha virt. eigenvalues --    0.12514   0.13835   0.15313   0.17665   0.19637
 Alpha virt. eigenvalues --    0.19963   0.21365   0.25494   0.26521   0.28794

 Mulliken charges:
               1
     1  C    0.155894
     2  O   -0.353105
     3  C   -0.032059
     4  C   -0.128010
     5  H    0.107261
     6  H    0.085085
     7  H    0.099937
     8  H    0.064997
 Sum of Mulliken charges =   0.00000

 Dipole moment (field-independent basis, Debye):
    X=             -3.5672    Y=              0.7075    Z=              0.0367  Tot=              3.6369
 Quadrupole moment (field-independent basis, Debye-Ang):
   XX=            -27.4864   YY=            -21.8425   ZZ=            -25.2053
   XY=              0.8262   XZ=             -0.0947   YZ=             -0.0292

 Normal termination of Gaussian 09 at Wed Aug 26 15:44:18 2020.
