 Gaussian 09, Revision D.01,
 Gaussian 09:  ES64L-G09RevD.01 24-Apr-2013

 --------------------
 #p B2PLYPD3/Def2QZVP
 --------------------

 --------
 acrolein
 --------
 Symbolic Z-matrix:
 Charge =  0 Multiplicity = 1

                         Standard orientation:
 ---------------------------------------------------------------------
 Center     Atomic      Atomic             Coordinates (Angstroms)
 Number     Number       Type             X           Y           Z
 ---------------------------------------------------------------------
      1          6           0       -0.670821    0.337901    0.017004
      2          8           0       -1.796053   -0.116206   -0.018590
      3          6           0        0.567158   -0.452814   -0.003314
      4          6           0        1.756912    0.147516   -0.001035
      5          1           0        0.450898   -1.523712    0.079089
      6          1           0        1.837985    1.227191   -0.049941
      7          1           0        2.670704   -0.429394   -0.030825
      8          1           0       -0.510661    1.459949    0.074466
 ---------------------------------------------------------------------

 SCF Done:  E(RB2PLYPD3) =  -191.615918711     A.U. after   12 cycles
 E2(B2PLYPD3) =    -0.2475303029D+00 E(B2PLYPD3) =    -0.19186344901392D+03

 The electronic state is 1-A.
 Alpha  occ. eigenvalues --  -19.72905 -10.71879 -10.65588 -10.64506  -1.19342
 Alpha  occ. eigenvalues --   -0.93132  -0.75436  -0.66635  -0.56498  -0.56299
 Alpha  occ. eigenvalues --   -0.50481  -0.47235  -0.46554  -0.34813  -0.33749
 Alpha virt. eigenvalues --   -0.01862   0.05761   0.07061   0.08167   0.09731
 Alpha virt. eigenvalues --    0.12558   0.13851   0.15234   0.17492   0.19732
 Alpha virt. eigenvalues --    0.19992   0.21591   0.25247   0.26507   0.28721

 Mulliken charges:
               1
     1  C    0.156548
     2  O   -0.347897
     3  C   -0.035898
     4  C   -0.128579
     5  H    0.104513
     6  H    0.087288
     7  H    0.102805
     8  H    0.061220
 Sum of Mulliken charges =   0.00000

 Dipole moment (field-independent basis, Debye):
    X=              3.5355    Y=              0.6929    Z=              0.0867  Tot=              3.6038
 Quadrupole moment (field-independent basis, Debye-Ang):
   XX=            -27.4636   YY=            -21.8100   ZZ=            -25.2349
   XY=             -0.8671   XZ=             -0.2024   YZ=             -0.1388

 Normal termination of Gaussian 09 at Wed Aug 26 18:53:10 2020.
