 Gaussian 09, Revision D.01,
 Gaussian 09:  ES64L-G09RevD.01 24-Apr-2013

 --------------------
 #p B2PLYPD3/Def2QZVP
 --------------------

 --------
 acrolein
 --------
 Symbolic Z-matrix:
 Charge =  0 Multiplicity = 1

                         Standard orientation:
 ---------------------------------------------------------------------
 Center     Atomic      Atomic             Coordinates (Angstroms)
 Number     Number       Type             X           Y           Z
 ---------------------------------------------------------------------
      1          6           0        0.637556    0.338357    0.035335
      2          8           0        1.793330   -0.121953   -0.043598
      3          6           0       -0.526994   -0.419786    0.032592
      4          6           0       -1.738135    0.127604   -0.044088
      5          1           0       -0.440332   -1.555860    0.181617
      6          1           0       -1.825342    1.262649    0.115012
      7          1           0       -2.828284   -0.469861   -0.140702
      8          1           0        0.512755    1.461645    0.049817
 ---------------------------------------------------------------------

 SCF Done:  E(RB2PLYPD3) =  -191.584705355     A.U. after   14 cycles
 E2(B2PLYPD3) =    -0.2512786205D+00 E(B2PLYPD3) =    -0.19183598397523D+03

 The electronic state is 1-A.
 Alpha  occ. eigenvalues --  -19.72542 -10.71619 -10.68480 -10.65040  -1.17346
 Alpha  occ. eigenvalues --   -0.94051  -0.75643  -0.65727  -0.56285  -0.55033
 Alpha  occ. eigenvalues --   -0.49049  -0.46724  -0.44392  -0.34579  -0.33965
 Alpha virt. eigenvalues --   -0.03012   0.04790   0.06054   0.08391   0.09523
 Alpha virt. eigenvalues --    0.11754   0.13835   0.15063   0.17336   0.19254
 Alpha virt. eigenvalues --    0.20046   0.20539   0.25152   0.26242   0.29062

 Mulliken charges:
               1
     1  C    0.148953
     2  O   -0.367437
     3  C   -0.014672
     4  C   -0.112319
     5  H    0.101200
     6  H    0.080821
     7  H    0.100323
     8  H    0.063130
 Sum of Mulliken charges =   0.00000

 Dipole moment (field-independent basis, Debye):
    X=             -3.8978    Y=              0.7272    Z=              0.2894  Tot=              3.9756
 Quadrupole moment (field-independent basis, Debye-Ang):
   XX=            -27.4001   YY=            -22.0005   ZZ=            -25.4119
   XY=              1.0886   XZ=              0.2845   YZ=             -0.0042

 Normal termination of Gaussian 09 at Wed Aug 26 14:42:03 2020.
