 Gaussian 09, Revision D.01,
 Gaussian 09:  ES64L-G09RevD.01 24-Apr-2013

 --------------------
 #p B2PLYPD3/Def2QZVP
 --------------------

 --------
 acrolein
 --------
 Symbolic Z-matrix:
 Charge =  0 Multiplicity = 1

                         Standard orientation:
 ---------------------------------------------------------------------
 Center     Atomic      Atomic             Coordinates (Angstroms)
 Number     Number       Type             X           Y           Z
 ---------------------------------------------------------------------
      1          6           0        0.676793   -0.332130    0.045971
      2          8           0        1.807462    0.081053   -0.038524
      3          6           0       -0.577596    0.474900    0.031376
      4          6           0       -1.799666   -0.175554   -0.041026
      5          1           0       -0.360999    1.714584   -0.042287
      6          1           0       -1.886090   -1.240658   -0.160682
      7          1           0       -2.545401    0.421414    0.142577
      8          1           0        0.535607   -1.347058    0.150668
 ---------------------------------------------------------------------

 SCF Done:  E(RB2PLYPD3) =  -191.576966192     A.U. after   14 cycles
 E2(B2PLYPD3) =    -0.2487627647D+00 E(B2PLYPD3) =    -0.19182572895624D+03

 The electronic state is 1-A.
 Alpha  occ. eigenvalues --  -19.72641 -10.70699 -10.66966 -10.65272  -1.19570
 Alpha  occ. eigenvalues --   -0.91967  -0.76635  -0.66451  -0.57270  -0.56067
 Alpha  occ. eigenvalues --   -0.50451  -0.46476  -0.46358  -0.34118  -0.33302
 Alpha virt. eigenvalues --   -0.02523   0.05844   0.06540   0.07926   0.09566
 Alpha virt. eigenvalues --    0.12347   0.13883   0.15616   0.16845   0.19060
 Alpha virt. eigenvalues --    0.20054   0.22104   0.24842   0.26454   0.28339

 Mulliken charges:
               1
     1  C    0.162689
     2  O   -0.348658
     3  C   -0.056530
     4  C   -0.140507
     5  H    0.094459
     6  H    0.099854
     7  H    0.114923
     8  H    0.073770
 Sum of Mulliken charges =   0.00000

 Dipole moment (field-independent basis, Debye):
    X=             -3.4675    Y=             -0.7705    Z=              0.1338  Tot=              3.5545
 Quadrupole moment (field-independent basis, Debye-Ang):
   XX=            -27.9282   YY=            -21.3959   ZZ=            -25.3758
   XY=             -0.4437   XZ=              0.1587   YZ=              0.1619

 Normal termination of Gaussian 09 at Wed Aug 26 11:16:53 2020.
