 Gaussian 09, Revision D.01,
 Gaussian 09:  ES64L-G09RevD.01 24-Apr-2013

 --------------------
 #p B2PLYPD3/Def2QZVP
 --------------------

 --------
 acrolein
 --------
 Symbolic Z-matrix:
 Charge =  0 Multiplicity = 1

                         Standard orientation:
 ---------------------------------------------------------------------
 Center     Atomic      Atomic             Coordinates (Angstroms)
 Number     Number       Type             X           Y           Z
 ---------------------------------------------------------------------
      1          6           0        0.660257    0.350010    0.005547
      2          8           0        1.787123   -0.120343   -0.022734
      3          6           0       -0.579348   -0.466910    0.019695
      4          6           0       -1.742164    0.150067   -0.022770
      5          1           0       -0.462094   -1.510848    0.067712
      6          1           0       -1.767999    1.229067   -0.057639
      7          1           0       -2.610597   -0.390768    0.005560
      8          1           0        0.511239    1.436286    0.151405
 ---------------------------------------------------------------------

 SCF Done:  E(RB2PLYPD3) =  -191.612819294     A.U. after   12 cycles
 E2(B2PLYPD3) =    -0.2469409999D+00 E(B2PLYPD3) =    -0.19185976029394D+03

 The electronic state is 1-A.
 Alpha  occ. eigenvalues --  -19.72812 -10.71727 -10.64442 -10.63935  -1.18831
 Alpha  occ. eigenvalues --   -0.93613  -0.75520  -0.67466  -0.57359  -0.56159
 Alpha  occ. eigenvalues --   -0.50666  -0.47737  -0.46248  -0.34940  -0.33757
 Alpha virt. eigenvalues --   -0.01483   0.05890   0.07147   0.07920   0.09804
 Alpha virt. eigenvalues --    0.12755   0.14018   0.15293   0.17489   0.19482
 Alpha virt. eigenvalues --    0.20263   0.21857   0.25315   0.26696   0.28939

 Mulliken charges:
               1
     1  C    0.154502
     2  O   -0.353967
     3  C   -0.042881
     4  C   -0.127754
     5  H    0.108400
     6  H    0.084453
     7  H    0.102561
     8  H    0.074687
 Sum of Mulliken charges =   0.00000

 Dipole moment (field-independent basis, Debye):
    X=             -3.4895    Y=              0.7408    Z=              0.1295  Tot=              3.5696
 Quadrupole moment (field-independent basis, Debye-Ang):
   XX=            -27.7134   YY=            -21.5929   ZZ=            -25.0848
   XY=              0.9920   XZ=              0.1624   YZ=             -0.0949

 Normal termination of Gaussian 09 at Wed Aug 26 21:03:09 2020.
