 Gaussian 09, Revision D.01,
 Gaussian 09:  ES64L-G09RevD.01 24-Apr-2013

 --------------------
 #p B2PLYPD3/Def2QZVP
 --------------------

 --------
 acrolein
 --------
 Symbolic Z-matrix:
 Charge =  0 Multiplicity = 1

                         Standard orientation:
 ---------------------------------------------------------------------
 Center     Atomic      Atomic             Coordinates (Angstroms)
 Number     Number       Type             X           Y           Z
 ---------------------------------------------------------------------
      1          6           0       -0.670872    0.353163   -0.011717
      2          8           0       -1.782594   -0.129571    0.011794
      3          6           0        0.565284   -0.437371   -0.008736
      4          6           0        1.746560    0.143388    0.003532
      5          1           0        0.441715   -1.509356    0.002257
      6          1           0        1.763486    1.157831    0.072015
      7          1           0        2.713282   -0.404223   -0.014964
      8          1           0       -0.503566    1.437234   -0.052137
 ---------------------------------------------------------------------

 SCF Done:  E(RB2PLYPD3) =  -191.612910934     A.U. after   12 cycles
 E2(B2PLYPD3) =    -0.2466373098D+00 E(B2PLYPD3) =    -0.19185954824352D+03

 The electronic state is 1-A.
 Alpha  occ. eigenvalues --  -19.72904 -10.71553 -10.64739 -10.63945  -1.19489
 Alpha  occ. eigenvalues --   -0.93642  -0.75599  -0.67525  -0.57010  -0.56402
 Alpha  occ. eigenvalues --   -0.50756  -0.47014  -0.46768  -0.34926  -0.33945
 Alpha virt. eigenvalues --   -0.01613   0.05814   0.07215   0.08242   0.09837
 Alpha virt. eigenvalues --    0.12670   0.14008   0.15358   0.17415   0.19811
 Alpha virt. eigenvalues --    0.20306   0.21566   0.25628   0.26475   0.28986

 Mulliken charges:
               1
     1  C    0.149943
     2  O   -0.349752
     3  C   -0.027836
     4  C   -0.134650
     5  H    0.103315
     6  H    0.084691
     7  H    0.102499
     8  H    0.071791
 Sum of Mulliken charges =   0.00000

 Dipole moment (field-independent basis, Debye):
    X=              3.4582    Y=              0.8001    Z=             -0.0061  Tot=              3.5496
 Quadrupole moment (field-independent basis, Debye-Ang):
   XX=            -27.3490   YY=            -21.8588   ZZ=            -25.0835
   XY=             -1.0240   XZ=              0.1329   YZ=              0.0653

 Normal termination of Gaussian 09 at Wed Aug 26 15:49:02 2020.
