 Gaussian 09, Revision D.01,
 Gaussian 09:  ES64L-G09RevD.01 24-Apr-2013

 --------------------
 #p B2PLYPD3/Def2QZVP
 --------------------

 --------
 acrolein
 --------
 Symbolic Z-matrix:
 Charge =  0 Multiplicity = 1

                         Standard orientation:
 ---------------------------------------------------------------------
 Center     Atomic      Atomic             Coordinates (Angstroms)
 Number     Number       Type             X           Y           Z
 ---------------------------------------------------------------------
      1          6           0        0.685197    0.369637    0.016100
      2          8           0        1.790205   -0.149371   -0.035069
      3          6           0       -0.567340   -0.437714    0.035578
      4          6           0       -1.745784    0.136284   -0.024841
      5          1           0       -0.480987   -1.476346    0.090623
      6          1           0       -1.810148    1.151050   -0.079342
      7          1           0       -2.722453   -0.446288   -0.046253
      8          1           0        0.459511    1.557314    0.154504
 ---------------------------------------------------------------------

 SCF Done:  E(RB2PLYPD3) =  -191.602031295     A.U. after   12 cycles
 E2(B2PLYPD3) =    -0.2483300848D+00 E(B2PLYPD3) =    -0.19185036137968D+03

 The electronic state is 1-A.
 Alpha  occ. eigenvalues --  -19.73582 -10.73309 -10.64796 -10.63816  -1.19327
 Alpha  occ. eigenvalues --   -0.93424  -0.74782  -0.66864  -0.56211  -0.56053
 Alpha  occ. eigenvalues --   -0.50546  -0.47130  -0.46539  -0.35052  -0.33902
 Alpha virt. eigenvalues --   -0.01597   0.05669   0.06810   0.07922   0.09822
 Alpha virt. eigenvalues --    0.12427   0.13468   0.15338   0.17506   0.19608
 Alpha virt. eigenvalues --    0.20311   0.21316   0.25373   0.26343   0.28581

 Mulliken charges:
               1
     1  C    0.158747
     2  O   -0.342333
     3  C   -0.034423
     4  C   -0.127990
     5  H    0.108897
     6  H    0.084583
     7  H    0.095697
     8  H    0.056822
 Sum of Mulliken charges =   0.00000

 Dipole moment (field-independent basis, Debye):
    X=             -3.3969    Y=              0.7516    Z=              0.1112  Tot=              3.4808
 Quadrupole moment (field-independent basis, Debye-Ang):
   XX=            -27.3935   YY=            -21.9587   ZZ=            -25.2358
   XY=              1.0070   XZ=              0.3467   YZ=             -0.1046

 Normal termination of Gaussian 09 at Wed Aug 26 10:28:04 2020.
