 Gaussian 09, Revision D.01,
 Gaussian 09:  ES64L-G09RevD.01 24-Apr-2013

 --------------------
 #p B2PLYPD3/Def2QZVP
 --------------------

 --------
 acrolein
 --------
 Symbolic Z-matrix:
 Charge =  0 Multiplicity = 1

                         Standard orientation:
 ---------------------------------------------------------------------
 Center     Atomic      Atomic             Coordinates (Angstroms)
 Number     Number       Type             X           Y           Z
 ---------------------------------------------------------------------
      1          6           0       -0.673488    0.386259   -0.051206
      2          8           0       -1.777772   -0.166674    0.026595
      3          6           0        0.554876   -0.452293   -0.033568
      4          6           0        1.747321    0.131906    0.035063
      5          1           0        0.523749   -1.471054    0.011088
      6          1           0        1.762592    1.118873   -0.116866
      7          1           0        2.676346   -0.384664    0.067022
      8          1           0       -0.512763    1.674997    0.124263
 ---------------------------------------------------------------------

 SCF Done:  E(RB2PLYPD3) =  -191.581835470     A.U. after   13 cycles
 E2(B2PLYPD3) =    -0.2501956319D+00 E(B2PLYPD3) =    -0.19183203110234D+03

 The electronic state is 1-A.
 Alpha  occ. eigenvalues --  -19.73580 -10.74252 -10.64144 -10.63958  -1.18524
 Alpha  occ. eigenvalues --   -0.93493  -0.75039  -0.66789  -0.57015  -0.55267
 Alpha  occ. eigenvalues --   -0.49798  -0.47886  -0.46302  -0.34686  -0.33768
 Alpha virt. eigenvalues --   -0.02006   0.05359   0.06460   0.07333   0.09839
 Alpha virt. eigenvalues --    0.12450   0.13624   0.15191   0.17332   0.19433
 Alpha virt. eigenvalues --    0.20646   0.21642   0.24457   0.26345   0.28432

 Mulliken charges:
               1
     1  C    0.162462
     2  O   -0.342105
     3  C   -0.041137
     4  C   -0.119364
     5  H    0.113090
     6  H    0.081341
     7  H    0.094980
     8  H    0.050734
 Sum of Mulliken charges =   0.00000

 Dipole moment (field-independent basis, Debye):
    X=              3.4488    Y=              0.7279    Z=             -0.1019  Tot=              3.5262
 Quadrupole moment (field-independent basis, Debye-Ang):
   XX=            -27.3053   YY=            -21.8907   ZZ=            -25.2783
   XY=             -1.2943   XZ=              0.1094   YZ=             -0.1108

 Normal termination of Gaussian 09 at Wed Aug 26 14:26:10 2020.
