 Gaussian 09, Revision D.01,
 Gaussian 09:  ES64L-G09RevD.01 24-Apr-2013

 --------------------
 #p B2PLYPD3/Def2QZVP
 --------------------

 --------
 acrolein
 --------
 Symbolic Z-matrix:
 Charge =  0 Multiplicity = 1

                         Standard orientation:
 ---------------------------------------------------------------------
 Center     Atomic      Atomic             Coordinates (Angstroms)
 Number     Number       Type             X           Y           Z
 ---------------------------------------------------------------------
      1          6           0        0.674227    0.392269    0.107037
      2          8           0        1.779090   -0.167497   -0.079180
      3          6           0       -0.555117   -0.436411    0.102807
      4          6           0       -1.741291    0.137224   -0.069934
      5          1           0       -0.506843   -1.493491    0.003621
      6          1           0       -1.751768    1.153288    0.042940
      7          1           0       -2.695504   -0.485949   -0.157954
      8          1           0        0.454483    1.607637   -0.094623
 ---------------------------------------------------------------------

 SCF Done:  E(RB2PLYPD3) =  -191.585600535     A.U. after   13 cycles
 E2(B2PLYPD3) =    -0.2515299770D+00 E(B2PLYPD3) =    -0.19183713051157D+03

 The electronic state is 1-A.
 Alpha  occ. eigenvalues --  -19.73633 -10.74069 -10.65129 -10.64356  -1.17672
 Alpha  occ. eigenvalues --   -0.93338  -0.74547  -0.66521  -0.56178  -0.55001
 Alpha  occ. eigenvalues --   -0.49442  -0.47008  -0.45913  -0.34857  -0.33817
 Alpha virt. eigenvalues --   -0.02311   0.05265   0.06268   0.07063   0.09957
 Alpha virt. eigenvalues --    0.12311   0.13365   0.15012   0.17544   0.19294
 Alpha virt. eigenvalues --    0.20718   0.21117   0.23762   0.26903   0.28748

 Mulliken charges:
               1
     1  C    0.165786
     2  O   -0.352641
     3  C   -0.035146
     4  C   -0.126819
     5  H    0.110943
     6  H    0.084746
     7  H    0.098749
     8  H    0.054382
 Sum of Mulliken charges =   0.00000

 Dipole moment (field-independent basis, Debye):
    X=             -3.4660    Y=              0.8006    Z=              0.1548  Tot=              3.5606
 Quadrupole moment (field-independent basis, Debye-Ang):
   XX=            -27.6969   YY=            -21.7867   ZZ=            -25.3999
   XY=              1.3964   XZ=              0.6631   YZ=              0.1385

 Normal termination of Gaussian 09 at Wed Aug 26 13:33:05 2020.
