 Gaussian 09, Revision D.01,
 Gaussian 09:  ES64L-G09RevD.01 24-Apr-2013

 --------------------
 #p B2PLYPD3/Def2QZVP
 --------------------

 --------
 acrolein
 --------
 Symbolic Z-matrix:
 Charge =  0 Multiplicity = 1

                         Standard orientation:
 ---------------------------------------------------------------------
 Center     Atomic      Atomic             Coordinates (Angstroms)
 Number     Number       Type             X           Y           Z
 ---------------------------------------------------------------------
      1          6           0       -0.716475    0.406505    0.024465
      2          8           0       -1.769149   -0.168320   -0.045477
      3          6           0        0.532633   -0.450291    0.021038
      4          6           0        1.772606    0.116380   -0.057938
      5          1           0        0.521594   -1.414398    0.188853
      6          1           0        1.852722    1.173072   -0.114070
      7          1           0        2.762452   -0.388682    0.094866
      8          1           0       -0.516163    1.541002    0.268776
 ---------------------------------------------------------------------

 SCF Done:  E(RB2PLYPD3) =  -191.592192682     A.U. after   13 cycles
 E2(B2PLYPD3) =    -0.2482392082D+00 E(B2PLYPD3) =    -0.19184043189068D+03

 The electronic state is 1-A.
 Alpha  occ. eigenvalues --  -19.73543 -10.73150 -10.65250 -10.63682  -1.20744
 Alpha  occ. eigenvalues --   -0.91597  -0.74152  -0.67829  -0.56415  -0.56011
 Alpha  occ. eigenvalues --   -0.50993  -0.47314  -0.46475  -0.34010  -0.33711
 Alpha virt. eigenvalues --   -0.01584   0.05695   0.06563   0.07981   0.09674
 Alpha virt. eigenvalues --    0.12267   0.13981   0.15464   0.18223   0.19223
 Alpha virt. eigenvalues --    0.19817   0.21294   0.24551   0.26735   0.28516

 Mulliken charges:
               1
     1  C    0.162348
     2  O   -0.324678
     3  C   -0.067979
     4  C   -0.130698
     5  H    0.118568
     6  H    0.068909
     7  H    0.089734
     8  H    0.083795
 Sum of Mulliken charges =   0.00000

 Dipole moment (field-independent basis, Debye):
    X=              3.0843    Y=              0.9631    Z=              0.3900  Tot=              3.2546
 Quadrupole moment (field-independent basis, Debye-Ang):
   XX=            -27.1293   YY=            -21.8851   ZZ=            -25.3013
   XY=             -1.2017   XZ=              0.0079   YZ=             -0.2804

 Normal termination of Gaussian 09 at Wed Aug 26 11:58:08 2020.
