 Gaussian 09, Revision D.01,
 Gaussian 09:  ES64L-G09RevD.01 24-Apr-2013

 --------------------
 #p B2PLYPD3/Def2QZVP
 --------------------

 --------
 acrolein
 --------
 Symbolic Z-matrix:
 Charge =  0 Multiplicity = 1

                         Standard orientation:
 ---------------------------------------------------------------------
 Center     Atomic      Atomic             Coordinates (Angstroms)
 Number     Number       Type             X           Y           Z
 ---------------------------------------------------------------------
      1          6           0        0.668199    0.344927    0.024146
      2          8           0        1.794753   -0.111880   -0.021020
      3          6           0       -0.569419   -0.461947    0.015294
      4          6           0       -1.754604    0.142504   -0.023292
      5          1           0       -0.446421   -1.523858    0.007391
      6          1           0       -1.868859    1.283109   -0.059011
      7          1           0       -2.633041   -0.426467    0.050499
      8          1           0        0.525239    1.409350    0.072399
 ---------------------------------------------------------------------

 SCF Done:  E(RB2PLYPD3) =  -191.612621551     A.U. after   12 cycles
 E2(B2PLYPD3) =    -0.2472305064D+00 E(B2PLYPD3) =    -0.19185985205738D+03

 The electronic state is 1-A.
 Alpha  occ. eigenvalues --  -19.72696 -10.71275 -10.65748 -10.64378  -1.19066
 Alpha  occ. eigenvalues --   -0.93007  -0.75508  -0.67265  -0.56658  -0.56149
 Alpha  occ. eigenvalues --   -0.50631  -0.46897  -0.46420  -0.34737  -0.33779
 Alpha virt. eigenvalues --   -0.01736   0.05651   0.07238   0.08079   0.09667
 Alpha virt. eigenvalues --    0.12476   0.13988   0.15384   0.17619   0.19192
 Alpha virt. eigenvalues --    0.20033   0.21802   0.25367   0.26595   0.28700

 Mulliken charges:
               1
     1  C    0.158288
     2  O   -0.353788
     3  C   -0.047572
     4  C   -0.127182
     5  H    0.107500
     6  H    0.082802
     7  H    0.103280
     8  H    0.076672
 Sum of Mulliken charges =   0.00000

 Dipole moment (field-independent basis, Debye):
    X=             -3.5227    Y=              0.7437    Z=              0.1025  Tot=              3.6018
 Quadrupole moment (field-independent basis, Debye-Ang):
   XX=            -27.6576   YY=            -21.5802   ZZ=            -25.2164
   XY=              0.8718   XZ=              0.0701   YZ=             -0.0768

 Normal termination of Gaussian 09 at Wed Aug 26 18:57:31 2020.
