 Gaussian 09, Revision D.01,
 Gaussian 09:  ES64L-G09RevD.01 24-Apr-2013

 --------------------
 #p B2PLYPD3/Def2QZVP
 --------------------

 --------
 acrolein
 --------
 Symbolic Z-matrix:
 Charge =  0 Multiplicity = 1

                         Standard orientation:
 ---------------------------------------------------------------------
 Center     Atomic      Atomic             Coordinates (Angstroms)
 Number     Number       Type             X           Y           Z
 ---------------------------------------------------------------------
      1          6           0        0.688839   -0.339197    0.072723
      2          8           0        1.795261    0.085459   -0.071773
      3          6           0       -0.607298    0.479247    0.013244
      4          6           0       -1.775560   -0.158199   -0.057849
      5          1           0       -0.322974    1.652949    0.242209
      6          1           0       -1.964000   -1.282321   -0.006749
      7          1           0       -2.472491    0.401559   -0.043418
      8          1           0        0.561491   -1.346970    0.213440
 ---------------------------------------------------------------------

 SCF Done:  E(RB2PLYPD3) =  -191.555141557     A.U. after   13 cycles
 E2(B2PLYPD3) =    -0.2468108384D+00 E(B2PLYPD3) =    -0.19180195239509D+03

 The electronic state is 1-A.
 Alpha  occ. eigenvalues --  -19.72808 -10.70638 -10.66130 -10.63762  -1.20451
 Alpha  occ. eigenvalues --   -0.92756  -0.76508  -0.66622  -0.57222  -0.56095
 Alpha  occ. eigenvalues --   -0.51391  -0.47290  -0.45583  -0.34761  -0.33245
 Alpha virt. eigenvalues --   -0.01070   0.05691   0.06614   0.08150   0.09357
 Alpha virt. eigenvalues --    0.12508   0.13988   0.15165   0.17262   0.19173
 Alpha virt. eigenvalues --    0.20028   0.22844   0.24720   0.26850   0.27927

 Mulliken charges:
               1
     1  C    0.161769
     2  O   -0.338207
     3  C   -0.055967
     4  C   -0.162282
     5  H    0.092799
     6  H    0.093815
     7  H    0.129978
     8  H    0.078096
 Sum of Mulliken charges =   0.00000

 Dipole moment (field-independent basis, Debye):
    X=             -3.2517    Y=             -0.7939    Z=              0.4934  Tot=              3.3833
 Quadrupole moment (field-independent basis, Debye-Ang):
   XX=            -27.6995   YY=            -21.4423   ZZ=            -25.1484
   XY=             -0.2778   XZ=              0.3892   YZ=              0.2811

 Normal termination of Gaussian 09 at Wed Aug 26 11:04:53 2020.
