 Gaussian 09, Revision D.01,
 Gaussian 09:  ES64L-G09RevD.01 24-Apr-2013

 --------------------
 #p B2PLYPD3/Def2QZVP
 --------------------

 --------
 acrolein
 --------
 Symbolic Z-matrix:
 Charge =  0 Multiplicity = 1

                         Standard orientation:
 ---------------------------------------------------------------------
 Center     Atomic      Atomic             Coordinates (Angstroms)
 Number     Number       Type             X           Y           Z
 ---------------------------------------------------------------------
      1          6           0        0.672457    0.352591   -0.015610
      2          8           0        1.775694   -0.127418    0.014809
      3          6           0       -0.555100   -0.449845   -0.005462
      4          6           0       -1.747678    0.140269    0.003793
      5          1           0       -0.489582   -1.485419   -0.007839
      6          1           0       -1.841225    1.220201    0.086245
      7          1           0       -2.658458   -0.402864   -0.025393
      8          1           0        0.565636    1.429336   -0.067811
 ---------------------------------------------------------------------

 SCF Done:  E(RB2PLYPD3) =  -191.615630369     A.U. after   12 cycles
 E2(B2PLYPD3) =    -0.2460334653D+00 E(B2PLYPD3) =    -0.19186166383456D+03

 The electronic state is 1-A.
 Alpha  occ. eigenvalues --  -19.72541 -10.71131 -10.65053 -10.63781  -1.19865
 Alpha  occ. eigenvalues --   -0.93135  -0.75462  -0.67830  -0.57140  -0.56637
 Alpha  occ. eigenvalues --   -0.50656  -0.47285  -0.46903  -0.34612  -0.33801
 Alpha virt. eigenvalues --   -0.01521   0.05817   0.07413   0.08228   0.09714
 Alpha virt. eigenvalues --    0.12612   0.14277   0.15418   0.17775   0.19630
 Alpha virt. eigenvalues --    0.20121   0.21578   0.25487   0.26333   0.28906

 Mulliken charges:
               1
     1  C    0.149345
     2  O   -0.345685
     3  C   -0.045229
     4  C   -0.128405
     5  H    0.109978
     6  H    0.081032
     7  H    0.098927
     8  H    0.080037
 Sum of Mulliken charges =   0.00000

 Dipole moment (field-independent basis, Debye):
    X=             -3.4400    Y=              0.7913    Z=             -0.0316  Tot=              3.5299
 Quadrupole moment (field-independent basis, Debye-Ang):
   XX=            -27.3285   YY=            -21.6759   ZZ=            -25.0838
   XY=              1.0939   XZ=             -0.1474   YZ=              0.1000

 Normal termination of Gaussian 09 at Wed Aug 26 18:08:13 2020.
