 Gaussian 09, Revision D.01,
 Gaussian 09:  ES64L-G09RevD.01 24-Apr-2013

 --------------------
 #p B2PLYPD3/Def2QZVP
 --------------------

 --------
 acrolein
 --------
 Symbolic Z-matrix:
 Charge =  0 Multiplicity = 1

                         Standard orientation:
 ---------------------------------------------------------------------
 Center     Atomic      Atomic             Coordinates (Angstroms)
 Number     Number       Type             X           Y           Z
 ---------------------------------------------------------------------
      1          6           0        0.663844    0.330657   -0.006986
      2          8           0        1.796629   -0.104887    0.030158
      3          6           0       -0.552244   -0.451807   -0.050636
      4          6           0       -1.762358    0.144361    0.009097
      5          1           0       -0.406657   -1.534634   -0.045533
      6          1           0       -1.885199    1.278225    0.000781
      7          1           0       -2.726362   -0.451735    0.166750
      8          1           0        0.549731    1.407970   -0.072111
 ---------------------------------------------------------------------

 SCF Done:  E(RB2PLYPD3) =  -191.608817411     A.U. after   13 cycles
 E2(B2PLYPD3) =    -0.2482488658D+00 E(B2PLYPD3) =    -0.19185706627700D+03

 The electronic state is 1-A.
 Alpha  occ. eigenvalues --  -19.72507 -10.71040 -10.67368 -10.64929  -1.19144
 Alpha  occ. eigenvalues --   -0.92771  -0.75305  -0.66833  -0.56407  -0.55702
 Alpha  occ. eigenvalues --   -0.50132  -0.46794  -0.46174  -0.34535  -0.33676
 Alpha virt. eigenvalues --   -0.02278   0.05402   0.07011   0.08336   0.09603
 Alpha virt. eigenvalues --    0.12186   0.13924   0.15303   0.17618   0.19297
 Alpha virt. eigenvalues --    0.19802   0.21243   0.25117   0.26528   0.28739

 Mulliken charges:
               1
     1  C    0.159146
     2  O   -0.355240
     3  C   -0.038743
     4  C   -0.124743
     5  H    0.106910
     6  H    0.087020
     7  H    0.100446
     8  H    0.065204
 Sum of Mulliken charges =   0.00000

 Dipole moment (field-independent basis, Debye):
    X=             -3.6282    Y=              0.7082    Z=              0.0045  Tot=              3.6967
 Quadrupole moment (field-independent basis, Debye-Ang):
   XX=            -27.4666   YY=            -21.7779   ZZ=            -25.3365
   XY=              0.7759   XZ=             -0.5685   YZ=             -0.0804

 Normal termination of Gaussian 09 at Wed Aug 26 10:22:25 2020.
