 Gaussian 09, Revision D.01,
 Gaussian 09:  ES64L-G09RevD.01 24-Apr-2013

 --------------------
 #p B2PLYPD3/Def2QZVP
 --------------------

 --------
 acrolein
 --------
 Symbolic Z-matrix:
 Charge =  0 Multiplicity = 1

                         Standard orientation:
 ---------------------------------------------------------------------
 Center     Atomic      Atomic             Coordinates (Angstroms)
 Number     Number       Type             X           Y           Z
 ---------------------------------------------------------------------
      1          6           0        0.660599    0.330927    0.010885
      2          8           0        1.799857   -0.099317   -0.022042
      3          6           0       -0.560897   -0.465902    0.006463
      4          6           0       -1.752876    0.155719   -0.025182
      5          1           0       -0.428900   -1.618135    0.089741
      6          1           0       -1.790493    1.234877   -0.048002
      7          1           0       -2.697821   -0.396935    0.030539
      8          1           0        0.437400    1.450263    0.151062
 ---------------------------------------------------------------------

 SCF Done:  E(RB2PLYPD3) =  -191.609151039     A.U. after   12 cycles
 E2(B2PLYPD3) =    -0.2489363643D+00 E(B2PLYPD3) =    -0.19185808740352D+03

 The electronic state is 1-A.
 Alpha  occ. eigenvalues --  -19.73002 -10.72084 -10.66099 -10.65497  -1.19099
 Alpha  occ. eigenvalues --   -0.93024  -0.75481  -0.65688  -0.56317  -0.55835
 Alpha  occ. eigenvalues --   -0.50282  -0.46887  -0.46155  -0.34705  -0.33792
 Alpha virt. eigenvalues --   -0.02165   0.05713   0.06488   0.08129   0.09697
 Alpha virt. eigenvalues --    0.12615   0.13917   0.15210   0.16858   0.19599
 Alpha virt. eigenvalues --    0.20194   0.21465   0.25013   0.26661   0.28742

 Mulliken charges:
               1
     1  C    0.159856
     2  O   -0.348755
     3  C   -0.028250
     4  C   -0.128816
     5  H    0.097399
     6  H    0.087788
     7  H    0.106541
     8  H    0.054236
 Sum of Mulliken charges =   0.00000

 Dipole moment (field-independent basis, Debye):
    X=             -3.6154    Y=              0.6351    Z=              0.1723  Tot=              3.6748
 Quadrupole moment (field-independent basis, Debye-Ang):
   XX=            -27.5193   YY=            -21.8569   ZZ=            -25.3795
   XY=              0.6537   XZ=              0.0578   YZ=             -0.1509

 Normal termination of Gaussian 09 at Wed Aug 26 09:20:34 2020.
