 Gaussian 09, Revision D.01,
 Gaussian 09:  ES64L-G09RevD.01 24-Apr-2013

 --------------------
 #p B2PLYPD3/Def2QZVP
 --------------------

 --------
 acrolein
 --------
 Symbolic Z-matrix:
 Charge =  0 Multiplicity = 1

                         Standard orientation:
 ---------------------------------------------------------------------
 Center     Atomic      Atomic             Coordinates (Angstroms)
 Number     Number       Type             X           Y           Z
 ---------------------------------------------------------------------
      1          6           0        0.666148    0.352681    0.017046
      2          8           0        1.788759   -0.123738   -0.013044
      3          6           0       -0.549033   -0.448381   -0.001518
      4          6           0       -1.755456    0.142135   -0.014150
      5          1           0       -0.435986   -1.529047    0.051849
      6          1           0       -1.836772    1.216257   -0.004919
      7          1           0       -2.717742   -0.441629    0.014569
      8          1           0        0.510468    1.465704    0.034590
 ---------------------------------------------------------------------

 SCF Done:  E(RB2PLYPD3) =  -191.614218882     A.U. after   13 cycles
 E2(B2PLYPD3) =    -0.2481770540D+00 E(B2PLYPD3) =    -0.19186239593606D+03

 The electronic state is 1-A.
 Alpha  occ. eigenvalues --  -19.72775 -10.71775 -10.66164 -10.64630  -1.18969
 Alpha  occ. eigenvalues --   -0.92928  -0.75322  -0.66813  -0.56457  -0.55961
 Alpha  occ. eigenvalues --   -0.50120  -0.46903  -0.46475  -0.34519  -0.33903
 Alpha virt. eigenvalues --   -0.02081   0.05620   0.06981   0.08125   0.09725
 Alpha virt. eigenvalues --    0.12399   0.13909   0.15311   0.17462   0.19836
 Alpha virt. eigenvalues --    0.19954   0.21308   0.25402   0.26320   0.28923

 Mulliken charges:
               1
     1  C    0.154298
     2  O   -0.353381
     3  C   -0.034679
     4  C   -0.130113
     5  H    0.107475
     6  H    0.086781
     7  H    0.100539
     8  H    0.069080
 Sum of Mulliken charges =   0.00000

 Dipole moment (field-independent basis, Debye):
    X=             -3.5664    Y=              0.7641    Z=              0.1156  Tot=              3.6492
 Quadrupole moment (field-independent basis, Debye-Ang):
   XX=            -27.4629   YY=            -21.7390   ZZ=            -25.3178
   XY=              0.9361   XZ=             -0.0003   YZ=             -0.0775

 Normal termination of Gaussian 09 at Wed Aug 26 19:29:44 2020.
