 Gaussian 09, Revision D.01,
 Gaussian 09:  ES64L-G09RevD.01 24-Apr-2013

 --------------------
 #p B2PLYPD3/Def2QZVP
 --------------------

 --------
 acrolein
 --------
 Symbolic Z-matrix:
 Charge =  0 Multiplicity = 1

                         Standard orientation:
 ---------------------------------------------------------------------
 Center     Atomic      Atomic             Coordinates (Angstroms)
 Number     Number       Type             X           Y           Z
 ---------------------------------------------------------------------
      1          6           0       -0.652789   -0.339139    0.062421
      2          8           0       -1.832925    0.081351   -0.059105
      3          6           0        0.614756    0.471581    0.050402
      4          6           0        1.761747   -0.161232   -0.066584
      5          1           0        0.329213    1.680422    0.038511
      6          1           0        1.856620   -1.199270   -0.107238
      7          1           0        2.595357    0.347406    0.066659
      8          1           0       -0.460072   -1.306629    0.197473
 ---------------------------------------------------------------------

 SCF Done:  E(RB2PLYPD3) =  -191.575597675     A.U. after   14 cycles
 E2(B2PLYPD3) =    -0.2495100209D+00 E(B2PLYPD3) =    -0.19182510769552D+03

 The electronic state is 1-A.
 Alpha  occ. eigenvalues --  -19.73103 -10.71296 -10.66302 -10.64150  -1.16684
 Alpha  occ. eigenvalues --   -0.93829  -0.77392  -0.67409  -0.56977  -0.56943
 Alpha  occ. eigenvalues --   -0.50629  -0.45685  -0.44998  -0.35163  -0.33901
 Alpha virt. eigenvalues --   -0.02361   0.05759   0.06729   0.07506   0.09569
 Alpha virt. eigenvalues --    0.12721   0.13880   0.15393   0.16736   0.19108
 Alpha virt. eigenvalues --    0.20007   0.22401   0.24918   0.27033   0.28200

 Mulliken charges:
               1
     1  C    0.164523
     2  O   -0.375264
     3  C   -0.045397
     4  C   -0.119175
     5  H    0.097741
     6  H    0.082984
     7  H    0.104775
     8  H    0.089813
 Sum of Mulliken charges =   0.00000

 Dipole moment (field-independent basis, Debye):
    X=              3.7109    Y=             -0.8317    Z=              0.2885  Tot=              3.8139
 Quadrupole moment (field-independent basis, Debye-Ang):
   XX=            -28.0606   YY=            -21.5591   ZZ=            -25.1830
   XY=              0.2079   XZ=             -0.2979   YZ=              0.0928

 Normal termination of Gaussian 09 at Wed Aug 26 13:00:48 2020.
