 Gaussian 09, Revision D.01,
 Gaussian 09:  ES64L-G09RevD.01 24-Apr-2013

 --------------------
 #p B2PLYPD3/Def2QZVP
 --------------------

 --------
 acrolein
 --------
 Symbolic Z-matrix:
 Charge =  0 Multiplicity = 1

                         Standard orientation:
 ---------------------------------------------------------------------
 Center     Atomic      Atomic             Coordinates (Angstroms)
 Number     Number       Type             X           Y           Z
 ---------------------------------------------------------------------
      1          6           0       -0.660407    0.376764   -0.065375
      2          8           0       -1.770967   -0.146940    0.063725
      3          6           0        0.548546   -0.426897   -0.098078
      4          6           0        1.749113    0.134991    0.003004
      5          1           0        0.416744   -1.537706    0.041497
      6          1           0        1.744802    1.136971    0.072540
      7          1           0        2.777171   -0.388273    0.294410
      8          1           0       -0.594494    1.455381    0.044451
 ---------------------------------------------------------------------

 SCF Done:  E(RB2PLYPD3) =  -191.594820314     A.U. after   13 cycles
 E2(B2PLYPD3) =    -0.2489862631D+00 E(B2PLYPD3) =    -0.19184380657697D+03

 The electronic state is 1-A.
 Alpha  occ. eigenvalues --  -19.72667 -10.71706 -10.65659 -10.64909  -1.18216
 Alpha  occ. eigenvalues --   -0.93448  -0.75402  -0.67396  -0.57357  -0.55350
 Alpha  occ. eigenvalues --   -0.49805  -0.46369  -0.45628  -0.34642  -0.34073
 Alpha virt. eigenvalues --   -0.02216   0.05491   0.06789   0.07727   0.09771
 Alpha virt. eigenvalues --    0.12209   0.14183   0.15305   0.17372   0.19116
 Alpha virt. eigenvalues --    0.20263   0.21613   0.24468   0.26737   0.29038

 Mulliken charges:
               1
     1  C    0.147967
     2  O   -0.361851
     3  C   -0.036826
     4  C   -0.116855
     5  H    0.109698
     6  H    0.080482
     7  H    0.094559
     8  H    0.082826
 Sum of Mulliken charges =   0.00000

 Dipole moment (field-independent basis, Debye):
    X=              3.4807    Y=              0.9640    Z=              0.1563  Tot=              3.6151
 Quadrupole moment (field-independent basis, Debye-Ang):
   XX=            -27.5015   YY=            -21.8152   ZZ=            -25.1804
   XY=             -1.2417   XZ=              1.1699   YZ=             -0.1376

 Normal termination of Gaussian 09 at Wed Aug 26 15:00:16 2020.
