 Gaussian 09, Revision D.01,
 Gaussian 09:  ES64L-G09RevD.01 24-Apr-2013

 --------------------
 #p B2PLYPD3/Def2QZVP
 --------------------

 --------
 acrolein
 --------
 Symbolic Z-matrix:
 Charge =  0 Multiplicity = 1

                         Standard orientation:
 ---------------------------------------------------------------------
 Center     Atomic      Atomic             Coordinates (Angstroms)
 Number     Number       Type             X           Y           Z
 ---------------------------------------------------------------------
      1          6           0        0.672368    0.345383   -0.070952
      2          8           0        1.790142   -0.102678    0.039800
      3          6           0       -0.580018   -0.466322   -0.056835
      4          6           0       -1.768006    0.134344    0.030003
      5          1           0       -0.423958   -1.560567    0.043256
      6          1           0       -1.880812    1.357298   -0.061397
      7          1           0       -2.497396   -0.417313    0.136409
      8          1           0        0.534964    1.361574    0.150037
 ---------------------------------------------------------------------

 SCF Done:  E(RB2PLYPD3) =  -191.573530081     A.U. after   14 cycles
 E2(B2PLYPD3) =    -0.2474845424D+00 E(B2PLYPD3) =    -0.19182101462345D+03

 The electronic state is 1-A.
 Alpha  occ. eigenvalues --  -19.72769 -10.70946 -10.65053 -10.64836  -1.19576
 Alpha  occ. eigenvalues --   -0.93058  -0.76563  -0.66878  -0.57757  -0.55346
 Alpha  occ. eigenvalues --   -0.51046  -0.46685  -0.46214  -0.34790  -0.33602
 Alpha virt. eigenvalues --   -0.01654   0.05545   0.07083   0.07550   0.09636
 Alpha virt. eigenvalues --    0.12229   0.14170   0.15243   0.17563   0.18840
 Alpha virt. eigenvalues --    0.20011   0.22670   0.24282   0.27371   0.28520

 Mulliken charges:
               1
     1  C    0.172535
     2  O   -0.348945
     3  C   -0.062491
     4  C   -0.147637
     5  H    0.101935
     6  H    0.087982
     7  H    0.121312
     8  H    0.075308
 Sum of Mulliken charges =   0.00000

 Dipole moment (field-independent basis, Debye):
    X=             -3.3834    Y=              0.7098    Z=              0.0027  Tot=              3.4571
 Quadrupole moment (field-independent basis, Debye-Ang):
   XX=            -27.8550   YY=            -21.4749   ZZ=            -25.1463
   XY=              0.8493   XZ=             -0.4409   YZ=             -0.2145

 Normal termination of Gaussian 09 at Wed Aug 26 14:47:01 2020.
