 Gaussian 09, Revision D.01,
 Gaussian 09:  ES64L-G09RevD.01 24-Apr-2013

 --------------------
 #p B2PLYPD3/Def2QZVP
 --------------------

 --------
 acrolein
 --------
 Symbolic Z-matrix:
 Charge =  0 Multiplicity = 1

                         Standard orientation:
 ---------------------------------------------------------------------
 Center     Atomic      Atomic             Coordinates (Angstroms)
 Number     Number       Type             X           Y           Z
 ---------------------------------------------------------------------
      1          6           0        0.650766    0.326614    0.043654
      2          8           0        1.821287   -0.098328   -0.069582
      3          6           0       -0.582620   -0.448306    0.039018
      4          6           0       -1.747275    0.153950   -0.071442
      5          1           0       -0.483742   -1.551575    0.173746
      6          1           0       -1.918946    1.277597   -0.143199
      7          1           0       -2.650272   -0.443282    0.067234
      8          1           0        0.557446    1.310339    0.391498
 ---------------------------------------------------------------------

 SCF Done:  E(RB2PLYPD3) =  -191.601286506     A.U. after   14 cycles
 E2(B2PLYPD3) =    -0.2491057892D+00 E(B2PLYPD3) =    -0.19185039229500D+03

 The electronic state is 1-A.
 Alpha  occ. eigenvalues --  -19.72760 -10.71289 -10.66129 -10.64960  -1.17106
 Alpha  occ. eigenvalues --   -0.93735  -0.76131  -0.66897  -0.56584  -0.56157
 Alpha  occ. eigenvalues --   -0.50474  -0.46306  -0.44804  -0.35111  -0.33821
 Alpha virt. eigenvalues --   -0.02376   0.05598   0.06448   0.07900   0.09472
 Alpha virt. eigenvalues --    0.12535   0.14154   0.15201   0.17575   0.17939
 Alpha virt. eigenvalues --    0.20284   0.21825   0.24777   0.27368   0.28449

 Mulliken charges:
               1
     1  C    0.156798
     2  O   -0.368333
     3  C   -0.045993
     4  C   -0.115800
     5  H    0.104093
     6  H    0.085110
     7  H    0.097126
     8  H    0.086998
 Sum of Mulliken charges =   0.00000

 Dipole moment (field-independent basis, Debye):
    X=             -3.7463    Y=              0.7332    Z=              0.4575  Tot=              3.8447
 Quadrupole moment (field-independent basis, Debye-Ang):
   XX=            -27.9753   YY=            -21.6359   ZZ=            -25.1697
   XY=              0.6967   XZ=              0.3837   YZ=             -0.3047

 Normal termination of Gaussian 09 at Wed Aug 26 14:23:58 2020.
