 Gaussian 09, Revision D.01,
 Gaussian 09:  ES64L-G09RevD.01 24-Apr-2013

 --------------------
 #p B2PLYPD3/Def2QZVP
 --------------------

 --------
 acrolein
 --------
 Symbolic Z-matrix:
 Charge =  0 Multiplicity = 1

                         Standard orientation:
 ---------------------------------------------------------------------
 Center     Atomic      Atomic             Coordinates (Angstroms)
 Number     Number       Type             X           Y           Z
 ---------------------------------------------------------------------
      1          6           0       -0.677427    0.362228    0.017725
      2          8           0       -1.775789   -0.127789   -0.021266
      3          6           0        0.549571   -0.443555    0.037397
      4          6           0        1.760869    0.137873   -0.019633
      5          1           0        0.433274   -1.537361   -0.012386
      6          1           0        1.828043    1.190160   -0.010088
      7          1           0        2.658553   -0.416266   -0.041807
      8          1           0       -0.511630    1.446501    0.021477
 ---------------------------------------------------------------------

 SCF Done:  E(RB2PLYPD3) =  -191.615822931     A.U. after   12 cycles
 E2(B2PLYPD3) =    -0.2467644337D+00 E(B2PLYPD3) =    -0.19186258736431D+03

 The electronic state is 1-A.
 Alpha  occ. eigenvalues --  -19.72779 -10.71408 -10.64949 -10.64501  -1.19991
 Alpha  occ. eigenvalues --   -0.92725  -0.75757  -0.67079  -0.56741  -0.56625
 Alpha  occ. eigenvalues --   -0.50785  -0.47055  -0.46949  -0.34402  -0.33898
 Alpha virt. eigenvalues --   -0.01737   0.05858   0.07217   0.08186   0.09805
 Alpha virt. eigenvalues --    0.12653   0.14069   0.15392   0.17417   0.19920
 Alpha virt. eigenvalues --    0.19980   0.21818   0.25396   0.26469   0.28808

 Mulliken charges:
               1
     1  C    0.154307
     2  O   -0.344576
     3  C   -0.039642
     4  C   -0.135155
     5  H    0.103513
     6  H    0.082983
     7  H    0.104451
     8  H    0.074119
 Sum of Mulliken charges =   0.00000

 Dipole moment (field-independent basis, Debye):
    X=              3.4144    Y=              0.8104    Z=              0.0148  Tot=              3.5093
 Quadrupole moment (field-independent basis, Debye-Ang):
   XX=            -27.3135   YY=            -21.7192   ZZ=            -25.1934
   XY=             -0.9782   XZ=             -0.2396   YZ=              0.0622

 Normal termination of Gaussian 09 at Wed Aug 26 15:40:15 2020.
