 Gaussian 09, Revision D.01,
 Gaussian 09:  ES64L-G09RevD.01 24-Apr-2013

 --------------------
 #p B2PLYPD3/Def2QZVP
 --------------------

 --------
 acrolein
 --------
 Symbolic Z-matrix:
 Charge =  0 Multiplicity = 1

                         Standard orientation:
 ---------------------------------------------------------------------
 Center     Atomic      Atomic             Coordinates (Angstroms)
 Number     Number       Type             X           Y           Z
 ---------------------------------------------------------------------
      1          6           0        0.698826    0.375192   -0.057455
      2          8           0        1.777639   -0.154092    0.039341
      3          6           0       -0.551740   -0.440311    0.002478
      4          6           0       -1.751599    0.116278   -0.000078
      5          1           0       -0.505713   -1.351071   -0.025173
      6          1           0       -1.946498    1.301339    0.224877
      7          1           0       -2.685051   -0.527365   -0.066235
      8          1           0        0.543228    1.502877   -0.117870
 ---------------------------------------------------------------------

 SCF Done:  E(RB2PLYPD3) =  -191.574299163     A.U. after   13 cycles
 E2(B2PLYPD3) =    -0.2474754908D+00 E(B2PLYPD3) =    -0.19182177465362D+03

 The electronic state is 1-A.
 Alpha  occ. eigenvalues --  -19.73145 -10.72280 -10.66728 -10.62470  -1.20145
 Alpha  occ. eigenvalues --   -0.93103  -0.73984  -0.68305  -0.56612  -0.55829
 Alpha  occ. eigenvalues --   -0.50884  -0.47091  -0.45811  -0.34717  -0.33794
 Alpha virt. eigenvalues --   -0.01451   0.05257   0.07503   0.07707   0.09585
 Alpha virt. eigenvalues --    0.11928   0.13528   0.15449   0.18344   0.18726
 Alpha virt. eigenvalues --    0.19948   0.21313   0.24741   0.26517   0.28515

 Mulliken charges:
               1
     1  C    0.167512
     2  O   -0.338912
     3  C   -0.086693
     4  C   -0.112661
     5  H    0.129792
     6  H    0.073310
     7  H    0.087255
     8  H    0.080397
 Sum of Mulliken charges =   0.00000

 Dipole moment (field-independent basis, Debye):
    X=             -3.2322    Y=              0.7993    Z=             -0.0979  Tot=              3.3310
 Quadrupole moment (field-independent basis, Debye-Ang):
   XX=            -27.5107   YY=            -21.7422   ZZ=            -25.1970
   XY=              1.2795   XZ=             -0.3616   YZ=              0.3184

 Normal termination of Gaussian 09 at Wed Aug 26 12:37:45 2020.
