 Gaussian 09, Revision D.01,
 Gaussian 09:  ES64L-G09RevD.01 24-Apr-2013

 --------------------
 #p B2PLYPD3/Def2QZVP
 --------------------

 --------
 acrolein
 --------
 Symbolic Z-matrix:
 Charge =  0 Multiplicity = 1

                         Standard orientation:
 ---------------------------------------------------------------------
 Center     Atomic      Atomic             Coordinates (Angstroms)
 Number     Number       Type             X           Y           Z
 ---------------------------------------------------------------------
      1          6           0       -0.662911    0.337656    0.027005
      2          8           0       -1.790217   -0.107524   -0.025811
      3          6           0        0.568598   -0.444664   -0.010261
      4          6           0        1.757544    0.152865   -0.001335
      5          1           0        0.387270   -1.607844    0.103782
      6          1           0        1.848400    1.243830   -0.074476
      7          1           0        2.670905   -0.442901   -0.020980
      8          1           0       -0.564227    1.391965    0.105710
 ---------------------------------------------------------------------

 SCF Done:  E(RB2PLYPD3) =  -191.607987941     A.U. after   12 cycles
 E2(B2PLYPD3) =    -0.2475618665D+00 E(B2PLYPD3) =    -0.19185554980735D+03

 The electronic state is 1-A.
 Alpha  occ. eigenvalues --  -19.72537 -10.70889 -10.65919 -10.65391  -1.19224
 Alpha  occ. eigenvalues --   -0.93018  -0.75694  -0.66493  -0.56740  -0.56039
 Alpha  occ. eigenvalues --   -0.50316  -0.46739  -0.45738  -0.34842  -0.33740
 Alpha virt. eigenvalues --   -0.01867   0.05717   0.06671   0.08267   0.09660
 Alpha virt. eigenvalues --    0.12511   0.13898   0.15188   0.17174   0.19516
 Alpha virt. eigenvalues --    0.20026   0.21609   0.25099   0.26835   0.28783

 Mulliken charges:
               1
     1  C    0.158602
     2  O   -0.352850
     3  C   -0.037246
     4  C   -0.129354
     5  H    0.095934
     6  H    0.089476
     7  H    0.105906
     8  H    0.069532
 Sum of Mulliken charges =   0.00000

 Dipole moment (field-independent basis, Debye):
    X=              3.5372    Y=              0.7797    Z=              0.1350  Tot=              3.6246
 Quadrupole moment (field-independent basis, Debye-Ang):
   XX=            -27.5740   YY=            -21.6673   ZZ=            -25.2673
   XY=             -0.8178   XZ=             -0.2627   YZ=             -0.2118

 Normal termination of Gaussian 09 at Wed Aug 26 09:18:03 2020.
