 Gaussian 09, Revision D.01,
 Gaussian 09:  ES64L-G09RevD.01 24-Apr-2013

 --------------------
 #p B2PLYPD3/Def2QZVP
 --------------------

 --------
 acrolein
 --------
 Symbolic Z-matrix:
 Charge =  0 Multiplicity = 1

                         Standard orientation:
 ---------------------------------------------------------------------
 Center     Atomic      Atomic             Coordinates (Angstroms)
 Number     Number       Type             X           Y           Z
 ---------------------------------------------------------------------
      1          6           0       -0.664509    0.327564    0.016605
      2          8           0       -1.804583   -0.103092    0.008347
      3          6           0        0.592196   -0.469403   -0.035645
      4          6           0        1.759588    0.163623    0.004771
      5          1           0        0.437571   -1.538148   -0.019775
      6          1           0        1.810552    1.223930   -0.038546
      7          1           0        2.587431   -0.404493    0.122753
      8          1           0       -0.522534    1.412745   -0.045594
 ---------------------------------------------------------------------

 SCF Done:  E(RB2PLYPD3) =  -191.610026262     A.U. after   13 cycles
 E2(B2PLYPD3) =    -0.2470911481D+00 E(B2PLYPD3) =    -0.19185711741004D+03

 The electronic state is 1-A.
 Alpha  occ. eigenvalues --  -19.72790 -10.71513 -10.64653 -10.64519  -1.18916
 Alpha  occ. eigenvalues --   -0.93457  -0.75927  -0.67172  -0.57387  -0.56280
 Alpha  occ. eigenvalues --   -0.50572  -0.48041  -0.46295  -0.34873  -0.33539
 Alpha virt. eigenvalues --   -0.01773   0.05911   0.07239   0.07982   0.09770
 Alpha virt. eigenvalues --    0.12790   0.13926   0.15295   0.17348   0.19895
 Alpha virt. eigenvalues --    0.19935   0.22086   0.25147   0.26530   0.28587

 Mulliken charges:
               1
     1  C    0.158064
     2  O   -0.353693
     3  C   -0.039812
     4  C   -0.131876
     5  H    0.103199
     6  H    0.094381
     7  H    0.105175
     8  H    0.064563
 Sum of Mulliken charges =   0.00000

 Dipole moment (field-independent basis, Debye):
    X=              3.5511    Y=              0.6848    Z=              0.0439  Tot=              3.6168
 Quadrupole moment (field-independent basis, Debye-Ang):
   XX=            -27.7602   YY=            -21.6352   ZZ=            -25.1078
   XY=             -0.7717   XZ=              0.2958   YZ=             -0.1313

 Normal termination of Gaussian 09 at Wed Aug 26 10:30:05 2020.
