 Gaussian 09, Revision D.01,
 Gaussian 09:  ES64L-G09RevD.01 24-Apr-2013

 --------------------
 #p B2PLYPD3/Def2QZVP
 --------------------

 --------
 acrolein
 --------
 Symbolic Z-matrix:
 Charge =  0 Multiplicity = 1

                         Standard orientation:
 ---------------------------------------------------------------------
 Center     Atomic      Atomic             Coordinates (Angstroms)
 Number     Number       Type             X           Y           Z
 ---------------------------------------------------------------------
      1          6           0        0.669905   -0.341663    0.065595
      2          8           0        1.777633    0.101406   -0.069667
      3          6           0       -0.572300    0.488603    0.107985
      4          6           0       -1.764588   -0.179448   -0.072044
      5          1           0       -0.521511    1.598466   -0.045816
      6          1           0       -1.817666   -1.245091   -0.034563
      7          1           0       -2.448524    0.387550   -0.076963
      8          1           0        0.568533   -1.357121    0.105464
 ---------------------------------------------------------------------

 SCF Done:  E(RB2PLYPD3) =  -191.566694550     A.U. after   13 cycles
 E2(B2PLYPD3) =    -0.2469079423D+00 E(B2PLYPD3) =    -0.19181360249219D+03

 The electronic state is 1-A.
 Alpha  occ. eigenvalues --  -19.72291 -10.70523 -10.65333 -10.63637  -1.19822
 Alpha  occ. eigenvalues --   -0.92853  -0.76959  -0.67878  -0.58835  -0.55990
 Alpha  occ. eigenvalues --   -0.50194  -0.48442  -0.46594  -0.34136  -0.33425
 Alpha virt. eigenvalues --   -0.01786   0.06088   0.07161   0.07596   0.09734
 Alpha virt. eigenvalues --    0.12812   0.13983   0.15547   0.17616   0.19672
 Alpha virt. eigenvalues --    0.20122   0.22563   0.24233   0.26358   0.28444

 Mulliken charges:
               1
     1  C    0.149108
     2  O   -0.345168
     3  C   -0.045448
     4  C   -0.168355
     5  H    0.099079
     6  H    0.096635
     7  H    0.130975
     8  H    0.083174
 Sum of Mulliken charges =   0.00000

 Dipole moment (field-independent basis, Debye):
    X=             -3.4030    Y=             -0.7995    Z=              0.1178  Tot=              3.4977
 Quadrupole moment (field-independent basis, Debye-Ang):
   XX=            -27.8788   YY=            -21.1604   ZZ=            -25.1211
   XY=             -0.9505   XZ=              0.6762   YZ=             -0.1854

 Normal termination of Gaussian 09 at Wed Aug 26 13:44:11 2020.
