 Gaussian 09, Revision D.01,
 Gaussian 09:  ES64L-G09RevD.01 24-Apr-2013

 --------------------
 #p B2PLYPD3/Def2QZVP
 --------------------

 --------
 acrolein
 --------
 Symbolic Z-matrix:
 Charge =  0 Multiplicity = 1

                         Standard orientation:
 ---------------------------------------------------------------------
 Center     Atomic      Atomic             Coordinates (Angstroms)
 Number     Number       Type             X           Y           Z
 ---------------------------------------------------------------------
      1          6           0       -0.683124    0.341465    0.080257
      2          8           0       -1.759716   -0.132078   -0.049876
      3          6           0        0.529829   -0.416415    0.021340
      4          6           0        1.753489    0.137322   -0.039159
      5          1           0        0.388091   -1.497700    0.024835
      6          1           0        1.801112    1.210662   -0.105080
      7          1           0        2.831655   -0.489462    0.061476
      8          1           0       -0.544293    1.458893    0.043151
 ---------------------------------------------------------------------

 SCF Done:  E(RB2PLYPD3) =  -191.595965282     A.U. after   13 cycles
 E2(B2PLYPD3) =    -0.2474421278D+00 E(B2PLYPD3) =    -0.19184340740953D+03

 The electronic state is 1-A.
 Alpha  occ. eigenvalues --  -19.72789 -10.71105 -10.67244 -10.64214  -1.21385
 Alpha  occ. eigenvalues --   -0.92786  -0.74937  -0.66578  -0.56823  -0.55457
 Alpha  occ. eigenvalues --   -0.49977  -0.47991  -0.45734  -0.34626  -0.33629
 Alpha virt. eigenvalues --   -0.02023   0.05195   0.06947   0.08609   0.09827
 Alpha virt. eigenvalues --    0.11975   0.13832   0.15441   0.17714   0.19581
 Alpha virt. eigenvalues --    0.19732   0.20694   0.25680   0.26237   0.28914

 Mulliken charges:
               1
     1  C    0.160591
     2  O   -0.332753
     3  C   -0.030718
     4  C   -0.135221
     5  H    0.102531
     6  H    0.086954
     7  H    0.100279
     8  H    0.048338
 Sum of Mulliken charges =   0.00000

 Dipole moment (field-independent basis, Debye):
    X=              3.3075    Y=              0.7223    Z=              0.2003  Tot=              3.3913
 Quadrupole moment (field-independent basis, Debye-Ang):
   XX=            -26.9734   YY=            -22.1292   ZZ=            -25.3043
   XY=             -1.0447   XZ=             -0.2033   YZ=             -0.2029

 Normal termination of Gaussian 09 at Wed Aug 26 11:43:35 2020.
