 Gaussian 09, Revision D.01,
 Gaussian 09:  ES64L-G09RevD.01 24-Apr-2013

 --------------------
 #p B2PLYPD3/Def2QZVP
 --------------------

 --------
 acrolein
 --------
 Symbolic Z-matrix:
 Charge =  0 Multiplicity = 1

                         Standard orientation:
 ---------------------------------------------------------------------
 Center     Atomic      Atomic             Coordinates (Angstroms)
 Number     Number       Type             X           Y           Z
 ---------------------------------------------------------------------
      1          6           0       -0.679936    0.329841    0.010735
      2          8           0       -1.803771   -0.103853   -0.031814
      3          6           0        0.574437   -0.493047    0.007562
      4          6           0        1.762293    0.165775   -0.000141
      5          1           0        0.402246   -1.521577    0.079821
      6          1           0        1.911519    1.321969   -0.192302
      7          1           0        2.769840   -0.451335    0.014551
      8          1           0       -0.594192    1.466355    0.243511
 ---------------------------------------------------------------------

 SCF Done:  E(RB2PLYPD3) =  -191.594859453     A.U. after   13 cycles
 E2(B2PLYPD3) =    -0.2491065521D+00 E(B2PLYPD3) =    -0.19184396600459D+03

 The electronic state is 1-A.
 Alpha  occ. eigenvalues --  -19.72819 -10.72072 -10.67977 -10.65270  -1.19850
 Alpha  occ. eigenvalues --   -0.91882  -0.73676  -0.66216  -0.55653  -0.55414
 Alpha  occ. eigenvalues --   -0.50563  -0.46613  -0.45863  -0.34526  -0.33255
 Alpha virt. eigenvalues --   -0.01811   0.05233   0.06885   0.07514   0.09512
 Alpha virt. eigenvalues --    0.11845   0.13811   0.15233   0.17692   0.18758
 Alpha virt. eigenvalues --    0.20041   0.20840   0.24148   0.26642   0.28454

 Mulliken charges:
               1
     1  C    0.160067
     2  O   -0.339947
     3  C   -0.064055
     4  C   -0.117750
     5  H    0.118689
     6  H    0.094388
     7  H    0.088610
     8  H    0.059997
 Sum of Mulliken charges =   0.00000

 Dipole moment (field-independent basis, Debye):
    X=              3.4166    Y=              0.6209    Z=              0.0787  Tot=              3.4734
 Quadrupole moment (field-independent basis, Debye-Ang):
   XX=            -27.6266   YY=            -21.7405   ZZ=            -25.5206
   XY=             -0.6228   XZ=             -0.4481   YZ=             -0.3121

 Normal termination of Gaussian 09 at Wed Aug 26 14:49:18 2020.
