 Gaussian 09, Revision D.01,
 Gaussian 09:  ES64L-G09RevD.01 24-Apr-2013

 --------------------
 #p B2PLYPD3/Def2QZVP
 --------------------

 --------
 acrolein
 --------
 Symbolic Z-matrix:
 Charge =  0 Multiplicity = 1

                         Standard orientation:
 ---------------------------------------------------------------------
 Center     Atomic      Atomic             Coordinates (Angstroms)
 Number     Number       Type             X           Y           Z
 ---------------------------------------------------------------------
      1          6           0        0.679206    0.354898   -0.005610
      2          8           0        1.781229   -0.131210    0.016668
      3          6           0       -0.555348   -0.433394   -0.025552
      4          6           0       -1.763577    0.132885    0.004833
      5          1           0       -0.449627   -1.523091   -0.029817
      6          1           0       -1.827546    1.217129    0.005421
      7          1           0       -2.666549   -0.430535    0.086989
      8          1           0        0.532204    1.459849   -0.037960
 ---------------------------------------------------------------------

 SCF Done:  E(RB2PLYPD3) =  -191.616677789     A.U. after   12 cycles
 E2(B2PLYPD3) =    -0.2469335938D+00 E(B2PLYPD3) =    -0.19186361138272D+03

 The electronic state is 1-A.
 Alpha  occ. eigenvalues --  -19.72868 -10.71626 -10.65320 -10.64378  -1.19963
 Alpha  occ. eigenvalues --   -0.92901  -0.75560  -0.66680  -0.56679  -0.56480
 Alpha  occ. eigenvalues --   -0.50829  -0.47097  -0.46522  -0.34629  -0.33902
 Alpha virt. eigenvalues --   -0.01763   0.05803   0.07131   0.08346   0.09776
 Alpha virt. eigenvalues --    0.12504   0.14040   0.15405   0.17427   0.19737
 Alpha virt. eigenvalues --    0.19884   0.21706   0.25572   0.26347   0.28847

 Mulliken charges:
               1
     1  C    0.155904
     2  O   -0.343331
     3  C   -0.037549
     4  C   -0.132221
     5  H    0.101540
     6  H    0.080925
     7  H    0.106521
     8  H    0.068212
 Sum of Mulliken charges =   0.00000

 Dipole moment (field-independent basis, Debye):
    X=             -3.4269    Y=              0.7713    Z=              0.0014  Tot=              3.5126
 Quadrupole moment (field-independent basis, Debye-Ang):
   XX=            -27.3024   YY=            -21.8230   ZZ=            -25.2067
   XY=              1.0829   XZ=             -0.3039   YZ=             -0.0308

 Normal termination of Gaussian 09 at Wed Aug 26 15:32:50 2020.
