 Gaussian 09, Revision D.01,
 Gaussian 09:  ES64L-G09RevD.01 24-Apr-2013

 --------------------
 #p B2PLYPD3/Def2QZVP
 --------------------

 --------
 acrolein
 --------
 Symbolic Z-matrix:
 Charge =  0 Multiplicity = 1

                         Standard orientation:
 ---------------------------------------------------------------------
 Center     Atomic      Atomic             Coordinates (Angstroms)
 Number     Number       Type             X           Y           Z
 ---------------------------------------------------------------------
      1          6           0       -0.662646    0.340062   -0.024037
      2          8           0       -1.801282   -0.107247    0.018571
      3          6           0        0.565754   -0.462425   -0.017007
      4          6           0        1.760120    0.137558    0.006014
      5          1           0        0.448525   -1.543517    0.007125
      6          1           0        1.858360    1.282518    0.047279
      7          1           0        2.605658   -0.412148    0.025483
      8          1           0       -0.481654    1.439955   -0.018271
 ---------------------------------------------------------------------

 SCF Done:  E(RB2PLYPD3) =  -191.609309574     A.U. after   12 cycles
 E2(B2PLYPD3) =    -0.2480766828D+00 E(B2PLYPD3) =    -0.19185738625721D+03

 The electronic state is 1-A.
 Alpha  occ. eigenvalues --  -19.72851 -10.71781 -10.65612 -10.64684  -1.18668
 Alpha  occ. eigenvalues --   -0.93177  -0.76029  -0.66573  -0.57155  -0.55695
 Alpha  occ. eigenvalues --   -0.50544  -0.46942  -0.46327  -0.34717  -0.33846
 Alpha virt. eigenvalues --   -0.02051   0.05652   0.07088   0.08086   0.09675
 Alpha virt. eigenvalues --    0.12507   0.13996   0.15311   0.17340   0.19448
 Alpha virt. eigenvalues --    0.20018   0.21920   0.25298   0.26527   0.28686

 Mulliken charges:
               1
     1  C    0.161178
     2  O   -0.355369
     3  C   -0.039954
     4  C   -0.127280
     5  H    0.103162
     6  H    0.082923
     7  H    0.107830
     8  H    0.067509
 Sum of Mulliken charges =   0.00000

 Dipole moment (field-independent basis, Debye):
    X=              3.6191    Y=              0.6798    Z=             -0.0054  Tot=              3.6824
 Quadrupole moment (field-independent basis, Debye-Ang):
   XX=            -27.6300   YY=            -21.6606   ZZ=            -25.2615
   XY=             -0.8134   XZ=              0.2332   YZ=              0.0214

 Normal termination of Gaussian 09 at Wed Aug 26 19:04:17 2020.
