 Gaussian 09, Revision D.01,
 Gaussian 09:  ES64L-G09RevD.01 24-Apr-2013

 --------------------
 #p B2PLYPD3/Def2QZVP
 --------------------

 --------
 acrolein
 --------
 Symbolic Z-matrix:
 Charge =  0 Multiplicity = 1

                         Standard orientation:
 ---------------------------------------------------------------------
 Center     Atomic      Atomic             Coordinates (Angstroms)
 Number     Number       Type             X           Y           Z
 ---------------------------------------------------------------------
      1          6           0       -0.691879    0.371751    0.005872
      2          8           0       -1.771058   -0.146893   -0.023624
      3          6           0        0.558789   -0.428862    0.029884
      4          6           0        1.761669    0.129222   -0.039120
      5          1           0        0.440464   -1.469740    0.070574
      6          1           0        1.798838    1.147130   -0.006967
      7          1           0        2.691831   -0.407086    0.019271
      8          1           0       -0.534142    1.472171    0.126297
 ---------------------------------------------------------------------

 SCF Done:  E(RB2PLYPD3) =  -191.612042581     A.U. after   12 cycles
 E2(B2PLYPD3) =    -0.2460580868D+00 E(B2PLYPD3) =    -0.19185810066753D+03

 The electronic state is 1-A.
 Alpha  occ. eigenvalues --  -19.73083 -10.71813 -10.64231 -10.63698  -1.20561
 Alpha  occ. eigenvalues --   -0.92971  -0.75432  -0.67530  -0.56943  -0.56690
 Alpha  occ. eigenvalues --   -0.51272  -0.47515  -0.46868  -0.34621  -0.33917
 Alpha virt. eigenvalues --   -0.01425   0.05924   0.07334   0.08248   0.09886
 Alpha virt. eigenvalues --    0.12623   0.14064   0.15443   0.17689   0.19678
 Alpha virt. eigenvalues --    0.20117   0.21818   0.25583   0.26388   0.28815

 Mulliken charges:
               1
     1  C    0.154331
     2  O   -0.337120
     3  C   -0.043237
     4  C   -0.131872
     5  H    0.106910
     6  H    0.078603
     7  H    0.099790
     8  H    0.072593
 Sum of Mulliken charges =   0.00000

 Dipole moment (field-independent basis, Debye):
    X=              3.2565    Y=              0.8437    Z=              0.1725  Tot=              3.3684
 Quadrupole moment (field-independent basis, Debye-Ang):
   XX=            -27.1416   YY=            -21.8920   ZZ=            -25.0744
   XY=             -1.1276   XZ=             -0.0398   YZ=             -0.0410

 Normal termination of Gaussian 09 at Wed Aug 26 09:09:50 2020.
