 Gaussian 09, Revision D.01,
 Gaussian 09:  ES64L-G09RevD.01 24-Apr-2013

 --------------------
 #p B2PLYPD3/Def2QZVP
 --------------------

 --------
 acrolein
 --------
 Symbolic Z-matrix:
 Charge =  0 Multiplicity = 1

                         Standard orientation:
 ---------------------------------------------------------------------
 Center     Atomic      Atomic             Coordinates (Angstroms)
 Number     Number       Type             X           Y           Z
 ---------------------------------------------------------------------
      1          6           0       -0.695259    0.339919    0.040212
      2          8           0       -1.798550   -0.107803   -0.049076
      3          6           0        0.551175   -0.469913    0.112044
      4          6           0        1.782624    0.148995   -0.069211
      5          1           0        0.425467   -1.541836   -0.093687
      6          1           0        1.825956    1.203823    0.046685
      7          1           0        2.754788   -0.382969   -0.075026
      8          1           0       -0.449057    1.469401    0.016372
 ---------------------------------------------------------------------

 SCF Done:  E(RB2PLYPD3) =  -191.604077185     A.U. after   13 cycles
 E2(B2PLYPD3) =    -0.2489508312D+00 E(B2PLYPD3) =    -0.19185302801595D+03

 The electronic state is 1-A.
 Alpha  occ. eigenvalues --  -19.73248 -10.72245 -10.66549 -10.65480  -1.20780
 Alpha  occ. eigenvalues --   -0.91646  -0.75155  -0.66241  -0.56256  -0.55672
 Alpha  occ. eigenvalues --   -0.50558  -0.47513  -0.46788  -0.34321  -0.33489
 Alpha virt. eigenvalues --   -0.02437   0.05739   0.07152   0.07568   0.09756
 Alpha virt. eigenvalues --    0.12527   0.13545   0.15137   0.17632   0.19620
 Alpha virt. eigenvalues --    0.20066   0.21407   0.23637   0.26659   0.28561

 Mulliken charges:
               1
     1  C    0.161277
     2  O   -0.330737
     3  C   -0.048026
     4  C   -0.123728
     5  H    0.106116
     6  H    0.082669
     7  H    0.101488
     8  H    0.050942
 Sum of Mulliken charges =   0.00000

 Dipole moment (field-independent basis, Debye):
    X=              3.4279    Y=              0.6801    Z=              0.0264  Tot=              3.4948
 Quadrupole moment (field-independent basis, Debye-Ang):
   XX=            -27.0206   YY=            -22.1692   ZZ=            -25.4420
   XY=             -0.6686   XZ=             -0.4383   YZ=              0.3048

 Normal termination of Gaussian 09 at Wed Aug 26 11:35:20 2020.
