 Gaussian 09, Revision D.01,
 Gaussian 09:  ES64L-G09RevD.01 24-Apr-2013

 --------------------
 #p B2PLYPD3/Def2QZVP
 --------------------

 --------
 acrolein
 --------
 Symbolic Z-matrix:
 Charge =  0 Multiplicity = 1

                         Standard orientation:
 ---------------------------------------------------------------------
 Center     Atomic      Atomic             Coordinates (Angstroms)
 Number     Number       Type             X           Y           Z
 ---------------------------------------------------------------------
      1          6           0       -0.663425    0.333510    0.013816
      2          8           0       -1.792557   -0.105332   -0.020142
      3          6           0        0.556846   -0.459027    0.012336
      4          6           0        1.759277    0.145650   -0.007276
      5          1           0        0.416827   -1.534800    0.041245
      6          1           0        1.847889    1.237088   -0.062904
      7          1           0        2.667813   -0.413965   -0.020109
      8          1           0       -0.508263    1.433530    0.089646
 ---------------------------------------------------------------------

 SCF Done:  E(RB2PLYPD3) =  -191.615968506     A.U. after   12 cycles
 E2(B2PLYPD3) =    -0.2475047106D+00 E(B2PLYPD3) =    -0.19186347321642D+03

 The electronic state is 1-A.
 Alpha  occ. eigenvalues --  -19.72677 -10.71385 -10.65920 -10.64695  -1.19342
 Alpha  occ. eigenvalues --   -0.93001  -0.75808  -0.66778  -0.56645  -0.56266
 Alpha  occ. eigenvalues --   -0.50461  -0.47232  -0.46670  -0.34582  -0.33722
 Alpha virt. eigenvalues --   -0.02069   0.05726   0.07140   0.08288   0.09717
 Alpha virt. eigenvalues --    0.12581   0.13988   0.15311   0.17409   0.19608
 Alpha virt. eigenvalues --    0.20093   0.21609   0.25252   0.26530   0.28755

 Mulliken charges:
               1
     1  C    0.157366
     2  O   -0.351466
     3  C   -0.036241
     4  C   -0.129741
     5  H    0.105224
     6  H    0.088016
     7  H    0.104510
     8  H    0.062332
 Sum of Mulliken charges =   0.00000

 Dipole moment (field-independent basis, Debye):
    X=              3.5915    Y=              0.6756    Z=              0.0556  Tot=              3.6549
 Quadrupole moment (field-independent basis, Debye-Ang):
   XX=            -27.4017   YY=            -21.7813   ZZ=            -25.2413
   XY=             -0.7451   XZ=             -0.2366   YZ=             -0.0923

 Normal termination of Gaussian 09 at Wed Aug 26 15:59:01 2020.
