 Gaussian 09, Revision D.01,
 Gaussian 09:  ES64L-G09RevD.01 24-Apr-2013

 --------------------
 #p B2PLYPD3/Def2QZVP
 --------------------

 --------
 acrolein
 --------
 Symbolic Z-matrix:
 Charge =  0 Multiplicity = 1

                         Standard orientation:
 ---------------------------------------------------------------------
 Center     Atomic      Atomic             Coordinates (Angstroms)
 Number     Number       Type             X           Y           Z
 ---------------------------------------------------------------------
      1          6           0       -0.680899    0.359242    0.023238
      2          8           0       -1.774554   -0.128968   -0.020403
      3          6           0        0.555559   -0.466715   -0.000751
      4          6           0        1.743919    0.141615   -0.025663
      5          1           0        0.469695   -1.512844    0.078742
      6          1           0        1.802795    1.269421   -0.028005
      7          1           0        2.714814   -0.413278    0.048459
      8          1           0       -0.502339    1.483590    0.083086
 ---------------------------------------------------------------------

 SCF Done:  E(RB2PLYPD3) =  -191.612331688     A.U. after   13 cycles
 E2(B2PLYPD3) =    -0.2472727505D+00 E(B2PLYPD3) =    -0.19185960443827D+03

 The electronic state is 1-A.
 Alpha  occ. eigenvalues --  -19.72963 -10.71989 -10.66055 -10.64122  -1.20410
 Alpha  occ. eigenvalues --   -0.92514  -0.74195  -0.66827  -0.56163  -0.56023
 Alpha  occ. eigenvalues --   -0.50673  -0.47195  -0.46456  -0.34577  -0.33793
 Alpha virt. eigenvalues --   -0.01327   0.05650   0.07074   0.07995   0.09705
 Alpha virt. eigenvalues --    0.12335   0.13936   0.15366   0.17689   0.19509
 Alpha virt. eigenvalues --    0.19930   0.21147   0.25339   0.26466   0.28913

 Mulliken charges:
               1
     1  C    0.157008
     2  O   -0.336257
     3  C   -0.048810
     4  C   -0.126305
     5  H    0.110394
     6  H    0.077123
     7  H    0.097498
     8  H    0.069349
 Sum of Mulliken charges =   0.00000

 Dipole moment (field-independent basis, Debye):
    X=              3.3050    Y=              0.7380    Z=              0.1928  Tot=              3.3919
 Quadrupole moment (field-independent basis, Debye-Ang):
   XX=            -27.4484   YY=            -21.7324   ZZ=            -25.3143
   XY=             -1.0208   XZ=              0.0395   YZ=             -0.1410

 Normal termination of Gaussian 09 at Wed Aug 26 09:24:19 2020.
