 Gaussian 09, Revision D.01,
 Gaussian 09:  ES64L-G09RevD.01 24-Apr-2013

 --------------------
 #p B2PLYPD3/Def2QZVP
 --------------------

 --------
 acrolein
 --------
 Symbolic Z-matrix:
 Charge =  0 Multiplicity = 1

                         Standard orientation:
 ---------------------------------------------------------------------
 Center     Atomic      Atomic             Coordinates (Angstroms)
 Number     Number       Type             X           Y           Z
 ---------------------------------------------------------------------
      1          6           0        0.693983    0.320261   -0.101799
      2          8           0        1.790622   -0.104869    0.083522
      3          6           0       -0.557368   -0.448158   -0.082553
      4          6           0       -1.776292    0.172719    0.021671
      5          1           0       -0.487681   -1.489291   -0.014495
      6          1           0       -1.791794    1.170536    0.107819
      7          1           0       -2.699376   -0.452669    0.230976
      8          1           0        0.491939    1.341439   -0.016394
 ---------------------------------------------------------------------

 SCF Done:  E(RB2PLYPD3) =  -191.599552658     A.U. after   12 cycles
 E2(B2PLYPD3) =    -0.2467969887D+00 E(B2PLYPD3) =    -0.19184634964658D+03

 The electronic state is 1-A.
 Alpha  occ. eigenvalues --  -19.72861 -10.70699 -10.65698 -10.64346  -1.20769
 Alpha  occ. eigenvalues --   -0.92620  -0.76031  -0.68460  -0.57436  -0.55935
 Alpha  occ. eigenvalues --   -0.50416  -0.48155  -0.47369  -0.34251  -0.33651
 Alpha virt. eigenvalues --   -0.02192   0.05768   0.07458   0.08049   0.09811
 Alpha virt. eigenvalues --    0.12884   0.13899   0.15378   0.18169   0.19580
 Alpha virt. eigenvalues --    0.20100   0.21450   0.24532   0.26976   0.28503

 Mulliken charges:
               1
     1  C    0.155555
     2  O   -0.339614
     3  C   -0.032407
     4  C   -0.142846
     5  H    0.102059
     6  H    0.091218
     7  H    0.100703
     8  H    0.065332
 Sum of Mulliken charges =   0.00000

 Dipole moment (field-independent basis, Debye):
    X=             -3.3660    Y=              0.6985    Z=             -0.0213  Tot=              3.4378
 Quadrupole moment (field-independent basis, Debye-Ang):
   XX=            -27.4116   YY=            -21.9126   ZZ=            -25.0901
   XY=              0.9342   XZ=             -1.1573   YZ=             -0.0234

 Normal termination of Gaussian 09 at Wed Aug 26 14:54:22 2020.
