 Gaussian 09, Revision D.01,
 Gaussian 09:  ES64L-G09RevD.01 24-Apr-2013

 --------------------
 #p B2PLYPD3/Def2QZVP
 --------------------

 --------
 acrolein
 --------
 Symbolic Z-matrix:
 Charge =  0 Multiplicity = 1

                         Standard orientation:
 ---------------------------------------------------------------------
 Center     Atomic      Atomic             Coordinates (Angstroms)
 Number     Number       Type             X           Y           Z
 ---------------------------------------------------------------------
      1          6           0       -0.679504    0.364592    0.002617
      2          8           0       -1.783922   -0.132184    0.001029
      3          6           0        0.561830   -0.444821   -0.021110
      4          6           0        1.758152    0.140550   -0.004343
      5          1           0        0.447636   -1.524641    0.051453
      6          1           0        1.826240    1.181920    0.002158
      7          1           0        2.659752   -0.421721    0.048447
      8          1           0       -0.505122    1.459993    0.026721
 ---------------------------------------------------------------------

 SCF Done:  E(RB2PLYPD3) =  -191.615652810     A.U. after   12 cycles
 E2(B2PLYPD3) =    -0.2469348329D+00 E(B2PLYPD3) =    -0.19186258764258D+03

 The electronic state is 1-A.
 Alpha  occ. eigenvalues --  -19.72961 -10.71817 -10.64673 -10.64324  -1.19596
 Alpha  occ. eigenvalues --   -0.92939  -0.75517  -0.67129  -0.56741  -0.56519
 Alpha  occ. eigenvalues --   -0.50754  -0.47200  -0.46685  -0.34608  -0.33914
 Alpha virt. eigenvalues --   -0.01622   0.05850   0.07195   0.08048   0.09808
 Alpha virt. eigenvalues --    0.12674   0.13988   0.15354   0.17449   0.19921
 Alpha virt. eigenvalues --    0.20012   0.21819   0.25430   0.26503   0.28719

 Mulliken charges:
               1
     1  C    0.154155
     2  O   -0.346287
     3  C   -0.039279
     4  C   -0.134368
     5  H    0.104507
     6  H    0.083801
     7  H    0.102395
     8  H    0.075075
 Sum of Mulliken charges =   0.00000

 Dipole moment (field-independent basis, Debye):
    X=              3.4121    Y=              0.8226    Z=              0.1026  Tot=              3.5113
 Quadrupole moment (field-independent basis, Debye-Ang):
   XX=            -27.4356   YY=            -21.7102   ZZ=            -25.1771
   XY=             -0.9895   XZ=              0.1663   YZ=             -0.0994

 Normal termination of Gaussian 09 at Wed Aug 26 16:36:23 2020.
