 Gaussian 09, Revision D.01,
 Gaussian 09:  ES64L-G09RevD.01 24-Apr-2013

 --------------------
 #p B2PLYPD3/Def2QZVP
 --------------------

 --------
 acrolein
 --------
 Symbolic Z-matrix:
 Charge =  0 Multiplicity = 1

                         Standard orientation:
 ---------------------------------------------------------------------
 Center     Atomic      Atomic             Coordinates (Angstroms)
 Number     Number       Type             X           Y           Z
 ---------------------------------------------------------------------
      1          6           0       -0.670562    0.351113   -0.006909
      2          8           0       -1.795610   -0.123377    0.012847
      3          6           0        0.564487   -0.443270   -0.030985
      4          6           0        1.758812    0.130956    0.006783
      5          1           0        0.425137   -1.503063    0.024234
      6          1           0        1.852723    1.226600    0.013871
      7          1           0        2.639406   -0.447402    0.056489
      8          1           0       -0.468817    1.478083   -0.010702
 ---------------------------------------------------------------------

 SCF Done:  E(RB2PLYPD3) =  -191.614364487     A.U. after   12 cycles
 E2(B2PLYPD3) =    -0.2478366790D+00 E(B2PLYPD3) =    -0.19186220116560D+03

 The electronic state is 1-A.
 Alpha  occ. eigenvalues --  -19.73095 -10.72151 -10.65371 -10.64207  -1.19015
 Alpha  occ. eigenvalues --   -0.93317  -0.75708  -0.66588  -0.56894  -0.55911
 Alpha  occ. eigenvalues --   -0.50688  -0.46982  -0.46554  -0.34871  -0.33887
 Alpha virt. eigenvalues --   -0.01928   0.05729   0.07138   0.08150   0.09793
 Alpha virt. eigenvalues --    0.12558   0.13699   0.15309   0.17461   0.19649
 Alpha virt. eigenvalues --    0.19941   0.21802   0.25422   0.26509   0.28600

 Mulliken charges:
               1
     1  C    0.162047
     2  O   -0.352080
     3  C   -0.035831
     4  C   -0.128800
     5  H    0.104512
     6  H    0.084185
     7  H    0.105272
     8  H    0.060695
 Sum of Mulliken charges =   0.00000

 Dipole moment (field-independent basis, Debye):
    X=              3.5455    Y=              0.7115    Z=              0.0453  Tot=              3.6164
 Quadrupole moment (field-independent basis, Debye-Ang):
   XX=            -27.4884   YY=            -21.8327   ZZ=            -25.2191
   XY=             -0.8565   XZ=              0.2461   YZ=             -0.0734

 Normal termination of Gaussian 09 at Wed Aug 26 16:08:12 2020.
