 Gaussian 09, Revision D.01,
 Gaussian 09:  ES64L-G09RevD.01 24-Apr-2013

 --------------------
 #p B2PLYPD3/Def2QZVP
 --------------------

 --------
 acrolein
 --------
 Symbolic Z-matrix:
 Charge =  0 Multiplicity = 1

                         Standard orientation:
 ---------------------------------------------------------------------
 Center     Atomic      Atomic             Coordinates (Angstroms)
 Number     Number       Type             X           Y           Z
 ---------------------------------------------------------------------
      1          6           0        0.676536    0.350184   -0.006127
      2          8           0        1.787574   -0.132316    0.006590
      3          6           0       -0.548082   -0.440811   -0.019868
      4          6           0       -1.757895    0.143264    0.000909
      5          1           0       -0.487255   -1.486653    0.038448
      6          1           0       -1.810946    1.190956    0.015489
      7          1           0       -2.733264   -0.443583    0.031042
      8          1           0        0.507514    1.481983    0.012823
 ---------------------------------------------------------------------

 SCF Done:  E(RB2PLYPD3) =  -191.611516245     A.U. after   13 cycles
 E2(B2PLYPD3) =    -0.2477192553D+00 E(B2PLYPD3) =    -0.19185923549981D+03

 The electronic state is 1-A.
 Alpha  occ. eigenvalues --  -19.72927 -10.72010 -10.65871 -10.64111  -1.19586
 Alpha  occ. eigenvalues --   -0.93039  -0.75246  -0.67180  -0.56635  -0.56013
 Alpha  occ. eigenvalues --   -0.50214  -0.47276  -0.46820  -0.34533  -0.33917
 Alpha virt. eigenvalues --   -0.01991   0.05661   0.07074   0.08224   0.09750
 Alpha virt. eigenvalues --    0.12437   0.13826   0.15350   0.17725   0.19907
 Alpha virt. eigenvalues --    0.20009   0.21166   0.25433   0.26193   0.28922

 Mulliken charges:
               1
     1  C    0.150648
     2  O   -0.345434
     3  C   -0.031785
     4  C   -0.131670
     5  H    0.107758
     6  H    0.086169
     7  H    0.099831
     8  H    0.064484
 Sum of Mulliken charges =   0.00000

 Dipole moment (field-independent basis, Debye):
    X=             -3.5082    Y=              0.7459    Z=              0.0595  Tot=              3.5871
 Quadrupole moment (field-independent basis, Debye-Ang):
   XX=            -27.2975   YY=            -21.8801   ZZ=            -25.2608
   XY=              1.0858   XZ=             -0.1622   YZ=             -0.0584

 Normal termination of Gaussian 09 at Wed Aug 26 09:23:56 2020.
