 Gaussian 09, Revision D.01,
 Gaussian 09:  ES64L-G09RevD.01 24-Apr-2013

 --------------------
 #p B2PLYPD3/Def2QZVP
 --------------------

 --------
 acrolein
 --------
 Symbolic Z-matrix:
 Charge =  0 Multiplicity = 1

                         Standard orientation:
 ---------------------------------------------------------------------
 Center     Atomic      Atomic             Coordinates (Angstroms)
 Number     Number       Type             X           Y           Z
 ---------------------------------------------------------------------
      1          6           0        0.674307    0.337252    0.002694
      2          8           0        1.825110   -0.099503    0.008394
      3          6           0       -0.591043   -0.507044   -0.070814
      4          6           0       -1.749419    0.171409   -0.018480
      5          1           0       -0.520705   -1.566820    0.172665
      6          1           0       -1.915507    1.248799    0.031479
      7          1           0       -2.585428   -0.401055    0.177173
      8          1           0        0.417687    1.505398    0.071133
 ---------------------------------------------------------------------

 SCF Done:  E(RB2PLYPD3) =  -191.598181887     A.U. after   13 cycles
 E2(B2PLYPD3) =    -0.2498951674D+00 E(B2PLYPD3) =    -0.19184807705400D+03

 The electronic state is 1-A.
 Alpha  occ. eigenvalues --  -19.73351 -10.73260 -10.65447 -10.65228  -1.18435
 Alpha  occ. eigenvalues --   -0.92748  -0.74865  -0.66095  -0.56359  -0.55361
 Alpha  occ. eigenvalues --   -0.50278  -0.47464  -0.45828  -0.34715  -0.33571
 Alpha virt. eigenvalues --   -0.01923   0.05623   0.06467   0.07342   0.09537
 Alpha virt. eigenvalues --    0.12746   0.13652   0.15042   0.17475   0.19616
 Alpha virt. eigenvalues --    0.19807   0.21830   0.24036   0.26848   0.27823

 Mulliken charges:
               1
     1  C    0.160309
     2  O   -0.345741
     3  C   -0.046380
     4  C   -0.114430
     5  H    0.106429
     6  H    0.089725
     7  H    0.091556
     8  H    0.058533
 Sum of Mulliken charges =   0.00000

 Dipole moment (field-independent basis, Debye):
    X=             -3.6072    Y=              0.6567    Z=              0.3505  Tot=              3.6832
 Quadrupole moment (field-independent basis, Debye-Ang):
   XX=            -27.9318   YY=            -21.6612   ZZ=            -25.3489
   XY=              0.4342   XZ=             -0.6470   YZ=             -0.3331

 Normal termination of Gaussian 09 at Wed Aug 26 11:44:06 2020.
