 Gaussian 09, Revision D.01,
 Gaussian 09:  ES64L-G09RevD.01 24-Apr-2013

 --------------------
 #p B2PLYPD3/Def2QZVP
 --------------------

 --------
 acrolein
 --------
 Symbolic Z-matrix:
 Charge =  0 Multiplicity = 1

                         Standard orientation:
 ---------------------------------------------------------------------
 Center     Atomic      Atomic             Coordinates (Angstroms)
 Number     Number       Type             X           Y           Z
 ---------------------------------------------------------------------
      1          6           0        0.675575    0.362712    0.041479
      2          8           0        1.772857   -0.149674   -0.049209
      3          6           0       -0.516265   -0.440826   -0.001716
      4          6           0       -1.746977    0.113223   -0.007914
      5          1           0       -0.578158   -1.420107    0.233901
      6          1           0       -1.795315    1.209795   -0.124177
      7          1           0       -2.764970   -0.384495   -0.095210
      8          1           0        0.481586    1.581548    0.188063
 ---------------------------------------------------------------------

 SCF Done:  E(RB2PLYPD3) =  -191.588539920     A.U. after   13 cycles
 E2(B2PLYPD3) =    -0.2497366985D+00 E(B2PLYPD3) =    -0.19183827661828D+03

 The electronic state is 1-A.
 Alpha  occ. eigenvalues --  -19.73262 -10.73107 -10.66390 -10.63773  -1.19769
 Alpha  occ. eigenvalues --   -0.93243  -0.74905  -0.66830  -0.56295  -0.56130
 Alpha  occ. eigenvalues --   -0.50093  -0.47363  -0.45431  -0.34587  -0.33906
 Alpha virt. eigenvalues --   -0.02270   0.05570   0.06580   0.07799   0.09650
 Alpha virt. eigenvalues --    0.12155   0.13689   0.14695   0.18242   0.19152
 Alpha virt. eigenvalues --    0.20038   0.20878   0.24556   0.26376   0.29323

 Mulliken charges:
               1
     1  C    0.154291
     2  O   -0.335318
     3  C   -0.031692
     4  C   -0.111329
     5  H    0.107137
     6  H    0.061796
     7  H    0.098066
     8  H    0.057051
 Sum of Mulliken charges =   0.00000

 Dipole moment (field-independent basis, Debye):
    X=             -3.5140    Y=              0.7146    Z=              0.2499  Tot=              3.5947
 Quadrupole moment (field-independent basis, Debye-Ang):
   XX=            -26.8969   YY=            -22.2899   ZZ=            -25.2691
   XY=              1.2710   XZ=              0.4541   YZ=             -0.3330

 Normal termination of Gaussian 09 at Wed Aug 26 14:08:48 2020.
