 Gaussian 09, Revision D.01,
 Gaussian 09:  ES64L-G09RevD.01 24-Apr-2013

 --------------------
 #p B2PLYPD3/Def2QZVP
 --------------------

 --------
 acrolein
 --------
 Symbolic Z-matrix:
 Charge =  0 Multiplicity = 1

                         Standard orientation:
 ---------------------------------------------------------------------
 Center     Atomic      Atomic             Coordinates (Angstroms)
 Number     Number       Type             X           Y           Z
 ---------------------------------------------------------------------
      1          6           0        0.676000    0.343946   -0.011215
      2          8           0        1.775433   -0.131214    0.016515
      3          6           0       -0.532076   -0.440761   -0.066476
      4          6           0       -1.731822    0.163716    0.023140
      5          1           0       -0.511924   -1.550843    0.109073
      6          1           0       -1.746507    1.177751   -0.033301
      7          1           0       -2.905336   -0.450218    0.065255
      8          1           0        0.487693    1.471618    0.054160
 ---------------------------------------------------------------------

 SCF Done:  E(RB2PLYPD3) =  -191.579594452     A.U. after   13 cycles
 E2(B2PLYPD3) =    -0.2489838269D+00 E(B2PLYPD3) =    -0.19182857827852D+03

 The electronic state is 1-A.
 Alpha  occ. eigenvalues --  -19.72887 -10.71882 -10.67252 -10.64792  -1.20453
 Alpha  occ. eigenvalues --   -0.93156  -0.74597  -0.66676  -0.57087  -0.54957
 Alpha  occ. eigenvalues --   -0.49051  -0.47490  -0.45302  -0.34728  -0.33900
 Alpha virt. eigenvalues --   -0.01950   0.04634   0.06480   0.08116   0.09567
 Alpha virt. eigenvalues --    0.11926   0.13769   0.14999   0.17622   0.19674
 Alpha virt. eigenvalues --    0.20096   0.20727   0.24341   0.26118   0.28278

 Mulliken charges:
               1
     1  C    0.144414
     2  O   -0.335196
     3  C   -0.024858
     4  C   -0.130467
     5  H    0.104076
     6  H    0.092116
     7  H    0.090646
     8  H    0.059269
 Sum of Mulliken charges =   0.00000

 Dipole moment (field-independent basis, Debye):
    X=             -3.4261    Y=              0.7783    Z=              0.0916  Tot=              3.5146
 Quadrupole moment (field-independent basis, Debye-Ang):
   XX=            -27.2559   YY=            -22.0457   ZZ=            -25.4145
   XY=              1.0964   XZ=             -0.2539   YZ=             -0.2535

 Normal termination of Gaussian 09 at Wed Aug 26 13:30:49 2020.
