 Gaussian 09, Revision D.01,
 Gaussian 09:  ES64L-G09RevD.01 24-Apr-2013

 --------------------
 #p B2PLYPD3/Def2QZVP
 --------------------

 --------
 acrolein
 --------
 Symbolic Z-matrix:
 Charge =  0 Multiplicity = 1

                         Standard orientation:
 ---------------------------------------------------------------------
 Center     Atomic      Atomic             Coordinates (Angstroms)
 Number     Number       Type             X           Y           Z
 ---------------------------------------------------------------------
      1          6           0        0.660888    0.338855    0.025528
      2          8           0        1.804102   -0.111274   -0.021487
      3          6           0       -0.591429   -0.473350    0.028372
      4          6           0       -1.749751    0.165550   -0.027018
      5          1           0       -0.495123   -1.546679    0.039186
      6          1           0       -1.846781    1.248157    0.081503
      7          1           0       -2.561262   -0.419643   -0.082426
      8          1           0        0.552100    1.422028   -0.027653
 ---------------------------------------------------------------------

 SCF Done:  E(RB2PLYPD3) =  -191.608085777     A.U. after   13 cycles
 E2(B2PLYPD3) =    -0.2474874212D+00 E(B2PLYPD3) =    -0.19185557319781D+03

 The electronic state is 1-A.
 Alpha  occ. eigenvalues --  -19.72643 -10.71630 -10.64667 -10.64509  -1.18207
 Alpha  occ. eigenvalues --   -0.93498  -0.75696  -0.67214  -0.57368  -0.56080
 Alpha  occ. eigenvalues --   -0.50145  -0.47952  -0.45899  -0.34833  -0.33632
 Alpha virt. eigenvalues --   -0.01658   0.05845   0.07122   0.07719   0.09699
 Alpha virt. eigenvalues --    0.12713   0.14072   0.15261   0.17364   0.19659
 Alpha virt. eigenvalues --    0.20195   0.22096   0.24891   0.26494   0.28442

 Mulliken charges:
               1
     1  C    0.152740
     2  O   -0.358218
     3  C   -0.044793
     4  C   -0.127970
     5  H    0.105246
     6  H    0.094374
     7  H    0.101193
     8  H    0.077428
 Sum of Mulliken charges =   0.00000

 Dipole moment (field-independent basis, Debye):
    X=             -3.5942    Y=              0.7358    Z=              0.1024  Tot=              3.6702
 Quadrupole moment (field-independent basis, Debye-Ang):
   XX=            -27.9394   YY=            -21.3930   ZZ=            -25.1513
   XY=              0.9351   XZ=              0.1327   YZ=              0.0946

 Normal termination of Gaussian 09 at Wed Aug 26 08:44:12 2020.
