 Gaussian 09, Revision D.01,
 Gaussian 09:  ES64L-G09RevD.01 24-Apr-2013

 --------------------
 #p B2PLYPD3/Def2QZVP
 --------------------

 --------
 acrolein
 --------
 Symbolic Z-matrix:
 Charge =  0 Multiplicity = 1

                         Standard orientation:
 ---------------------------------------------------------------------
 Center     Atomic      Atomic             Coordinates (Angstroms)
 Number     Number       Type             X           Y           Z
 ---------------------------------------------------------------------
      1          6           0       -0.687309    0.349370    0.046977
      2          8           0       -1.765022   -0.137308   -0.041868
      3          6           0        0.522859   -0.416118    0.019526
      4          6           0        1.739676    0.130770   -0.047649
      5          1           0        0.411330   -1.408831    0.055185
      6          1           0        1.853328    1.121890   -0.170581
      7          1           0        2.889308   -0.465733    0.146894
      8          1           0       -0.485142    1.467004    0.190324
 ---------------------------------------------------------------------

 SCF Done:  E(RB2PLYPD3) =  -191.577914127     A.U. after   13 cycles
 E2(B2PLYPD3) =    -0.2471437653D+00 E(B2PLYPD3) =    -0.19182505789192D+03

 The electronic state is 1-A.
 Alpha  occ. eigenvalues --  -19.73031 -10.71475 -10.66797 -10.63191  -1.21360
 Alpha  occ. eigenvalues --   -0.93451  -0.75426  -0.67993  -0.57606  -0.55491
 Alpha  occ. eigenvalues --   -0.50660  -0.47850  -0.45682  -0.34638  -0.33846
 Alpha virt. eigenvalues --   -0.02037   0.04954   0.07234   0.08545   0.09666
 Alpha virt. eigenvalues --    0.11981   0.13879   0.15473   0.17920   0.19226
 Alpha virt. eigenvalues --    0.19959   0.21043   0.24934   0.26390   0.28005

 Mulliken charges:
               1
     1  C    0.149412
     2  O   -0.334064
     3  C   -0.026495
     4  C   -0.136204
     5  H    0.113867
     6  H    0.092304
     7  H    0.084376
     8  H    0.056803
 Sum of Mulliken charges =   0.00000

 Dipole moment (field-independent basis, Debye):
    X=              3.2932    Y=              0.7833    Z=              0.2155  Tot=              3.3919
 Quadrupole moment (field-independent basis, Debye-Ang):
   XX=            -26.9716   YY=            -22.2755   ZZ=            -25.1189
   XY=             -0.7192   XZ=             -0.0731   YZ=             -0.2938

 Normal termination of Gaussian 09 at Wed Aug 26 13:21:03 2020.
