 Gaussian 09, Revision D.01,
 Gaussian 09:  ES64L-G09RevD.01 24-Apr-2013

 --------------------
 #p B2PLYPD3/Def2QZVP
 --------------------

 --------
 acrolein
 --------
 Symbolic Z-matrix:
 Charge =  0 Multiplicity = 1

                         Standard orientation:
 ---------------------------------------------------------------------
 Center     Atomic      Atomic             Coordinates (Angstroms)
 Number     Number       Type             X           Y           Z
 ---------------------------------------------------------------------
      1          6           0       -0.668990    0.342453   -0.000538
      2          8           0       -1.785682   -0.110343   -0.008719
      3          6           0        0.566395   -0.456994    0.004938
      4          6           0        1.755702    0.143649   -0.012772
      5          1           0        0.447211   -1.554126    0.044813
      6          1           0        1.841411    1.232068   -0.010743
      7          1           0        2.601629   -0.382842    0.011444
      8          1           0       -0.523437    1.413002    0.074465
 ---------------------------------------------------------------------

 SCF Done:  E(RB2PLYPD3) =  -191.611763718     A.U. after   12 cycles
 E2(B2PLYPD3) =    -0.2463551641D+00 E(B2PLYPD3) =    -0.19185811888255D+03

 The electronic state is 1-A.
 Alpha  occ. eigenvalues --  -19.72671 -10.71154 -10.64653 -10.64524  -1.19762
 Alpha  occ. eigenvalues --   -0.93145  -0.76157  -0.67024  -0.57246  -0.56585
 Alpha  occ. eigenvalues --   -0.50919  -0.47219  -0.46728  -0.34713  -0.33762
 Alpha virt. eigenvalues --   -0.01629   0.05883   0.07200   0.08292   0.09726
 Alpha virt. eigenvalues --    0.12740   0.14301   0.15350   0.17313   0.19717
 Alpha virt. eigenvalues --    0.20069   0.22117   0.25436   0.26557   0.28694

 Mulliken charges:
               1
     1  C    0.156457
     2  O   -0.346792
     3  C   -0.040090
     4  C   -0.130701
     5  H    0.100685
     6  H    0.082931
     7  H    0.105738
     8  H    0.071773
 Sum of Mulliken charges =   0.00000

 Dipole moment (field-independent basis, Debye):
    X=              3.4813    Y=              0.7354    Z=              0.0856  Tot=              3.5592
 Quadrupole moment (field-independent basis, Debye-Ang):
   XX=            -27.4199   YY=            -21.6703   ZZ=            -25.1113
   XY=             -0.8443   XZ=             -0.0145   YZ=             -0.0518

 Normal termination of Gaussian 09 at Wed Aug 26 16:13:18 2020.
