 Gaussian 09, Revision D.01,
 Gaussian 09:  ES64L-G09RevD.01 24-Apr-2013

 --------------------
 #p B2PLYPD3/Def2QZVP
 --------------------

 --------
 acrolein
 --------
 Symbolic Z-matrix:
 Charge =  0 Multiplicity = 1

                         Standard orientation:
 ---------------------------------------------------------------------
 Center     Atomic      Atomic             Coordinates (Angstroms)
 Number     Number       Type             X           Y           Z
 ---------------------------------------------------------------------
      1          6           0        0.677005    0.351618   -0.013545
      2          8           0        1.781985   -0.127830    0.015675
      3          6           0       -0.554632   -0.441532   -0.009596
      4          6           0       -1.750172    0.144379    0.007510
      5          1           0       -0.451245   -1.531449   -0.010144
      6          1           0       -1.822672    1.171773    0.091409
      7          1           0       -2.707987   -0.426571   -0.030040
      8          1           0        0.492818    1.482098   -0.082841
 ---------------------------------------------------------------------

 SCF Done:  E(RB2PLYPD3) =  -191.613238227     A.U. after   12 cycles
 E2(B2PLYPD3) =    -0.2471857846D+00 E(B2PLYPD3) =    -0.19186042401140D+03

 The electronic state is 1-A.
 Alpha  occ. eigenvalues --  -19.72994 -10.71964 -10.65229 -10.64397  -1.20003
 Alpha  occ. eigenvalues --   -0.93097  -0.75348  -0.66657  -0.56717  -0.56204
 Alpha  occ. eigenvalues --   -0.50508  -0.47106  -0.46890  -0.34700  -0.33847
 Alpha virt. eigenvalues --   -0.01726   0.05772   0.07010   0.08244   0.09798
 Alpha virt. eigenvalues --    0.12575   0.13929   0.15379   0.17291   0.19739
 Alpha virt. eigenvalues --    0.20253   0.21540   0.25401   0.26400   0.28686

 Mulliken charges:
               1
     1  C    0.154638
     2  O   -0.341773
     3  C   -0.032433
     4  C   -0.132587
     5  H    0.103335
     6  H    0.087307
     7  H    0.100127
     8  H    0.061386
 Sum of Mulliken charges =   0.00000

 Dipole moment (field-independent basis, Debye):
    X=             -3.4406    Y=              0.7387    Z=             -0.0298  Tot=              3.5191
 Quadrupole moment (field-independent basis, Debye-Ang):
   XX=            -27.2786   YY=            -21.8882   ZZ=            -25.2126
   XY=              0.9079   XZ=             -0.1427   YZ=              0.1039

 Normal termination of Gaussian 09 at Wed Aug 26 14:39:11 2020.
