 Gaussian 09, Revision D.01,
 Gaussian 09:  ES64L-G09RevD.01 24-Apr-2013

 --------------------
 #p B2PLYPD3/Def2QZVP
 --------------------

 --------
 acrolein
 --------
 Symbolic Z-matrix:
 Charge =  0 Multiplicity = 1

                         Standard orientation:
 ---------------------------------------------------------------------
 Center     Atomic      Atomic             Coordinates (Angstroms)
 Number     Number       Type             X           Y           Z
 ---------------------------------------------------------------------
      1          6           0       -0.672189    0.344718    0.008001
      2          8           0       -1.792523   -0.116664    0.002983
      3          6           0        0.566457   -0.465533   -0.020294
      4          6           0        1.756239    0.141440   -0.000784
      5          1           0        0.457641   -1.483516    0.013593
      6          1           0        1.852898    1.261834   -0.008404
      7          1           0        2.641879   -0.417666    0.059259
      8          1           0       -0.515274    1.448902   -0.009846
 ---------------------------------------------------------------------

 SCF Done:  E(RB2PLYPD3) =  -191.612859297     A.U. after   12 cycles
 E2(B2PLYPD3) =    -0.2470662529D+00 E(B2PLYPD3) =    -0.19185992555031D+03

 The electronic state is 1-A.
 Alpha  occ. eigenvalues --  -19.72810 -10.71680 -10.65569 -10.63983  -1.19432
 Alpha  occ. eigenvalues --   -0.93009  -0.75333  -0.67428  -0.56847  -0.56105
 Alpha  occ. eigenvalues --   -0.50704  -0.47429  -0.46664  -0.34668  -0.33738
 Alpha virt. eigenvalues --   -0.01689   0.05722   0.07369   0.08043   0.09702
 Alpha virt. eigenvalues --    0.12522   0.13930   0.15360   0.17776   0.19518
 Alpha virt. eigenvalues --    0.19963   0.21653   0.25341   0.26479   0.28749

 Mulliken charges:
               1
     1  C    0.157953
     2  O   -0.348795
     3  C   -0.048008
     4  C   -0.126917
     5  H    0.111012
     6  H    0.083846
     7  H    0.101576
     8  H    0.069333
 Sum of Mulliken charges =   0.00000

 Dipole moment (field-independent basis, Debye):
    X=              3.4949    Y=              0.7104    Z=              0.0590  Tot=              3.5668
 Quadrupole moment (field-independent basis, Debye-Ang):
   XX=            -27.5100   YY=            -21.6849   ZZ=            -25.1953
   XY=             -0.8924   XZ=              0.1693   YZ=             -0.0801

 Normal termination of Gaussian 09 at Wed Aug 26 18:45:30 2020.
