 Gaussian 09, Revision D.01,
 Gaussian 09:  ES64L-G09RevD.01 24-Apr-2013

 --------------------
 #p B2PLYPD3/Def2QZVP
 --------------------

 --------
 acrolein
 --------
 Symbolic Z-matrix:
 Charge =  0 Multiplicity = 1

                         Standard orientation:
 ---------------------------------------------------------------------
 Center     Atomic      Atomic             Coordinates (Angstroms)
 Number     Number       Type             X           Y           Z
 ---------------------------------------------------------------------
      1          6           0        0.692047    0.361364   -0.014125
      2          8           0        1.782341   -0.134929    0.014475
      3          6           0       -0.569555   -0.444732   -0.044266
      4          6           0       -1.752735    0.135464    0.012243
      5          1           0       -0.493826   -1.491376    0.067528
      6          1           0       -1.808358    1.185268   -0.009870
      7          1           0       -2.657319   -0.387868    0.065183
      8          1           0        0.482230    1.460836    0.038247
 ---------------------------------------------------------------------

 SCF Done:  E(RB2PLYPD3) =  -191.613878125     A.U. after   12 cycles
 E2(B2PLYPD3) =    -0.2460787414D+00 E(B2PLYPD3) =    -0.19185995686612D+03

 The electronic state is 1-A.
 Alpha  occ. eigenvalues --  -19.73203 -10.72020 -10.64149 -10.63694  -1.20510
 Alpha  occ. eigenvalues --   -0.93101  -0.75283  -0.67321  -0.57025  -0.56544
 Alpha  occ. eigenvalues --   -0.51337  -0.47405  -0.46853  -0.34857  -0.33865
 Alpha virt. eigenvalues --   -0.01226   0.05936   0.07367   0.08062   0.09813
 Alpha virt. eigenvalues --    0.12757   0.14023   0.15324   0.17745   0.19824
 Alpha virt. eigenvalues --    0.20042   0.21749   0.25300   0.26706   0.28655

 Mulliken charges:
               1
     1  C    0.153950
     2  O   -0.334841
     3  C   -0.041345
     4  C   -0.129882
     5  H    0.103689
     6  H    0.076177
     7  H    0.100532
     8  H    0.071720
 Sum of Mulliken charges =   0.00000

 Dipole moment (field-independent basis, Debye):
    X=             -3.3034    Y=              0.7990    Z=              0.0793  Tot=              3.3996
 Quadrupole moment (field-independent basis, Debye-Ang):
   XX=            -27.2352   YY=            -21.8842   ZZ=            -25.0710
   XY=              1.0213   XZ=             -0.2711   YZ=             -0.1537

 Normal termination of Gaussian 09 at Wed Aug 26 09:03:56 2020.
