 Gaussian 09, Revision D.01,
 Gaussian 09:  ES64L-G09RevD.01 24-Apr-2013

 --------------------
 #p B2PLYPD3/Def2QZVP
 --------------------

 --------
 acrolein
 --------
 Symbolic Z-matrix:
 Charge =  0 Multiplicity = 1

                         Standard orientation:
 ---------------------------------------------------------------------
 Center     Atomic      Atomic             Coordinates (Angstroms)
 Number     Number       Type             X           Y           Z
 ---------------------------------------------------------------------
      1          6           0        0.657930   -0.355900   -0.020134
      2          8           0        1.795386    0.092449    0.038525
      3          6           0       -0.574706    0.482277   -0.086530
      4          6           0       -1.761499   -0.164702    0.015576
      5          1           0       -0.387338    1.657451    0.082213
      6          1           0       -1.878803   -1.331505    0.077720
      7          1           0       -2.575898    0.448677    0.151303
      8          1           0        0.548601   -1.284262   -0.072905
 ---------------------------------------------------------------------

 SCF Done:  E(RB2PLYPD3) =  -191.572839065     A.U. after   13 cycles
 E2(B2PLYPD3) =    -0.2485790337D+00 E(B2PLYPD3) =    -0.19182141809876D+03

 The electronic state is 1-A.
 Alpha  occ. eigenvalues --  -19.72301 -10.69837 -10.66282 -10.66010  -1.18410
 Alpha  occ. eigenvalues --   -0.92338  -0.76530  -0.68019  -0.56048  -0.55891
 Alpha  occ. eigenvalues --   -0.49972  -0.46230  -0.45792  -0.34294  -0.33771
 Alpha virt. eigenvalues --   -0.01898   0.05406   0.06644   0.07571   0.09495
 Alpha virt. eigenvalues --    0.12435   0.13646   0.15317   0.17359   0.19008
 Alpha virt. eigenvalues --    0.19972   0.21912   0.24377   0.27086   0.28807

 Mulliken charges:
               1
     1  C    0.170224
     2  O   -0.365117
     3  C   -0.059895
     4  C   -0.128335
     5  H    0.101192
     6  H    0.089329
     7  H    0.105353
     8  H    0.087250
 Sum of Mulliken charges =   0.00000

 Dipole moment (field-independent basis, Debye):
    X=             -3.5535    Y=             -0.8634    Z=              0.1340  Tot=              3.6594
 Quadrupole moment (field-independent basis, Debye-Ang):
   XX=            -28.1804   YY=            -21.1197   ZZ=            -25.3285
   XY=             -0.6751   XZ=             -0.7707   YZ=              0.2046

 Normal termination of Gaussian 09 at Wed Aug 26 10:35:20 2020.
