 Gaussian 09, Revision D.01,
 Gaussian 09:  ES64L-G09RevD.01 24-Apr-2013

 --------------------
 #p B2PLYPD3/Def2QZVP
 --------------------

 --------
 acrolein
 --------
 Symbolic Z-matrix:
 Charge =  0 Multiplicity = 1

                         Standard orientation:
 ---------------------------------------------------------------------
 Center     Atomic      Atomic             Coordinates (Angstroms)
 Number     Number       Type             X           Y           Z
 ---------------------------------------------------------------------
      1          6           0       -0.664965    0.349970   -0.017954
      2          8           0       -1.796028   -0.110337    0.022886
      3          6           0        0.577352   -0.469561   -0.030304
      4          6           0        1.749169    0.145064    0.008630
      5          1           0        0.433763   -1.550813   -0.003593
      6          1           0        1.855273    1.261822    0.043104
      7          1           0        2.617019   -0.395781    0.064301
      8          1           0       -0.507165    1.414631   -0.049130
 ---------------------------------------------------------------------

 SCF Done:  E(RB2PLYPD3) =  -191.612336918     A.U. after   12 cycles
 E2(B2PLYPD3) =    -0.2472764175D+00 E(B2PLYPD3) =    -0.19185961333529D+03

 The electronic state is 1-A.
 Alpha  occ. eigenvalues --  -19.72766 -10.71467 -10.65103 -10.64584  -1.18755
 Alpha  occ. eigenvalues --   -0.93144  -0.75649  -0.67188  -0.56893  -0.56134
 Alpha  occ. eigenvalues --   -0.50690  -0.46900  -0.46271  -0.34846  -0.33797
 Alpha virt. eigenvalues --   -0.01588   0.05723   0.07233   0.07899   0.09680
 Alpha virt. eigenvalues --    0.12623   0.14087   0.15323   0.17376   0.19568
 Alpha virt. eigenvalues --    0.20014   0.21911   0.25326   0.26637   0.28608

 Mulliken charges:
               1
     1  C    0.159074
     2  O   -0.356394
     3  C   -0.046690
     4  C   -0.126567
     5  H    0.106412
     6  H    0.082626
     7  H    0.102685
     8  H    0.078854
 Sum of Mulliken charges =   0.00000

 Dipole moment (field-independent basis, Debye):
    X=              3.5316    Y=              0.7620    Z=              0.0004  Tot=              3.6129
 Quadrupole moment (field-independent basis, Debye-Ang):
   XX=            -27.6975   YY=            -21.5402   ZZ=            -25.1916
   XY=             -0.7833   XZ=              0.3485   YZ=             -0.0119

 Normal termination of Gaussian 09 at Wed Aug 26 15:18:31 2020.
