 Gaussian 09, Revision D.01,
 Gaussian 09:  ES64L-G09RevD.01 24-Apr-2013

 --------------------
 #p B2PLYPD3/Def2QZVP
 --------------------

 --------
 acrolein
 --------
 Symbolic Z-matrix:
 Charge =  0 Multiplicity = 1

                         Standard orientation:
 ---------------------------------------------------------------------
 Center     Atomic      Atomic             Coordinates (Angstroms)
 Number     Number       Type             X           Y           Z
 ---------------------------------------------------------------------
      1          6           0        0.660396    0.354884    0.074929
      2          8           0        1.784118   -0.137980   -0.072611
      3          6           0       -0.573714   -0.448528    0.008330
      4          6           0       -1.737180    0.167566   -0.080714
      5          1           0       -0.548082   -1.588720    0.295124
      6          1           0       -1.701674    1.169887   -0.039346
      7          1           0       -2.643395   -0.417235    0.044353
      8          1           0        0.523195    1.496372    0.265492
 ---------------------------------------------------------------------

 SCF Done:  E(RB2PLYPD3) =  -191.594569748     A.U. after   13 cycles
 E2(B2PLYPD3) =    -0.2493188201D+00 E(B2PLYPD3) =    -0.19184388856806D+03

 The electronic state is 1-A.
 Alpha  occ. eigenvalues --  -19.73158 -10.72829 -10.65183 -10.64227  -1.18248
 Alpha  occ. eigenvalues --   -0.93737  -0.75200  -0.65956  -0.57260  -0.55592
 Alpha  occ. eigenvalues --   -0.50133  -0.47346  -0.44963  -0.34830  -0.34014
 Alpha virt. eigenvalues --   -0.01915   0.05642   0.05938   0.07836   0.09748
 Alpha virt. eigenvalues --    0.12718   0.13929   0.14790   0.17166   0.19488
 Alpha virt. eigenvalues --    0.20483   0.21721   0.24566   0.26714   0.28833

 Mulliken charges:
               1
     1  C    0.143768
     2  O   -0.347556
     3  C   -0.015157
     4  C   -0.124396
     5  H    0.089943
     6  H    0.081201
     7  H    0.101010
     8  H    0.071187
 Sum of Mulliken charges =   0.00000

 Dipole moment (field-independent basis, Debye):
    X=             -3.4618    Y=              0.8153    Z=              0.6096  Tot=              3.6084
 Quadrupole moment (field-independent basis, Debye-Ang):
   XX=            -27.8952   YY=            -21.7251   ZZ=            -25.2061
   XY=              1.3080   XZ=              0.0766   YZ=             -0.3643

 Normal termination of Gaussian 09 at Wed Aug 26 13:03:45 2020.
