 Gaussian 09, Revision D.01,
 Gaussian 09:  ES64L-G09RevD.01 24-Apr-2013

 --------------------
 #p B2PLYPD3/Def2QZVP
 --------------------

 --------
 acrolein
 --------
 Symbolic Z-matrix:
 Charge =  0 Multiplicity = 1

                         Standard orientation:
 ---------------------------------------------------------------------
 Center     Atomic      Atomic             Coordinates (Angstroms)
 Number     Number       Type             X           Y           Z
 ---------------------------------------------------------------------
      1          6           0       -0.664356    0.355074   -0.014783
      2          8           0       -1.788275   -0.132022    0.033560
      3          6           0        0.569480   -0.451854   -0.069864
      4          6           0        1.736022    0.134743   -0.000928
      5          1           0        0.480034   -1.453825    0.063790
      6          1           0        1.723606    1.251496    0.126249
      7          1           0        2.698209   -0.425377    0.141895
      8          1           0       -0.442526    1.456104   -0.086960
 ---------------------------------------------------------------------

 SCF Done:  E(RB2PLYPD3) =  -191.605007797     A.U. after   13 cycles
 E2(B2PLYPD3) =    -0.2481656760D+00 E(B2PLYPD3) =    -0.19185317347314D+03

 The electronic state is 1-A.
 Alpha  occ. eigenvalues --  -19.73164 -10.72219 -10.65845 -10.63286  -1.18795
 Alpha  occ. eigenvalues --   -0.93880  -0.74822  -0.67599  -0.56529  -0.55675
 Alpha  occ. eigenvalues --   -0.50718  -0.46895  -0.46138  -0.35121  -0.34029
 Alpha virt. eigenvalues --   -0.01728   0.05568   0.07179   0.07720   0.09800
 Alpha virt. eigenvalues --    0.12577   0.13488   0.15205   0.18005   0.19239
 Alpha virt. eigenvalues --    0.19939   0.21291   0.25163   0.26430   0.28799

 Mulliken charges:
               1
     1  C    0.156761
     2  O   -0.353201
     3  C   -0.037670
     4  C   -0.110919
     5  H    0.107498
     6  H    0.069921
     7  H    0.098082
     8  H    0.069527
 Sum of Mulliken charges =   0.00000

 Dipole moment (field-independent basis, Debye):
    X=              3.4817    Y=              0.7277    Z=              0.1681  Tot=              3.5609
 Quadrupole moment (field-independent basis, Debye-Ang):
   XX=            -27.6976   YY=            -21.9085   ZZ=            -25.1303
   XY=             -1.1680   XZ=              0.7575   YZ=             -0.0856

 Normal termination of Gaussian 09 at Wed Aug 26 13:39:29 2020.
