 Gaussian 09, Revision D.01,
 Gaussian 09:  ES64L-G09RevD.01 24-Apr-2013

 --------------------
 #p B2PLYPD3/Def2QZVP
 --------------------

 --------
 acrolein
 --------
 Symbolic Z-matrix:
 Charge =  0 Multiplicity = 1

                         Standard orientation:
 ---------------------------------------------------------------------
 Center     Atomic      Atomic             Coordinates (Angstroms)
 Number     Number       Type             X           Y           Z
 ---------------------------------------------------------------------
      1          6           0        0.673195    0.362963    0.020655
      2          8           0        1.781811   -0.131595   -0.016691
      3          6           0       -0.566602   -0.438642    0.021739
      4          6           0       -1.749402    0.135361   -0.014035
      5          1           0       -0.424725   -1.527873    0.002205
      6          1           0       -1.814062    1.189146    0.005490
      7          1           0       -2.671292   -0.413996   -0.036023
      8          1           0        0.512440    1.447388   -0.008300
 ---------------------------------------------------------------------

 SCF Done:  E(RB2PLYPD3) =  -191.616266170     A.U. after   12 cycles
 E2(B2PLYPD3) =    -0.2467793648D+00 E(B2PLYPD3) =    -0.19186304553473D+03

 The electronic state is 1-A.
 Alpha  occ. eigenvalues --  -19.72920 -10.71642 -10.64698 -10.64199  -1.19365
 Alpha  occ. eigenvalues --   -0.93323  -0.75550  -0.67111  -0.56728  -0.56604
 Alpha  occ. eigenvalues --   -0.50840  -0.46710  -0.46602  -0.34919  -0.33936
 Alpha virt. eigenvalues --   -0.01530   0.05820   0.07202   0.08136   0.09818
 Alpha virt. eigenvalues --    0.12625   0.14050   0.15359   0.17341   0.19882
 Alpha virt. eigenvalues --    0.20027   0.21774   0.25608   0.26556   0.28813

 Mulliken charges:
               1
     1  C    0.156008
     2  O   -0.350423
     3  C   -0.036703
     4  C   -0.131892
     5  H    0.103404
     6  H    0.081719
     7  H    0.102890
     8  H    0.074998
 Sum of Mulliken charges =   0.00000

 Dipole moment (field-independent basis, Debye):
    X=             -3.4329    Y=              0.8292    Z=              0.0326  Tot=              3.5317
 Quadrupole moment (field-independent basis, Debye-Ang):
   XX=            -27.4215   YY=            -21.7471   ZZ=            -25.1347
   XY=              0.9809   XZ=              0.1571   YZ=              0.0331

 Normal termination of Gaussian 09 at Wed Aug 26 20:15:22 2020.
