 Gaussian 09, Revision D.01,
 Gaussian 09:  ES64L-G09RevD.01 24-Apr-2013

 --------------------
 #p B2PLYPD3/Def2QZVP
 --------------------

 --------
 acrolein
 --------
 Symbolic Z-matrix:
 Charge =  0 Multiplicity = 1

                         Standard orientation:
 ---------------------------------------------------------------------
 Center     Atomic      Atomic             Coordinates (Angstroms)
 Number     Number       Type             X           Y           Z
 ---------------------------------------------------------------------
      1          6           0        0.664286   -0.315615   -0.019345
      2          8           0        1.825634    0.071949    0.044750
      3          6           0       -0.583683    0.487335   -0.086223
      4          6           0       -1.761336   -0.160794    0.058467
      5          1           0       -0.412371    1.669322   -0.047507
      6          1           0       -1.949177   -1.299773   -0.106306
      7          1           0       -2.633648    0.370295    0.168770
      8          1           0        0.474532   -1.380993   -0.090347
 ---------------------------------------------------------------------

 SCF Done:  E(RB2PLYPD3) =  -191.594710600     A.U. after   14 cycles
 E2(B2PLYPD3) =    -0.2495474752D+00 E(B2PLYPD3) =    -0.19184425807476D+03

 The electronic state is 1-A.
 Alpha  occ. eigenvalues --  -19.72802 -10.71617 -10.66567 -10.66434  -1.18416
 Alpha  occ. eigenvalues --   -0.92591  -0.75915  -0.65827  -0.56714  -0.55026
 Alpha  occ. eigenvalues --   -0.50350  -0.46467  -0.45647  -0.34612  -0.33602
 Alpha virt. eigenvalues --   -0.02333   0.05441   0.06568   0.07703   0.09462
 Alpha virt. eigenvalues --    0.12457   0.13998   0.15283   0.16754   0.19661
 Alpha virt. eigenvalues --    0.19977   0.21778   0.23927   0.26631   0.27715

 Mulliken charges:
               1
     1  C    0.168027
     2  O   -0.356335
     3  C   -0.046093
     4  C   -0.119403
     5  H    0.096385
     6  H    0.087321
     7  H    0.103909
     8  H    0.066189
 Sum of Mulliken charges =   0.00000

 Dipole moment (field-independent basis, Debye):
    X=             -3.7489    Y=             -0.6328    Z=             -0.1371  Tot=              3.8044
 Quadrupole moment (field-independent basis, Debye-Ang):
   XX=            -27.6252   YY=            -21.6968   ZZ=            -25.4198
   XY=             -0.2681   XZ=             -0.4547   YZ=              0.2360

 Normal termination of Gaussian 09 at Wed Aug 26 12:38:01 2020.
