 Gaussian 09, Revision D.01,
 Gaussian 09:  ES64L-G09RevD.01 24-Apr-2013

 --------------------
 #p B2PLYPD3/Def2QZVP
 --------------------

 --------
 acrolein
 --------
 Symbolic Z-matrix:
 Charge =  0 Multiplicity = 1

                         Standard orientation:
 ---------------------------------------------------------------------
 Center     Atomic      Atomic             Coordinates (Angstroms)
 Number     Number       Type             X           Y           Z
 ---------------------------------------------------------------------
      1          6           0       -0.675480    0.357252    0.051668
      2          8           0       -1.744250   -0.147999   -0.051751
      3          6           0        0.523870   -0.398530    0.018681
      4          6           0        1.754995    0.109736   -0.044191
      5          1           0        0.359004   -1.446234    0.188716
      6          1           0        1.828779    1.227686   -0.005465
      7          1           0        2.739968   -0.496966   -0.036000
      8          1           0       -0.594061    1.488762    0.109814
 ---------------------------------------------------------------------

 SCF Done:  E(RB2PLYPD3) =  -191.606045384     A.U. after   13 cycles
 E2(B2PLYPD3) =    -0.2467872717D+00 E(B2PLYPD3) =    -0.19185283265619D+03

 The electronic state is 1-A.
 Alpha  occ. eigenvalues --  -19.72614 -10.71013 -10.66654 -10.63744  -1.21159
 Alpha  occ. eigenvalues --   -0.93061  -0.75409  -0.66406  -0.56657  -0.56079
 Alpha  occ. eigenvalues --   -0.50762  -0.48028  -0.45389  -0.34563  -0.33833
 Alpha virt. eigenvalues --   -0.01826   0.05565   0.07001   0.08836   0.09833
 Alpha virt. eigenvalues --    0.11984   0.13742   0.15260   0.18000   0.19389
 Alpha virt. eigenvalues --    0.19790   0.21092   0.25719   0.26572   0.29336

 Mulliken charges:
               1
     1  C    0.155679
     2  O   -0.335024
     3  C   -0.032556
     4  C   -0.127838
     5  H    0.102140
     6  H    0.077841
     7  H    0.105298
     8  H    0.054461
 Sum of Mulliken charges =   0.00000

 Dipole moment (field-independent basis, Debye):
    X=              3.3218    Y=              0.7522    Z=              0.3313  Tot=              3.4220
 Quadrupole moment (field-independent basis, Debye-Ang):
   XX=            -26.8612   YY=            -22.1273   ZZ=            -25.1834
   XY=             -1.2415   XZ=             -0.2465   YZ=             -0.1965

 Normal termination of Gaussian 09 at Wed Aug 26 14:28:32 2020.
