 Gaussian 09, Revision D.01,
 Gaussian 09:  ES64L-G09RevD.01 24-Apr-2013

 --------------------
 #p B2PLYPD3/Def2QZVP
 --------------------

 --------
 acrolein
 --------
 Symbolic Z-matrix:
 Charge =  0 Multiplicity = 1

                         Standard orientation:
 ---------------------------------------------------------------------
 Center     Atomic      Atomic             Coordinates (Angstroms)
 Number     Number       Type             X           Y           Z
 ---------------------------------------------------------------------
      1          6           0        0.685958   -0.344158    0.049404
      2          8           0        1.790460    0.095704   -0.066018
      3          6           0       -0.564343    0.461440    0.059983
      4          6           0       -1.781506   -0.151928   -0.076330
      5          1           0       -0.341028    1.548323    0.112230
      6          1           0       -1.911020   -1.219785   -0.031976
      7          1           0       -2.715214    0.387119    0.013196
      8          1           0        0.602926   -1.273409    0.236351
 ---------------------------------------------------------------------

 SCF Done:  E(RB2PLYPD3) =  -191.592056688     A.U. after   13 cycles
 E2(B2PLYPD3) =    -0.2464584174D+00 E(B2PLYPD3) =    -0.19183851510587D+03

 The electronic state is 1-A.
 Alpha  occ. eigenvalues --  -19.72452 -10.69570 -10.65946 -10.65381  -1.20400
 Alpha  occ. eigenvalues --   -0.91795  -0.76348  -0.69088  -0.57144  -0.55800
 Alpha  occ. eigenvalues --   -0.51260  -0.47117  -0.46402  -0.34096  -0.33758
 Alpha virt. eigenvalues --   -0.01958   0.05737   0.07383   0.08339   0.09552
 Alpha virt. eigenvalues --    0.12648   0.14182   0.15516   0.17690   0.19010
 Alpha virt. eigenvalues --    0.19955   0.21728   0.24704   0.27336   0.28458

 Mulliken charges:
               1
     1  C    0.171263
     2  O   -0.349546
     3  C   -0.060245
     4  C   -0.128031
     5  H    0.105438
     6  H    0.082817
     7  H    0.096718
     8  H    0.081586
 Sum of Mulliken charges =   0.00000

 Dipole moment (field-independent basis, Debye):
    X=             -3.3518    Y=             -0.8445    Z=              0.3846  Tot=              3.4779
 Quadrupole moment (field-independent basis, Debye-Ang):
   XX=            -27.3208   YY=            -21.6728   ZZ=            -25.1815
   XY=             -0.5610   XZ=              0.3470   YZ=              0.1065

 Normal termination of Gaussian 09 at Wed Aug 26 12:18:39 2020.
