 Gaussian 09, Revision D.01,
 Gaussian 09:  ES64L-G09RevD.01 24-Apr-2013

 --------------------
 #p B2PLYPD3/Def2QZVP
 --------------------

 --------
 acrolein
 --------
 Symbolic Z-matrix:
 Charge =  0 Multiplicity = 1

                         Standard orientation:
 ---------------------------------------------------------------------
 Center     Atomic      Atomic             Coordinates (Angstroms)
 Number     Number       Type             X           Y           Z
 ---------------------------------------------------------------------
      1          6           0        0.673742    0.343569   -0.001736
      2          8           0        1.785883   -0.118057    0.001116
      3          6           0       -0.563803   -0.455888   -0.016981
      4          6           0       -1.756324    0.147314    0.006561
      5          1           0       -0.455179   -1.504935    0.033325
      6          1           0       -1.814828    1.241281   -0.035630
      7          1           0       -2.683399   -0.412660    0.025663
      8          1           0        0.544649    1.410798    0.040653
 ---------------------------------------------------------------------

 SCF Done:  E(RB2PLYPD3) =  -191.616425483     A.U. after   12 cycles
 E2(B2PLYPD3) =    -0.2465045421D+00 E(B2PLYPD3) =    -0.19186293002521D+03

 The electronic state is 1-A.
 Alpha  occ. eigenvalues --  -19.72638 -10.71105 -10.65622 -10.64148  -1.19832
 Alpha  occ. eigenvalues --   -0.92909  -0.75309  -0.67610  -0.56732  -0.56409
 Alpha  occ. eigenvalues --   -0.50683  -0.47181  -0.46853  -0.34628  -0.33779
 Alpha virt. eigenvalues --   -0.01614   0.05763   0.07336   0.08201   0.09726
 Alpha virt. eigenvalues --    0.12565   0.14038   0.15354   0.17741   0.19660
 Alpha virt. eigenvalues --    0.20006   0.21489   0.25326   0.26560   0.28955

 Mulliken charges:
               1
     1  C    0.153375
     2  O   -0.347004
     3  C   -0.042835
     4  C   -0.131885
     5  H    0.107901
     6  H    0.084116
     7  H    0.102416
     8  H    0.073916
 Sum of Mulliken charges =   0.00000

 Dipole moment (field-independent basis, Debye):
    X=             -3.4523    Y=              0.7569    Z=              0.0342  Tot=              3.5344
 Quadrupole moment (field-independent basis, Debye-Ang):
   XX=            -27.4309   YY=            -21.7087   ZZ=            -25.1709
   XY=              1.0016   XZ=             -0.0323   YZ=             -0.1022

 Normal termination of Gaussian 09 at Wed Aug 26 20:24:23 2020.
