 Gaussian 09, Revision D.01,
 Gaussian 09:  ES64L-G09RevD.01 24-Apr-2013

 --------------------
 #p B2PLYPD3/Def2QZVP
 --------------------

 --------
 acrolein
 --------
 Symbolic Z-matrix:
 Charge =  0 Multiplicity = 1

                         Standard orientation:
 ---------------------------------------------------------------------
 Center     Atomic      Atomic             Coordinates (Angstroms)
 Number     Number       Type             X           Y           Z
 ---------------------------------------------------------------------
      1          6           0       -0.675550    0.350147    0.015575
      2          8           0       -1.774377   -0.132773   -0.009523
      3          6           0        0.533312   -0.420535    0.005274
      4          6           0        1.762607    0.133088   -0.026895
      5          1           0        0.443995   -1.531955   -0.013742
      6          1           0        1.831357    1.148471   -0.055704
      7          1           0        2.710690   -0.434710    0.123137
      8          1           0       -0.513246    1.504173    0.058769
 ---------------------------------------------------------------------

 SCF Done:  E(RB2PLYPD3) =  -191.607598487     A.U. after   13 cycles
 E2(B2PLYPD3) =    -0.2476209941D+00 E(B2PLYPD3) =    -0.19185521948141D+03

 The electronic state is 1-A.
 Alpha  occ. eigenvalues --  -19.72898 -10.71834 -10.65492 -10.64641  -1.20292
 Alpha  occ. eigenvalues --   -0.93068  -0.76022  -0.66235  -0.56920  -0.56251
 Alpha  occ. eigenvalues --   -0.50486  -0.47385  -0.46559  -0.34466  -0.33847
 Alpha virt. eigenvalues --   -0.02281   0.05755   0.06882   0.08594   0.09843
 Alpha virt. eigenvalues --    0.12465   0.13971   0.15384   0.17220   0.19586
 Alpha virt. eigenvalues --    0.20133   0.21783   0.25553   0.26177   0.28834

 Mulliken charges:
               1
     1  C    0.151367
     2  O   -0.338638
     3  C   -0.025697
     4  C   -0.129143
     5  H    0.100089
     6  H    0.085391
     7  H    0.103475
     8  H    0.053155
 Sum of Mulliken charges =   0.00000

 Dipole moment (field-independent basis, Debye):
    X=              3.4894    Y=              0.7250    Z=              0.0993  Tot=              3.5653
 Quadrupole moment (field-independent basis, Debye-Ang):
   XX=            -27.0269   YY=            -22.0435   ZZ=            -25.2218
   XY=             -0.9827   XZ=              0.1741   YZ=             -0.0871

 Normal termination of Gaussian 09 at Wed Aug 26 08:53:54 2020.
