 Gaussian 09, Revision D.01,
 Gaussian 09:  ES64L-G09RevD.01 24-Apr-2013

 --------------------
 #p B2PLYPD3/Def2QZVP
 --------------------

 --------
 acrolein
 --------
 Symbolic Z-matrix:
 Charge =  0 Multiplicity = 1

                         Standard orientation:
 ---------------------------------------------------------------------
 Center     Atomic      Atomic             Coordinates (Angstroms)
 Number     Number       Type             X           Y           Z
 ---------------------------------------------------------------------
      1          6           0       -0.706508    0.379115    0.054714
      2          8           0       -1.751127   -0.163702   -0.055973
      3          6           0        0.515715   -0.442009    0.048618
      4          6           0        1.768376    0.134157   -0.061431
      5          1           0        0.509524   -1.486886    0.033083
      6          1           0        1.822133    1.188441   -0.210823
      7          1           0        2.785960   -0.438131    0.158103
      8          1           0       -0.574092    1.618610    0.216011
 ---------------------------------------------------------------------

 SCF Done:  E(RB2PLYPD3) =  -191.587043523     A.U. after   13 cycles
 E2(B2PLYPD3) =    -0.2490513945D+00 E(B2PLYPD3) =    -0.19183609491707D+03

 The electronic state is 1-A.
 Alpha  occ. eigenvalues --  -19.73259 -10.72963 -10.66578 -10.64575  -1.21842
 Alpha  occ. eigenvalues --   -0.91404  -0.73903  -0.66018  -0.56379  -0.55548
 Alpha  occ. eigenvalues --   -0.49812  -0.47750  -0.46824  -0.34000  -0.33197
 Alpha virt. eigenvalues --   -0.02059   0.05566   0.06565   0.07956   0.09774
 Alpha virt. eigenvalues --    0.11898   0.13662   0.15560   0.17202   0.19286
 Alpha virt. eigenvalues --    0.19816   0.21231   0.25007   0.25805   0.28874

 Mulliken charges:
               1
     1  C    0.159281
     2  O   -0.315281
     3  C   -0.058297
     4  C   -0.131447
     5  H    0.114793
     6  H    0.081134
     7  H    0.096470
     8  H    0.053346
 Sum of Mulliken charges =   0.00000

 Dipole moment (field-independent basis, Debye):
    X=              3.1221    Y=              0.7440    Z=              0.2155  Tot=              3.2168
 Quadrupole moment (field-independent basis, Debye-Ang):
   XX=            -26.9689   YY=            -22.0252   ZZ=            -25.4947
   XY=             -1.2706   XZ=             -0.1509   YZ=             -0.2779

 Normal termination of Gaussian 09 at Wed Aug 26 12:50:36 2020.
