 Gaussian 09, Revision D.01,
 Gaussian 09:  ES64L-G09RevD.01 24-Apr-2013

 --------------------
 #p B2PLYPD3/Def2QZVP
 --------------------

 --------
 acrolein
 --------
 Symbolic Z-matrix:
 Charge =  0 Multiplicity = 1

                         Standard orientation:
 ---------------------------------------------------------------------
 Center     Atomic      Atomic             Coordinates (Angstroms)
 Number     Number       Type             X           Y           Z
 ---------------------------------------------------------------------
      1          6           0        0.663165    0.347127    0.016059
      2          8           0        1.791823   -0.120871   -0.018720
      3          6           0       -0.555116   -0.432736    0.034639
      4          6           0       -1.754616    0.136511   -0.017207
      5          1           0       -0.434364   -1.532279   -0.023350
      6          1           0       -1.826311    1.178379   -0.024730
      7          1           0       -2.673621   -0.427327   -0.026909
      8          1           0        0.479115    1.442784    0.023805
 ---------------------------------------------------------------------

 SCF Done:  E(RB2PLYPD3) =  -191.614383037     A.U. after   12 cycles
 E2(B2PLYPD3) =    -0.2476460139D+00 E(B2PLYPD3) =    -0.19186202905091D+03

 The electronic state is 1-A.
 Alpha  occ. eigenvalues --  -19.72870 -10.71637 -10.65206 -10.64445  -1.18834
 Alpha  occ. eigenvalues --   -0.93590  -0.76238  -0.66882  -0.56781  -0.56572
 Alpha  occ. eigenvalues --   -0.50544  -0.46802  -0.46516  -0.34810  -0.33973
 Alpha virt. eigenvalues --   -0.02149   0.05763   0.07045   0.08332   0.09799
 Alpha virt. eigenvalues --    0.12674   0.13923   0.15291   0.17329   0.19900
 Alpha virt. eigenvalues --    0.20068   0.21734   0.25492   0.26462   0.28786

 Mulliken charges:
               1
     1  C    0.153982
     2  O   -0.355485
     3  C   -0.024607
     4  C   -0.130014
     5  H    0.100055
     6  H    0.084742
     7  H    0.105080
     8  H    0.066248
 Sum of Mulliken charges =   0.00000

 Dipole moment (field-independent basis, Debye):
    X=             -3.6254    Y=              0.7615    Z=              0.0006  Tot=              3.7045
 Quadrupole moment (field-independent basis, Debye-Ang):
   XX=            -27.3617   YY=            -21.8671   ZZ=            -25.1626
   XY=              0.8849   XZ=              0.2153   YZ=              0.0507

 Normal termination of Gaussian 09 at Wed Aug 26 18:40:13 2020.
