 Gaussian 09, Revision D.01,
 Gaussian 09:  ES64L-G09RevD.01 24-Apr-2013

 --------------------
 #p B2PLYPD3/Def2QZVP
 --------------------

 --------
 acrolein
 --------
 Symbolic Z-matrix:
 Charge =  0 Multiplicity = 1

                         Standard orientation:
 ---------------------------------------------------------------------
 Center     Atomic      Atomic             Coordinates (Angstroms)
 Number     Number       Type             X           Y           Z
 ---------------------------------------------------------------------
      1          6           0        0.705342    0.388513   -0.072257
      2          8           0        1.759262   -0.163115    0.058230
      3          6           0       -0.534322   -0.405016   -0.075721
      4          6           0       -1.778005    0.142887   -0.009129
      5          1           0       -0.452657   -1.570008    0.037985
      6          1           0       -1.770772    1.080165    0.115257
      7          1           0       -2.747740   -0.462707    0.245526
      8          1           0        0.538978    1.499166    0.078035
 ---------------------------------------------------------------------

 SCF Done:  E(RB2PLYPD3) =  -191.579566684     A.U. after   12 cycles
 E2(B2PLYPD3) =    -0.2484966505D+00 E(B2PLYPD3) =    -0.19182806333474D+03

 The electronic state is 1-A.
 Alpha  occ. eigenvalues --  -19.73281 -10.72219 -10.65352 -10.64783  -1.20891
 Alpha  occ. eigenvalues --   -0.92358  -0.75507  -0.66500  -0.57273  -0.55631
 Alpha  occ. eigenvalues --   -0.50333  -0.47631  -0.45433  -0.34394  -0.33811
 Alpha virt. eigenvalues --   -0.02124   0.05653   0.06532   0.07870   0.09920
 Alpha virt. eigenvalues --    0.12420   0.14010   0.15382   0.17178   0.19049
 Alpha virt. eigenvalues --    0.20213   0.22370   0.24761   0.26405   0.28195

 Mulliken charges:
               1
     1  C    0.158652
     2  O   -0.329241
     3  C   -0.041057
     4  C   -0.137155
     5  H    0.096652
     6  H    0.086571
     7  H    0.097279
     8  H    0.068298
 Sum of Mulliken charges =   0.00000

 Dipole moment (field-independent basis, Debye):
    X=             -3.1194    Y=              0.9328    Z=              0.1778  Tot=              3.2607
 Quadrupole moment (field-independent basis, Debye-Ang):
   XX=            -27.2692   YY=            -21.9541   ZZ=            -25.2693
   XY=              1.3813   XZ=             -1.1151   YZ=             -0.0776

 Normal termination of Gaussian 09 at Wed Aug 26 11:03:05 2020.
