 Gaussian 09, Revision D.01,
 Gaussian 09:  ES64L-G09RevD.01 24-Apr-2013

 --------------------
 #p B2PLYPD3/Def2QZVP
 --------------------

 --------
 acrolein
 --------
 Symbolic Z-matrix:
 Charge =  0 Multiplicity = 1

                         Standard orientation:
 ---------------------------------------------------------------------
 Center     Atomic      Atomic             Coordinates (Angstroms)
 Number     Number       Type             X           Y           Z
 ---------------------------------------------------------------------
      1          6           0       -0.680844    0.374236   -0.008021
      2          8           0       -1.790464   -0.145151    0.037899
      3          6           0        0.562157   -0.448448   -0.065634
      4          6           0        1.758710    0.128188    0.015520
      5          1           0        0.446394   -1.470443   -0.058977
      6          1           0        1.811001    1.216920    0.022392
      7          1           0        2.710511   -0.441184    0.185698
      8          1           0       -0.484330    1.532062   -0.103498
 ---------------------------------------------------------------------

 SCF Done:  E(RB2PLYPD3) =  -191.606831580     A.U. after   13 cycles
 E2(B2PLYPD3) =    -0.2488006553D+00 E(B2PLYPD3) =    -0.19185563223501D+03

 The electronic state is 1-A.
 Alpha  occ. eigenvalues --  -19.73326 -10.72940 -10.65796 -10.64000  -1.18934
 Alpha  occ. eigenvalues --   -0.92859  -0.74589  -0.66962  -0.56234  -0.55616
 Alpha  occ. eigenvalues --   -0.50535  -0.47029  -0.46316  -0.34687  -0.33884
 Alpha virt. eigenvalues --   -0.01833   0.05601   0.07037   0.07689   0.09784
 Alpha virt. eigenvalues --    0.12267   0.13557   0.15356   0.17673   0.19549
 Alpha virt. eigenvalues --    0.19828   0.21351   0.25161   0.26243   0.28759

 Mulliken charges:
               1
     1  C    0.161315
     2  O   -0.349183
     3  C   -0.045837
     4  C   -0.124733
     5  H    0.113773
     6  H    0.078832
     7  H    0.099620
     8  H    0.066213
 Sum of Mulliken charges =   0.00000

 Dipole moment (field-independent basis, Debye):
    X=              3.4253    Y=              0.7852    Z=              0.0065  Tot=              3.5142
 Quadrupole moment (field-independent basis, Debye-Ang):
   XX=            -27.5440   YY=            -21.8248   ZZ=            -25.3122
   XY=             -1.0721   XZ=              0.6702   YZ=             -0.0830

 Normal termination of Gaussian 09 at Wed Aug 26 09:06:58 2020.
