 Gaussian 09, Revision D.01,
 Gaussian 09:  ES64L-G09RevD.01 24-Apr-2013

 --------------------
 #p B2PLYPD3/Def2QZVP
 --------------------

 --------
 acrolein
 --------
 Symbolic Z-matrix:
 Charge =  0 Multiplicity = 1

                         Standard orientation:
 ---------------------------------------------------------------------
 Center     Atomic      Atomic             Coordinates (Angstroms)
 Number     Number       Type             X           Y           Z
 ---------------------------------------------------------------------
      1          6           0        0.651180    0.328532    0.029804
      2          8           0        1.794510   -0.102050   -0.028683
      3          6           0       -0.567041   -0.455612   -0.003570
      4          6           0       -1.756273    0.144183   -0.033535
      5          1           0       -0.464765   -1.564469    0.130590
      6          1           0       -1.826703    1.274901   -0.006758
      7          1           0       -2.565322   -0.392776    0.032779
      8          1           0        0.533510    1.396128    0.116665
 ---------------------------------------------------------------------

 SCF Done:  E(RB2PLYPD3) =  -191.602447995     A.U. after   13 cycles
 E2(B2PLYPD3) =    -0.2475167410D+00 E(B2PLYPD3) =    -0.19184996473577D+03

 The electronic state is 1-A.
 Alpha  occ. eigenvalues --  -19.72537 -10.71102 -10.65055 -10.64808  -1.18591
 Alpha  occ. eigenvalues --   -0.93648  -0.76762  -0.66722  -0.57562  -0.56300
 Alpha  occ. eigenvalues --   -0.50528  -0.47200  -0.45939  -0.34789  -0.33794
 Alpha virt. eigenvalues --   -0.02117   0.05788   0.06851   0.08327   0.09677
 Alpha virt. eigenvalues --    0.12605   0.14242   0.15186   0.17314   0.19503
 Alpha virt. eigenvalues --    0.20052   0.22254   0.25103   0.26606   0.28988

 Mulliken charges:
               1
     1  C    0.152149
     2  O   -0.356163
     3  C   -0.030736
     4  C   -0.126844
     5  H    0.096528
     6  H    0.084226
     7  H    0.109862
     8  H    0.070978
 Sum of Mulliken charges =   0.00000

 Dipole moment (field-independent basis, Debye):
    X=             -3.6493    Y=              0.7002    Z=              0.2823  Tot=              3.7266
 Quadrupole moment (field-independent basis, Debye-Ang):
   XX=            -27.6743   YY=            -21.6219   ZZ=            -25.1283
   XY=              0.9026   XZ=             -0.0052   YZ=             -0.1751

 Normal termination of Gaussian 09 at Wed Aug 26 09:11:44 2020.
