 Gaussian 09, Revision D.01,
 Gaussian 09:  ES64L-G09RevD.01 24-Apr-2013

 --------------------
 #p B2PLYPD3/Def2QZVP
 --------------------

 --------
 acrolein
 --------
 Symbolic Z-matrix:
 Charge =  0 Multiplicity = 1

                         Standard orientation:
 ---------------------------------------------------------------------
 Center     Atomic      Atomic             Coordinates (Angstroms)
 Number     Number       Type             X           Y           Z
 ---------------------------------------------------------------------
      1          6           0       -0.640823    0.309699   -0.068832
      2          8           0       -1.813475   -0.092699    0.054792
      3          6           0        0.593349   -0.494215   -0.058003
      4          6           0        1.741582    0.161820    0.016871
      5          1           0        0.527419   -1.540133   -0.000578
      6          1           0        1.867170    1.341491    0.061848
      7          1           0        2.441427   -0.425159    0.178655
      8          1           0       -0.492860    1.501570   -0.018476
 ---------------------------------------------------------------------

 SCF Done:  E(RB2PLYPD3) =  -191.573065303     A.U. after   13 cycles
 E2(B2PLYPD3) =    -0.2498456675D+00 E(B2PLYPD3) =    -0.19182291097052D+03

 The electronic state is 1-A.
 Alpha  occ. eigenvalues --  -19.72834 -10.72741 -10.64986 -10.64698  -1.17287
 Alpha  occ. eigenvalues --   -0.94490  -0.76477  -0.66017  -0.57661  -0.54808
 Alpha  occ. eigenvalues --   -0.49449  -0.48245  -0.45660  -0.35082  -0.33400
 Alpha virt. eigenvalues --   -0.02124   0.05524   0.06737   0.07703   0.09493
 Alpha virt. eigenvalues --    0.12365   0.13842   0.15119   0.17159   0.19292
 Alpha virt. eigenvalues --    0.19953   0.22348   0.24437   0.26765   0.28280

 Mulliken charges:
               1
     1  C    0.162422
     2  O   -0.361701
     3  C   -0.040015
     4  C   -0.122736
     5  H    0.103208
     6  H    0.100380
     7  H    0.109931
     8  H    0.048512
 Sum of Mulliken charges =   0.00000

 Dipole moment (field-independent basis, Debye):
    X=              3.7705    Y=              0.5175    Z=              0.0094  Tot=              3.8059
 Quadrupole moment (field-independent basis, Debye-Ang):
   XX=            -28.2136   YY=            -21.3730   ZZ=            -25.2353
   XY=             -0.6830   XZ=              0.7761   YZ=             -0.0300

 Normal termination of Gaussian 09 at Wed Aug 26 11:45:45 2020.
