 Gaussian 09, Revision D.01,
 Gaussian 09:  ES64L-G09RevD.01 24-Apr-2013

 --------------------
 #p B2PLYPD3/Def2QZVP
 --------------------

 --------
 acrolein
 --------
 Symbolic Z-matrix:
 Charge =  0 Multiplicity = 1

                         Standard orientation:
 ---------------------------------------------------------------------
 Center     Atomic      Atomic             Coordinates (Angstroms)
 Number     Number       Type             X           Y           Z
 ---------------------------------------------------------------------
      1          6           0       -0.675519    0.337530    0.020259
      2          8           0       -1.792786   -0.107828   -0.025051
      3          6           0        0.559824   -0.458152    0.023364
      4          6           0        1.757896    0.139579   -0.010145
      5          1           0        0.455236   -1.543065    0.017079
      6          1           0        1.906041    1.263595   -0.077147
      7          1           0        2.624651   -0.418650   -0.025551
      8          1           0       -0.496845    1.447005    0.085158
 ---------------------------------------------------------------------

 SCF Done:  E(RB2PLYPD3) =  -191.612997597     A.U. after   12 cycles
 E2(B2PLYPD3) =    -0.2471466568D+00 E(B2PLYPD3) =    -0.19186014425348D+03

 The electronic state is 1-A.
 Alpha  occ. eigenvalues --  -19.72850 -10.71625 -10.65621 -10.64654  -1.19931
 Alpha  occ. eigenvalues --   -0.92841  -0.75693  -0.66387  -0.56916  -0.55971
 Alpha  occ. eigenvalues --   -0.50768  -0.46973  -0.46807  -0.34670  -0.33729
 Alpha virt. eigenvalues --   -0.01784   0.05725   0.07127   0.08297   0.09643
 Alpha virt. eigenvalues --    0.12556   0.14044   0.15384   0.17417   0.19445
 Alpha virt. eigenvalues --    0.20035   0.21828   0.25321   0.26469   0.28393

 Mulliken charges:
               1
     1  C    0.160822
     2  O   -0.342909
     3  C   -0.043459
     4  C   -0.127078
     5  H    0.102580
     6  H    0.083192
     7  H    0.104088
     8  H    0.062764
 Sum of Mulliken charges =   0.00000

 Dipole moment (field-independent basis, Debye):
    X=              3.5084    Y=              0.6619    Z=              0.0316  Tot=              3.5704
 Quadrupole moment (field-independent basis, Debye-Ang):
   XX=            -27.3531   YY=            -21.7713   ZZ=            -25.2445
   XY=             -0.7352   XZ=             -0.3103   YZ=             -0.0664

 Normal termination of Gaussian 09 at Wed Aug 26 09:13:33 2020.
