 Gaussian 09, Revision D.01,
 Gaussian 09:  ES64L-G09RevD.01 24-Apr-2013

 --------------------
 #p B2PLYPD3/Def2QZVP
 --------------------

 --------
 acrolein
 --------
 Symbolic Z-matrix:
 Charge =  0 Multiplicity = 1

                         Standard orientation:
 ---------------------------------------------------------------------
 Center     Atomic      Atomic             Coordinates (Angstroms)
 Number     Number       Type             X           Y           Z
 ---------------------------------------------------------------------
      1          6           0       -0.660268   -0.324216   -0.004041
      2          8           0       -1.795032    0.088030   -0.020620
      3          6           0        0.600338    0.485197    0.040652
      4          6           0        1.724525   -0.170350   -0.036356
      5          1           0        0.406153    1.596792    0.039025
      6          1           0        1.845174   -1.294150    0.029035
      7          1           0        2.705221    0.358456   -0.029222
      8          1           0       -0.583864   -1.309125    0.124593
 ---------------------------------------------------------------------

 SCF Done:  E(RB2PLYPD3) =  -191.598613891     A.U. after   12 cycles
 E2(B2PLYPD3) =    -0.2465255640D+00 E(B2PLYPD3) =    -0.19184513945497D+03

 The electronic state is 1-A.
 Alpha  occ. eigenvalues --  -19.72390 -10.70172 -10.65892 -10.64946  -1.19484
 Alpha  occ. eigenvalues --   -0.93277  -0.74976  -0.67812  -0.56868  -0.55840
 Alpha  occ. eigenvalues --   -0.50938  -0.46507  -0.45614  -0.35364  -0.33406
 Alpha virt. eigenvalues --   -0.01064   0.05615   0.07004   0.08002   0.09564
 Alpha virt. eigenvalues --    0.12556   0.14123   0.15282   0.17296   0.19334
 Alpha virt. eigenvalues --    0.20024   0.21411   0.25239   0.26908   0.28524

 Mulliken charges:
               1
     1  C    0.169307
     2  O   -0.354310
     3  C   -0.053546
     4  C   -0.118382
     5  H    0.106461
     6  H    0.085147
     7  H    0.091640
     8  H    0.073683
 Sum of Mulliken charges =   0.00000

 Dipole moment (field-independent basis, Debye):
    X=              3.4650    Y=             -0.7459    Z=              0.1257  Tot=              3.5467
 Quadrupole moment (field-independent basis, Debye-Ang):
   XX=            -27.7406   YY=            -21.5365   ZZ=            -25.1390
   XY=              0.5513   XZ=             -0.1373   YZ=             -0.0596

 Normal termination of Gaussian 09 at Wed Aug 26 10:40:21 2020.
