 Gaussian 09, Revision D.01,
 Gaussian 09:  ES64L-G09RevD.01 24-Apr-2013

 --------------------
 #p B2PLYPD3/Def2QZVP
 --------------------

 --------
 acrolein
 --------
 Symbolic Z-matrix:
 Charge =  0 Multiplicity = 1

                         Standard orientation:
 ---------------------------------------------------------------------
 Center     Atomic      Atomic             Coordinates (Angstroms)
 Number     Number       Type             X           Y           Z
 ---------------------------------------------------------------------
      1          6           0        0.673578    0.352903   -0.020219
      2          8           0        1.781732   -0.101753    0.021089
      3          6           0       -0.571139   -0.500642   -0.021128
      4          6           0       -1.742517    0.169355   -0.012978
      5          1           0       -0.494828   -1.583591   -0.051512
      6          1           0       -1.837578    1.336286   -0.028830
      7          1           0       -2.602251   -0.405132    0.201467
      8          1           0        0.521269    1.336759    0.036112
 ---------------------------------------------------------------------

 SCF Done:  E(RB2PLYPD3) =  -191.598915654     A.U. after   13 cycles
 E2(B2PLYPD3) =    -0.2468255198D+00 E(B2PLYPD3) =    -0.19184574117368D+03

 The electronic state is 1-A.
 Alpha  occ. eigenvalues --  -19.72444 -10.70417 -10.65880 -10.64768  -1.20024
 Alpha  occ. eigenvalues --   -0.92170  -0.75070  -0.68060  -0.56532  -0.55878
 Alpha  occ. eigenvalues --   -0.50417  -0.47228  -0.46545  -0.34292  -0.33532
 Alpha virt. eigenvalues --   -0.01253   0.05608   0.07223   0.07605   0.09586
 Alpha virt. eigenvalues --    0.12510   0.14143   0.15433   0.17708   0.19079
 Alpha virt. eigenvalues --    0.19977   0.21715   0.24915   0.26924   0.28564

 Mulliken charges:
               1
     1  C    0.161662
     2  O   -0.344925
     3  C   -0.061602
     4  C   -0.131707
     5  H    0.108399
     6  H    0.081218
     7  H    0.097706
     8  H    0.089250
 Sum of Mulliken charges =   0.00000

 Dipole moment (field-independent basis, Debye):
    X=             -3.3211    Y=              0.7852    Z=              0.0503  Tot=              3.4130
 Quadrupole moment (field-independent basis, Debye-Ang):
   XX=            -28.0700   YY=            -21.1840   ZZ=            -25.2294
   XY=              0.8723   XZ=             -0.5185   YZ=             -0.0713

 Normal termination of Gaussian 09 at Wed Aug 26 13:11:33 2020.
