 Gaussian 09, Revision D.01,
 Gaussian 09:  ES64L-G09RevD.01 24-Apr-2013

 --------------------
 #p B2PLYPD3/Def2QZVP
 --------------------

 --------
 acrolein
 --------
 Symbolic Z-matrix:
 Charge =  0 Multiplicity = 1

                         Standard orientation:
 ---------------------------------------------------------------------
 Center     Atomic      Atomic             Coordinates (Angstroms)
 Number     Number       Type             X           Y           Z
 ---------------------------------------------------------------------
      1          6           0       -0.663210    0.339332   -0.015155
      2          8           0       -1.793992   -0.113105    0.018867
      3          6           0        0.563836   -0.443752   -0.021215
      4          6           0        1.751842    0.145908    0.015503
      5          1           0        0.447879   -1.552809   -0.043323
      6          1           0        1.841561    1.196234   -0.024690
      7          1           0        2.647429   -0.415262    0.065230
      8          1           0       -0.499740    1.427754   -0.022958
 ---------------------------------------------------------------------

 SCF Done:  E(RB2PLYPD3) =  -191.615240521     A.U. after   12 cycles
 E2(B2PLYPD3) =    -0.2472306721D+00 E(B2PLYPD3) =    -0.19186247119320D+03

 The electronic state is 1-A.
 Alpha  occ. eigenvalues --  -19.72768 -10.71467 -10.65029 -10.64614  -1.18985
 Alpha  occ. eigenvalues --   -0.93515  -0.76146  -0.66852  -0.56825  -0.56676
 Alpha  occ. eigenvalues --   -0.50524  -0.47051  -0.46469  -0.34837  -0.33858
 Alpha virt. eigenvalues --   -0.01956   0.05804   0.07032   0.08332   0.09747
 Alpha virt. eigenvalues --    0.12721   0.14100   0.15298   0.17225   0.19949
 Alpha virt. eigenvalues --    0.20058   0.21847   0.25465   0.26480   0.28641

 Mulliken charges:
               1
     1  C    0.154145
     2  O   -0.353729
     3  C   -0.027161
     4  C   -0.131177
     5  H    0.098934
     6  H    0.087397
     7  H    0.104134
     8  H    0.067455
 Sum of Mulliken charges =   0.00000

 Dipole moment (field-independent basis, Debye):
    X=              3.6074    Y=              0.7390    Z=             -0.0699  Tot=              3.6830
 Quadrupole moment (field-independent basis, Debye-Ang):
   XX=            -27.4445   YY=            -21.7721   ZZ=            -25.1468
   XY=             -0.8273   XZ=              0.1918   YZ=             -0.0227

 Normal termination of Gaussian 09 at Wed Aug 26 08:49:25 2020.
