 Gaussian 09, Revision D.01,
 Gaussian 09:  ES64L-G09RevD.01 24-Apr-2013

 --------------------
 #p B2PLYPD3/Def2QZVP
 --------------------

 --------
 acrolein
 --------
 Symbolic Z-matrix:
 Charge =  0 Multiplicity = 1

                         Standard orientation:
 ---------------------------------------------------------------------
 Center     Atomic      Atomic             Coordinates (Angstroms)
 Number     Number       Type             X           Y           Z
 ---------------------------------------------------------------------
      1          6           0        0.659712    0.337006    0.008567
      2          8           0        1.796650   -0.108979   -0.018929
      3          6           0       -0.557058   -0.457155    0.010364
      4          6           0       -1.751949    0.146031   -0.004866
      5          1           0       -0.434371   -1.531118    0.050669
      6          1           0       -1.848418    1.234303   -0.072864
      7          1           0       -2.689092   -0.425582   -0.020367
      8          1           0        0.494451    1.438941    0.109603
 ---------------------------------------------------------------------

 SCF Done:  E(RB2PLYPD3) =  -191.615158224     A.U. after   13 cycles
 E2(B2PLYPD3) =    -0.2480415075D+00 E(B2PLYPD3) =    -0.19186319973155D+03

 The electronic state is 1-A.
 Alpha  occ. eigenvalues --  -19.72740 -10.71620 -10.66121 -10.64607  -1.18786
 Alpha  occ. eigenvalues --   -0.93217  -0.75611  -0.66825  -0.56461  -0.56162
 Alpha  occ. eigenvalues --   -0.50254  -0.47030  -0.46406  -0.34705  -0.33791
 Alpha virt. eigenvalues --   -0.02123   0.05650   0.07039   0.08140   0.09696
 Alpha virt. eigenvalues --    0.12536   0.13950   0.15261   0.17448   0.19556
 Alpha virt. eigenvalues --    0.20127   0.21448   0.25188   0.26570   0.28734

 Mulliken charges:
               1
     1  C    0.155967
     2  O   -0.355800
     3  C   -0.034592
     4  C   -0.127102
     5  H    0.107125
     6  H    0.087600
     7  H    0.101233
     8  H    0.065568
 Sum of Mulliken charges =   0.00000

 Dipole moment (field-independent basis, Debye):
    X=             -3.6402    Y=              0.6933    Z=              0.0551  Tot=              3.7060
 Quadrupole moment (field-independent basis, Debye-Ang):
   XX=            -27.5039   YY=            -21.7677   ZZ=            -25.2593
   XY=              0.7719   XZ=              0.2443   YZ=             -0.1068

 Normal termination of Gaussian 09 at Wed Aug 26 16:37:28 2020.
