 Gaussian 09, Revision D.01,
 Gaussian 09:  ES64L-G09RevD.01 24-Apr-2013

 --------------------
 #p B2PLYPD3/Def2QZVP
 --------------------

 --------
 acrolein
 --------
 Symbolic Z-matrix:
 Charge =  0 Multiplicity = 1

                         Standard orientation:
 ---------------------------------------------------------------------
 Center     Atomic      Atomic             Coordinates (Angstroms)
 Number     Number       Type             X           Y           Z
 ---------------------------------------------------------------------
      1          6           0       -0.659248    0.332252   -0.021261
      2          8           0       -1.798787   -0.102620    0.032017
      3          6           0        0.577085   -0.472219   -0.038070
      4          6           0        1.757305    0.145777    0.009097
      5          1           0        0.437144   -1.548339   -0.066986
      6          1           0        1.847451    1.276411   -0.007743
      7          1           0        2.545840   -0.403800    0.169599
      8          1           0       -0.490994    1.461821   -0.049597
 ---------------------------------------------------------------------

 SCF Done:  E(RB2PLYPD3) =  -191.602803301     A.U. after   13 cycles
 E2(B2PLYPD3) =    -0.2479288957D+00 E(B2PLYPD3) =    -0.19185073219678D+03

 The electronic state is 1-A.
 Alpha  occ. eigenvalues --  -19.72852 -10.71956 -10.65026 -10.64730  -1.18838
 Alpha  occ. eigenvalues --   -0.93428  -0.76140  -0.66286  -0.57466  -0.55636
 Alpha  occ. eigenvalues --   -0.50481  -0.47697  -0.46283  -0.34790  -0.33607
 Alpha virt. eigenvalues --   -0.01925   0.05756   0.07072   0.08028   0.09707
 Alpha virt. eigenvalues --    0.12555   0.13928   0.15268   0.17184   0.19592
 Alpha virt. eigenvalues --    0.19889   0.22234   0.25048   0.26530   0.28539

 Mulliken charges:
               1
     1  C    0.160602
     2  O   -0.352760
     3  C   -0.039730
     4  C   -0.126807
     5  H    0.103596
     6  H    0.088820
     7  H    0.108086
     8  H    0.058192
 Sum of Mulliken charges =   0.00000

 Dipole moment (field-independent basis, Debye):
    X=              3.5811    Y=              0.6253    Z=             -0.0272  Tot=              3.6354
 Quadrupole moment (field-independent basis, Debye-Ang):
   XX=            -27.7563   YY=            -21.6277   ZZ=            -25.1914
   XY=             -0.7138   XZ=              0.5318   YZ=             -0.0418

 Normal termination of Gaussian 09 at Wed Aug 26 08:42:06 2020.
