 Gaussian 09, Revision D.01,
 Gaussian 09:  ES64L-G09RevD.01 24-Apr-2013

 --------------------
 #p B2PLYPD3/Def2QZVP
 --------------------

 --------
 acrolein
 --------
 Symbolic Z-matrix:
 Charge =  0 Multiplicity = 1

                         Standard orientation:
 ---------------------------------------------------------------------
 Center     Atomic      Atomic             Coordinates (Angstroms)
 Number     Number       Type             X           Y           Z
 ---------------------------------------------------------------------
      1          6           0       -0.653807    0.324179   -0.078012
      2          8           0       -1.794142   -0.090698    0.071149
      3          6           0        0.581763   -0.499378   -0.034689
      4          6           0        1.726145    0.158295    0.007620
      5          1           0        0.579733   -1.461145   -0.111820
      6          1           0        1.837965    1.337346    0.154193
      7          1           0        2.509565   -0.353403    0.182232
      8          1           0       -0.498734    1.304213   -0.163319
 ---------------------------------------------------------------------

 SCF Done:  E(RB2PLYPD3) =  -191.572752045     A.U. after   12 cycles
 E2(B2PLYPD3) =    -0.2464844669D+00 E(B2PLYPD3) =    -0.19181923651139D+03

 The electronic state is 1-A.
 Alpha  occ. eigenvalues --  -19.72473 -10.70531 -10.64668 -10.63273  -1.18537
 Alpha  occ. eigenvalues --   -0.94228  -0.76651  -0.69690  -0.58092  -0.56468
 Alpha  occ. eigenvalues --   -0.50691  -0.47597  -0.46033  -0.34970  -0.33811
 Alpha virt. eigenvalues --   -0.01523   0.05646   0.07477   0.07659   0.09536
 Alpha virt. eigenvalues --    0.12892   0.14371   0.15074   0.18151   0.19612
 Alpha virt. eigenvalues --    0.19727   0.21803   0.24529   0.27112   0.28186

 Mulliken charges:
               1
     1  C    0.154062
     2  O   -0.358498
     3  C   -0.052743
     4  C   -0.113612
     5  H    0.107845
     6  H    0.070067
     7  H    0.097074
     8  H    0.095803
 Sum of Mulliken charges =   0.00000

 Dipole moment (field-independent basis, Debye):
    X=              3.5674    Y=              0.6778    Z=             -0.1462  Tot=              3.6341
 Quadrupole moment (field-independent basis, Debye-Ang):
   XX=            -27.9980   YY=            -21.3664   ZZ=            -24.8555
   XY=             -0.8942   XZ=              0.9631   YZ=              0.1814

 Normal termination of Gaussian 09 at Wed Aug 26 11:55:26 2020.
