 Gaussian 09, Revision D.01,
 Gaussian 09:  ES64L-G09RevD.01 24-Apr-2013

 --------------------
 #p B2PLYPD3/Def2QZVP
 --------------------

 --------
 acrolein
 --------
 Symbolic Z-matrix:
 Charge =  0 Multiplicity = 1

                         Standard orientation:
 ---------------------------------------------------------------------
 Center     Atomic      Atomic             Coordinates (Angstroms)
 Number     Number       Type             X           Y           Z
 ---------------------------------------------------------------------
      1          6           0       -0.663205    0.344190   -0.014339
      2          8           0       -1.789848   -0.112364    0.014463
      3          6           0        0.568312   -0.450652   -0.013099
      4          6           0        1.752130    0.149635    0.005239
      5          1           0        0.415992   -1.591026    0.006854
      6          1           0        1.794224    1.225162    0.070647
      7          1           0        2.673128   -0.409035   -0.006433
      8          1           0       -0.507982    1.414767   -0.053570
 ---------------------------------------------------------------------

 SCF Done:  E(RB2PLYPD3) =  -191.613413576     A.U. after   12 cycles
 E2(B2PLYPD3) =    -0.2474699501D+00 E(B2PLYPD3) =    -0.19186088352654D+03

 The electronic state is 1-A.
 Alpha  occ. eigenvalues --  -19.72747 -10.71329 -10.65429 -10.64976  -1.19134
 Alpha  occ. eigenvalues --   -0.93215  -0.75661  -0.66627  -0.56522  -0.56418
 Alpha  occ. eigenvalues --   -0.50528  -0.46628  -0.46326  -0.34816  -0.33872
 Alpha virt. eigenvalues --   -0.01800   0.05770   0.06885   0.08198   0.09749
 Alpha virt. eigenvalues --    0.12626   0.14007   0.15319   0.17048   0.19714
 Alpha virt. eigenvalues --    0.20119   0.21649   0.25444   0.26587   0.28889

 Mulliken charges:
               1
     1  C    0.157416
     2  O   -0.353222
     3  C   -0.033098
     4  C   -0.131509
     5  H    0.097440
     6  H    0.085631
     7  H    0.106996
     8  H    0.070346
 Sum of Mulliken charges =   0.00000

 Dipole moment (field-independent basis, Debye):
    X=              3.5316    Y=              0.7637    Z=             -0.0061  Tot=              3.6133
 Quadrupole moment (field-independent basis, Debye-Ang):
   XX=            -27.5584   YY=            -21.7065   ZZ=            -25.2345
   XY=             -0.8743   XZ=              0.1730   YZ=              0.0529

 Normal termination of Gaussian 09 at Wed Aug 26 09:15:38 2020.
