 Gaussian 09, Revision D.01,
 Gaussian 09:  ES64L-G09RevD.01 24-Apr-2013

 --------------------
 #p B2PLYPD3/Def2QZVP
 --------------------

 --------
 acrolein
 --------
 Symbolic Z-matrix:
 Charge =  0 Multiplicity = 1

                         Standard orientation:
 ---------------------------------------------------------------------
 Center     Atomic      Atomic             Coordinates (Angstroms)
 Number     Number       Type             X           Y           Z
 ---------------------------------------------------------------------
      1          6           0       -0.663839    0.344429   -0.030222
      2          8           0       -1.801532   -0.110379    0.034588
      3          6           0        0.582859   -0.471199   -0.054296
      4          6           0        1.750365    0.146524    0.014518
      5          1           0        0.454287   -1.475185    0.049562
      6          1           0        1.827627    1.271321    0.101568
      7          1           0        2.604446   -0.416284    0.065768
      8          1           0       -0.490415    1.384665   -0.073595
 ---------------------------------------------------------------------

 SCF Done:  E(RB2PLYPD3) =  -191.606523514     A.U. after   12 cycles
 E2(B2PLYPD3) =    -0.2471749304D+00 E(B2PLYPD3) =    -0.19185369844442D+03

 The electronic state is 1-A.
 Alpha  occ. eigenvalues --  -19.72791 -10.71295 -10.65208 -10.63748  -1.18431
 Alpha  occ. eigenvalues --   -0.93517  -0.75841  -0.68279  -0.57185  -0.56045
 Alpha  occ. eigenvalues --   -0.50803  -0.47624  -0.46031  -0.34883  -0.33796
 Alpha virt. eigenvalues --   -0.01699   0.05687   0.07477   0.07783   0.09723
 Alpha virt. eigenvalues --    0.12714   0.13725   0.15343   0.17936   0.19246
 Alpha virt. eigenvalues --    0.20067   0.21874   0.25155   0.26799   0.28713

 Mulliken charges:
               1
     1  C    0.157351
     2  O   -0.360766
     3  C   -0.050039
     4  C   -0.122817
     5  H    0.110332
     6  H    0.083100
     7  H    0.101623
     8  H    0.081215
 Sum of Mulliken charges =   0.00000

 Dipole moment (field-independent basis, Debye):
    X=              3.5669    Y=              0.7573    Z=              0.0508  Tot=              3.6468
 Quadrupole moment (field-independent basis, Debye-Ang):
   XX=            -27.8213   YY=            -21.5697   ZZ=            -25.0832
   XY=             -0.8646   XZ=              0.5377   YZ=             -0.0354

 Normal termination of Gaussian 09 at Wed Aug 26 08:59:43 2020.
