 Gaussian 09, Revision D.01,
 Gaussian 09:  ES64L-G09RevD.01 24-Apr-2013

 --------------------
 #p B2PLYPD3/Def2QZVP
 --------------------

 --------
 acrolein
 --------
 Symbolic Z-matrix:
 Charge =  0 Multiplicity = 1

                         Standard orientation:
 ---------------------------------------------------------------------
 Center     Atomic      Atomic             Coordinates (Angstroms)
 Number     Number       Type             X           Y           Z
 ---------------------------------------------------------------------
      1          6           0        0.660878    0.341886    0.011911
      2          8           0        1.793604   -0.110711   -0.016189
      3          6           0       -0.569230   -0.468011    0.010350
      4          6           0       -1.746668    0.156766   -0.018930
      5          1           0       -0.452418   -1.539970    0.036704
      6          1           0       -1.808395    1.242154   -0.033146
      7          1           0       -2.678238   -0.408555    0.023900
      8          1           0        0.520347    1.408212    0.082060
 ---------------------------------------------------------------------

 SCF Done:  E(RB2PLYPD3) =  -191.615916536     A.U. after   12 cycles
 E2(B2PLYPD3) =    -0.2474008128D+00 E(B2PLYPD3) =    -0.19186331734920D+03

 The electronic state is 1-A.
 Alpha  occ. eigenvalues --  -19.72627 -10.71307 -10.65676 -10.64517  -1.18809
 Alpha  occ. eigenvalues --   -0.93140  -0.75328  -0.67458  -0.56620  -0.56205
 Alpha  occ. eigenvalues --   -0.50352  -0.47206  -0.46327  -0.34703  -0.33789
 Alpha virt. eigenvalues --   -0.01762   0.05718   0.07123   0.08012   0.09707
 Alpha virt. eigenvalues --    0.12609   0.14027   0.15302   0.17496   0.19619
 Alpha virt. eigenvalues --    0.20108   0.21502   0.25317   0.26558   0.28912

 Mulliken charges:
               1
     1  C    0.152780
     2  O   -0.356278
     3  C   -0.038781
     4  C   -0.130152
     5  H    0.107929
     6  H    0.087565
     7  H    0.100589
     8  H    0.076348
 Sum of Mulliken charges =   0.00000

 Dipole moment (field-independent basis, Debye):
    X=             -3.5607    Y=              0.7513    Z=              0.1061  Tot=              3.6406
 Quadrupole moment (field-independent basis, Debye-Ang):
   XX=            -27.6902   YY=            -21.5812   ZZ=            -25.2203
   XY=              0.8831   XZ=              0.0591   YZ=             -0.0690

 Normal termination of Gaussian 09 at Wed Aug 26 19:32:48 2020.
