 Gaussian 09, Revision D.01,
 Gaussian 09:  ES64L-G09RevD.01 24-Apr-2013

 --------------------
 #p B2PLYPD3/Def2QZVP
 --------------------

 --------
 acrolein
 --------
 Symbolic Z-matrix:
 Charge =  0 Multiplicity = 1

                         Standard orientation:
 ---------------------------------------------------------------------
 Center     Atomic      Atomic             Coordinates (Angstroms)
 Number     Number       Type             X           Y           Z
 ---------------------------------------------------------------------
      1          6           0        0.650303    0.345745    0.051535
      2          8           0        1.788952   -0.130988   -0.040285
      3          6           0       -0.538652   -0.423244    0.032281
      4          6           0       -1.744293    0.132984   -0.038329
      5          1           0       -0.443429   -1.497366    0.046549
      6          1           0       -1.801662    1.138347   -0.030132
      7          1           0       -2.751989   -0.439029   -0.009014
      8          1           0        0.481310    1.513035    0.041955
 ---------------------------------------------------------------------

 SCF Done:  E(RB2PLYPD3) =  -191.600764402     A.U. after   13 cycles
 E2(B2PLYPD3) =    -0.2492695889D+00 E(B2PLYPD3) =    -0.19185003399061D+03

 The electronic state is 1-A.
 Alpha  occ. eigenvalues --  -19.72922 -10.72284 -10.65844 -10.64237  -1.18035
 Alpha  occ. eigenvalues --   -0.94155  -0.76292  -0.66844  -0.56764  -0.55985
 Alpha  occ. eigenvalues --   -0.49721  -0.46859  -0.46389  -0.34813  -0.33968
 Alpha virt. eigenvalues --   -0.02667   0.05536   0.06775   0.08336   0.09808
 Alpha virt. eigenvalues --    0.12355   0.13846   0.15251   0.17287   0.19803
 Alpha virt. eigenvalues --    0.20388   0.21291   0.25511   0.26072   0.29146

 Mulliken charges:
               1
     1  C    0.150728
     2  O   -0.360599
     3  C   -0.012924
     4  C   -0.124444
     5  H    0.105148
     6  H    0.088415
     7  H    0.100080
     8  H    0.053595
 Sum of Mulliken charges =   0.00000

 Dipole moment (field-independent basis, Debye):
    X=             -3.7527    Y=              0.7204    Z=              0.1644  Tot=              3.8248
 Quadrupole moment (field-independent basis, Debye-Ang):
   XX=            -27.2361   YY=            -22.0141   ZZ=            -25.2266
   XY=              0.9638   XZ=              0.2190   YZ=             -0.0692

 Normal termination of Gaussian 09 at Wed Aug 26 08:35:29 2020.
