 Gaussian 09, Revision D.01,
 Gaussian 09:  ES64L-G09RevD.01 24-Apr-2013

 --------------------
 #p B2PLYPD3/Def2QZVP
 --------------------

 --------
 acrolein
 --------
 Symbolic Z-matrix:
 Charge =  0 Multiplicity = 1

                         Standard orientation:
 ---------------------------------------------------------------------
 Center     Atomic      Atomic             Coordinates (Angstroms)
 Number     Number       Type             X           Y           Z
 ---------------------------------------------------------------------
      1          6           0        0.682449    0.360510   -0.011316
      2          8           0        1.778071   -0.134782    0.016144
      3          6           0       -0.549813   -0.443725   -0.033104
      4          6           0       -1.756702    0.137443    0.002793
      5          1           0       -0.475582   -1.466665    0.032002
      6          1           0       -1.824574    1.205183    0.037219
      7          1           0       -2.699688   -0.434934    0.064191
      8          1           0        0.519672    1.449308   -0.012801
 ---------------------------------------------------------------------

 SCF Done:  E(RB2PLYPD3) =  -191.614243968     A.U. after   13 cycles
 E2(B2PLYPD3) =    -0.2466129593D+00 E(B2PLYPD3) =    -0.19186085692742D+03

 The electronic state is 1-A.
 Alpha  occ. eigenvalues --  -19.72827 -10.71521 -10.65465 -10.63705  -1.20073
 Alpha  occ. eigenvalues --   -0.92848  -0.75194  -0.67812  -0.56829  -0.56274
 Alpha  occ. eigenvalues --   -0.50675  -0.47327  -0.46977  -0.34467  -0.33914
 Alpha virt. eigenvalues --   -0.01638   0.05752   0.07380   0.08158   0.09763
 Alpha virt. eigenvalues --    0.12543   0.13941   0.15415   0.17965   0.19775
 Alpha virt. eigenvalues --    0.19934   0.21362   0.25471   0.26376   0.28854

 Mulliken charges:
               1
     1  C    0.151204
     2  O   -0.343325
     3  C   -0.042998
     4  C   -0.131996
     5  H    0.110572
     6  H    0.081225
     7  H    0.098878
     8  H    0.076440
 Sum of Mulliken charges =   0.00000

 Dipole moment (field-independent basis, Debye):
    X=             -3.3900    Y=              0.8073    Z=              0.0674  Tot=              3.4854
 Quadrupole moment (field-independent basis, Debye-Ang):
   XX=            -27.3192   YY=            -21.7719   ZZ=            -25.1657
   XY=              1.1053   XZ=             -0.3284   YZ=             -0.0587

 Normal termination of Gaussian 09 at Wed Aug 26 18:35:14 2020.
