 Gaussian 09, Revision D.01,
 Gaussian 09:  ES64L-G09RevD.01 24-Apr-2013

 --------------------
 #p B2PLYPD3/Def2QZVP
 --------------------

 --------
 acrolein
 --------
 Symbolic Z-matrix:
 Charge =  0 Multiplicity = 1

                         Standard orientation:
 ---------------------------------------------------------------------
 Center     Atomic      Atomic             Coordinates (Angstroms)
 Number     Number       Type             X           Y           Z
 ---------------------------------------------------------------------
      1          6           0       -0.669118   -0.337344    0.003052
      2          8           0       -1.796895    0.104559   -0.021694
      3          6           0        0.576052    0.464522    0.022470
      4          6           0        1.750046   -0.166906   -0.037220
      5          1           0        0.449314    1.602167    0.081059
      6          1           0        1.861170   -1.248800    0.016383
      7          1           0        2.683376    0.421311    0.008835
      8          1           0       -0.560579   -1.372783    0.137465
 ---------------------------------------------------------------------

 SCF Done:  E(RB2PLYPD3) =  -191.609617624     A.U. after   12 cycles
 E2(B2PLYPD3) =    -0.2473348410D+00 E(B2PLYPD3) =    -0.19185695246496D+03

 The electronic state is 1-A.
 Alpha  occ. eigenvalues --  -19.72572 -10.70942 -10.65820 -10.65302  -1.19312
 Alpha  occ. eigenvalues --   -0.92752  -0.75262  -0.67037  -0.56832  -0.55807
 Alpha  occ. eigenvalues --   -0.50350  -0.46753  -0.46153  -0.34751  -0.33673
 Alpha virt. eigenvalues --   -0.01671   0.05717   0.06782   0.08091   0.09615
 Alpha virt. eigenvalues --    0.12577   0.14175   0.15290   0.17278   0.19475
 Alpha virt. eigenvalues --    0.20077   0.21534   0.25157   0.26669   0.28428

 Mulliken charges:
               1
     1  C    0.159050
     2  O   -0.350925
     3  C   -0.045023
     4  C   -0.128218
     5  H    0.101618
     6  H    0.089174
     7  H    0.097611
     8  H    0.076714
 Sum of Mulliken charges =   0.00000

 Dipole moment (field-independent basis, Debye):
    X=              3.4977    Y=             -0.7710    Z=              0.1971  Tot=              3.5871
 Quadrupole moment (field-independent basis, Debye-Ang):
   XX=            -27.7054   YY=            -21.5432   ZZ=            -25.2688
   XY=              0.7894   XZ=             -0.0387   YZ=              0.0392

 Normal termination of Gaussian 09 at Wed Aug 26 09:18:43 2020.
