 Gaussian 09, Revision D.01,
 Gaussian 09:  ES64L-G09RevD.01 24-Apr-2013

 --------------------
 #p B2PLYPD3/Def2QZVP
 --------------------

 --------
 acrolein
 --------
 Symbolic Z-matrix:
 Charge =  0 Multiplicity = 1

                         Standard orientation:
 ---------------------------------------------------------------------
 Center     Atomic      Atomic             Coordinates (Angstroms)
 Number     Number       Type             X           Y           Z
 ---------------------------------------------------------------------
      1          6           0        0.676805    0.351779   -0.021194
      2          8           0        1.779309   -0.124099    0.023913
      3          6           0       -0.542315   -0.446410   -0.016599
      4          6           0       -1.757442    0.137143    0.007275
      5          1           0       -0.441833   -1.521927   -0.053524
      6          1           0       -1.842866    1.239142    0.029631
      7          1           0       -2.719254   -0.441678    0.064661
      8          1           0        0.507196    1.462190   -0.048961
 ---------------------------------------------------------------------

 SCF Done:  E(RB2PLYPD3) =  -191.614503785     A.U. after   13 cycles
 E2(B2PLYPD3) =    -0.2474927930D+00 E(B2PLYPD3) =    -0.19186199657812D+03

 The electronic state is 1-A.
 Alpha  occ. eigenvalues --  -19.72797 -10.71569 -10.66367 -10.64467  -1.20117
 Alpha  occ. eigenvalues --   -0.92589  -0.75079  -0.66700  -0.56405  -0.56007
 Alpha  occ. eigenvalues --   -0.50416  -0.47203  -0.46507  -0.34430  -0.33866
 Alpha virt. eigenvalues --   -0.01861   0.05624   0.07074   0.08299   0.09709
 Alpha virt. eigenvalues --    0.12363   0.13933   0.15365   0.17613   0.19647
 Alpha virt. eigenvalues --    0.19903   0.21252   0.25480   0.26338   0.28844

 Mulliken charges:
               1
     1  C    0.156367
     2  O   -0.342700
     3  C   -0.038908
     4  C   -0.130909
     5  H    0.106638
     6  H    0.082112
     7  H    0.101416
     8  H    0.065984
 Sum of Mulliken charges =   0.00000

 Dipole moment (field-independent basis, Debye):
    X=             -3.4480    Y=              0.7355    Z=             -0.0591  Tot=              3.5261
 Quadrupole moment (field-independent basis, Debye-Ang):
   XX=            -27.2909   YY=            -21.8197   ZZ=            -25.3145
   XY=              0.9581   XZ=             -0.2983   YZ=              0.0529

 Normal termination of Gaussian 09 at Wed Aug 26 18:46:20 2020.
