 Gaussian 09, Revision D.01,
 Gaussian 09:  ES64L-G09RevD.01 24-Apr-2013

 --------------------
 #p B2PLYPD3/Def2QZVP
 --------------------

 --------
 acrolein
 --------
 Symbolic Z-matrix:
 Charge =  0 Multiplicity = 1

                         Standard orientation:
 ---------------------------------------------------------------------
 Center     Atomic      Atomic             Coordinates (Angstroms)
 Number     Number       Type             X           Y           Z
 ---------------------------------------------------------------------
      1          6           0       -0.681283    0.354137    0.014508
      2          8           0       -1.783472   -0.128119   -0.019202
      3          6           0        0.564500   -0.447881    0.003462
      4          6           0        1.755304    0.142498   -0.006578
      5          1           0        0.451517   -1.525470    0.076714
      6          1           0        1.826829    1.212391   -0.037543
      7          1           0        2.671873   -0.424835   -0.031233
      8          1           0       -0.513564    1.470346    0.077323
 ---------------------------------------------------------------------

 SCF Done:  E(RB2PLYPD3) =  -191.616749889     A.U. after   12 cycles
 E2(B2PLYPD3) =    -0.2468579246D+00 E(B2PLYPD3) =    -0.19186360781369D+03

 The electronic state is 1-A.
 Alpha  occ. eigenvalues --  -19.72987 -10.71885 -10.65106 -10.64335  -1.20066
 Alpha  occ. eigenvalues --   -0.92877  -0.75145  -0.66692  -0.56513  -0.56421
 Alpha  occ. eigenvalues --   -0.50775  -0.47238  -0.46696  -0.34743  -0.33796
 Alpha virt. eigenvalues --   -0.01498   0.05826   0.07113   0.08161   0.09772
 Alpha virt. eigenvalues --    0.12575   0.13925   0.15324   0.17471   0.19750
 Alpha virt. eigenvalues --    0.20018   0.21626   0.25446   0.26489   0.28724

 Mulliken charges:
               1
     1  C    0.156351
     2  O   -0.340846
     3  C   -0.040549
     4  C   -0.132251
     5  H    0.104236
     6  H    0.083759
     7  H    0.102609
     8  H    0.066689
 Sum of Mulliken charges =   0.00000

 Dipole moment (field-independent basis, Debye):
    X=              3.3832    Y=              0.7539    Z=              0.0932  Tot=              3.4674
 Quadrupole moment (field-independent basis, Debye-Ang):
   XX=            -27.3804   YY=            -21.7885   ZZ=            -25.2121
   XY=             -0.9653   XZ=             -0.1884   YZ=             -0.1094

 Normal termination of Gaussian 09 at Wed Aug 26 15:11:21 2020.
