 Gaussian 09, Revision D.01,
 Gaussian 09:  ES64L-G09RevD.01 24-Apr-2013

 --------------------
 #p B2PLYPD3/Def2QZVP
 --------------------

 --------
 acrolein
 --------
 Symbolic Z-matrix:
 Charge =  0 Multiplicity = 1

                         Standard orientation:
 ---------------------------------------------------------------------
 Center     Atomic      Atomic             Coordinates (Angstroms)
 Number     Number       Type             X           Y           Z
 ---------------------------------------------------------------------
      1          6           0       -0.670487    0.360214    0.057896
      2          8           0       -1.757402   -0.133142   -0.054893
      3          6           0        0.498380   -0.434081    0.001254
      4          6           0        1.754785    0.097111    0.000567
      5          1           0        0.411369   -1.452552    0.176987
      6          1           0        1.920691    1.238971   -0.144836
      7          1           0        2.785272   -0.388679   -0.094687
      8          1           0       -0.554182    1.527935    0.143373
 ---------------------------------------------------------------------

 SCF Done:  E(RB2PLYPD3) =  -191.595471195     A.U. after   13 cycles
 E2(B2PLYPD3) =    -0.2486867851D+00 E(B2PLYPD3) =    -0.19184415797957D+03

 The electronic state is 1-A.
 Alpha  occ. eigenvalues --  -19.72638 -10.71651 -10.67537 -10.64301  -1.20428
 Alpha  occ. eigenvalues --   -0.92647  -0.75264  -0.66483  -0.57043  -0.55768
 Alpha  occ. eigenvalues --   -0.50318  -0.47464  -0.44975  -0.34241  -0.33852
 Alpha virt. eigenvalues --   -0.02437   0.05393   0.07149   0.08175   0.09554
 Alpha virt. eigenvalues --    0.11803   0.14059   0.14974   0.18150   0.19323
 Alpha virt. eigenvalues --    0.19747   0.21123   0.24796   0.26301   0.29314

 Mulliken charges:
               1
     1  C    0.156677
     2  O   -0.338490
     3  C   -0.043941
     4  C   -0.114366
     5  H    0.117231
     6  H    0.062815
     7  H    0.097311
     8  H    0.062763
 Sum of Mulliken charges =   0.00000

 Dipole moment (field-independent basis, Debye):
    X=              3.4938    Y=              0.7134    Z=              0.1965  Tot=              3.5713
 Quadrupole moment (field-independent basis, Debye-Ang):
   XX=            -26.6537   YY=            -22.2111   ZZ=            -25.3072
   XY=             -0.9241   XZ=             -0.6299   YZ=             -0.3354

 Normal termination of Gaussian 09 at Wed Aug 26 10:47:58 2020.
