 Gaussian 09, Revision D.01,
 Gaussian 09:  ES64L-G09RevD.01 24-Apr-2013

 --------------------
 #p B2PLYPD3/Def2QZVP
 --------------------

 --------
 acrolein
 --------
 Symbolic Z-matrix:
 Charge =  0 Multiplicity = 1

                         Standard orientation:
 ---------------------------------------------------------------------
 Center     Atomic      Atomic             Coordinates (Angstroms)
 Number     Number       Type             X           Y           Z
 ---------------------------------------------------------------------
      1          6           0       -0.656339    0.332495   -0.018478
      2          8           0       -1.793396   -0.105382    0.017970
      3          6           0        0.575901   -0.452260   -0.022251
      4          6           0        1.747880    0.147785   -0.000388
      5          1           0        0.423684   -1.559453   -0.005130
      6          1           0        1.833320    1.230389    0.015542
      7          1           0        2.619035   -0.396182    0.091688
      8          1           0       -0.533525    1.400180    0.000842
 ---------------------------------------------------------------------

 SCF Done:  E(RB2PLYPD3) =  -191.613098155     A.U. after   12 cycles
 E2(B2PLYPD3) =    -0.2468697847D+00 E(B2PLYPD3) =    -0.19185996793930D+03

 The electronic state is 1-A.
 Alpha  occ. eigenvalues --  -19.72600 -10.71081 -10.64932 -10.64618  -1.18859
 Alpha  occ. eigenvalues --   -0.93697  -0.76170  -0.66996  -0.57030  -0.56721
 Alpha  occ. eigenvalues --   -0.50567  -0.46836  -0.46469  -0.35043  -0.33740
 Alpha virt. eigenvalues --   -0.01783   0.05809   0.07100   0.08328   0.09734
 Alpha virt. eigenvalues --    0.12722   0.14152   0.15274   0.17230   0.19798
 Alpha virt. eigenvalues --    0.19964   0.22021   0.25440   0.26595   0.28718

 Mulliken charges:
               1
     1  C    0.156595
     2  O   -0.356982
     3  C   -0.032208
     4  C   -0.126796
     5  H    0.099662
     6  H    0.086173
     7  H    0.104803
     8  H    0.068753
 Sum of Mulliken charges =   0.00000

 Dipole moment (field-independent basis, Debye):
    X=              3.5995    Y=              0.7285    Z=              0.0274  Tot=              3.6726
 Quadrupole moment (field-independent basis, Debye-Ang):
   XX=            -27.5631   YY=            -21.6883   ZZ=            -25.0959
   XY=             -0.7879   XZ=              0.3373   YZ=             -0.0287

 Normal termination of Gaussian 09 at Wed Aug 26 15:40:07 2020.
