 Gaussian 09, Revision D.01,
 Gaussian 09:  ES64L-G09RevD.01 24-Apr-2013

 --------------------
 #p B2PLYPD3/Def2QZVP
 --------------------

 --------
 acrolein
 --------
 Symbolic Z-matrix:
 Charge =  0 Multiplicity = 1

                         Standard orientation:
 ---------------------------------------------------------------------
 Center     Atomic      Atomic             Coordinates (Angstroms)
 Number     Number       Type             X           Y           Z
 ---------------------------------------------------------------------
      1          6           0       -0.668788    0.351689   -0.025474
      2          8           0       -1.790884   -0.127963    0.022800
      3          6           0        0.559208   -0.449955   -0.029899
      4          6           0        1.754542    0.149945    0.001989
      5          1           0        0.458785   -1.515628    0.009045
      6          1           0        1.803272    1.201924    0.031379
      7          1           0        2.724072   -0.436433    0.090573
      8          1           0       -0.528827    1.463766    0.006905
 ---------------------------------------------------------------------

 SCF Done:  E(RB2PLYPD3) =  -191.613050641     A.U. after   12 cycles
 E2(B2PLYPD3) =    -0.2479825690D+00 E(B2PLYPD3) =    -0.19186103320990D+03

 The electronic state is 1-A.
 Alpha  occ. eigenvalues --  -19.72815 -10.71886 -10.65850 -10.64455  -1.18905
 Alpha  occ. eigenvalues --   -0.93061  -0.75151  -0.67177  -0.56650  -0.55887
 Alpha  occ. eigenvalues --   -0.50112  -0.47113  -0.46474  -0.34614  -0.33886
 Alpha virt. eigenvalues --   -0.01952   0.05652   0.07034   0.08017   0.09753
 Alpha virt. eigenvalues --    0.12433   0.13884   0.15328   0.17535   0.19863
 Alpha virt. eigenvalues --    0.20007   0.21293   0.25293   0.26316   0.28986

 Mulliken charges:
               1
     1  C    0.151693
     2  O   -0.353317
     3  C   -0.035171
     4  C   -0.130363
     5  H    0.108926
     6  H    0.088076
     7  H    0.099269
     8  H    0.070886
 Sum of Mulliken charges =   0.00000

 Dipole moment (field-independent basis, Debye):
    X=              3.5301    Y=              0.7777    Z=              0.0376  Tot=              3.6150
 Quadrupole moment (field-independent basis, Debye-Ang):
   XX=            -27.5406   YY=            -21.7246   ZZ=            -25.2772
   XY=             -1.0457   XZ=              0.3905   YZ=             -0.0333

 Normal termination of Gaussian 09 at Wed Aug 26 13:02:04 2020.
