 Gaussian 09, Revision D.01,
 Gaussian 09:  ES64L-G09RevD.01 24-Apr-2013

 --------------------
 #p B2PLYPD3/Def2QZVP
 --------------------

 --------
 acrolein
 --------
 Symbolic Z-matrix:
 Charge =  0 Multiplicity = 1

                         Standard orientation:
 ---------------------------------------------------------------------
 Center     Atomic      Atomic             Coordinates (Angstroms)
 Number     Number       Type             X           Y           Z
 ---------------------------------------------------------------------
      1          6           0        0.669444    0.362411    0.029439
      2          8           0        1.775721   -0.129689   -0.013910
      3          6           0       -0.563198   -0.433589   -0.008434
      4          6           0       -1.747862    0.135590   -0.016260
      5          1           0       -0.403078   -1.557036    0.012232
      6          1           0       -1.770086    1.187831   -0.076881
      7          1           0       -2.682954   -0.411002    0.101963
      8          1           0        0.500037    1.431241    0.045496
 ---------------------------------------------------------------------

 SCF Done:  E(RB2PLYPD3) =  -191.612854053     A.U. after   13 cycles
 E2(B2PLYPD3) =    -0.2469002949D+00 E(B2PLYPD3) =    -0.19185975434825D+03

 The electronic state is 1-A.
 Alpha  occ. eigenvalues --  -19.72893 -10.71407 -10.64867 -10.64379  -1.19542
 Alpha  occ. eigenvalues --   -0.93410  -0.75601  -0.66908  -0.56693  -0.56513
 Alpha  occ. eigenvalues --   -0.50894  -0.46852  -0.46098  -0.34918  -0.33946
 Alpha virt. eigenvalues --   -0.01613   0.05821   0.07042   0.08213   0.09855
 Alpha virt. eigenvalues --    0.12606   0.14053   0.15374   0.17118   0.19718
 Alpha virt. eigenvalues --    0.20047   0.21781   0.25606   0.26662   0.28987

 Mulliken charges:
               1
     1  C    0.156032
     2  O   -0.349573
     3  C   -0.031537
     4  C   -0.134120
     5  H    0.097986
     6  H    0.080848
     7  H    0.106540
     8  H    0.073825
 Sum of Mulliken charges =   0.00000

 Dipole moment (field-independent basis, Debye):
    X=             -3.4096    Y=              0.8396    Z=              0.1175  Tot=              3.5135
 Quadrupole moment (field-independent basis, Debye-Ang):
   XX=            -27.4452   YY=            -21.7946   ZZ=            -25.1307
   XY=              1.0038   XZ=             -0.0939   YZ=             -0.1487

 Normal termination of Gaussian 09 at Wed Aug 26 09:40:23 2020.
