 Gaussian 09, Revision D.01,
 Gaussian 09:  ES64L-G09RevD.01 24-Apr-2013

 --------------------
 #p B2PLYPD3/Def2QZVP
 --------------------

 --------
 acrolein
 --------
 Symbolic Z-matrix:
 Charge =  0 Multiplicity = 1

                         Standard orientation:
 ---------------------------------------------------------------------
 Center     Atomic      Atomic             Coordinates (Angstroms)
 Number     Number       Type             X           Y           Z
 ---------------------------------------------------------------------
      1          6           0        0.712379    0.372961   -0.049504
      2          8           0        1.758247   -0.167031    0.054553
      3          6           0       -0.547236   -0.420291   -0.029763
      4          6           0       -1.766891    0.123692    0.030353
      5          1           0       -0.580112   -1.395679   -0.085376
      6          1           0       -1.888584    1.131482    0.242053
      7          1           0       -2.596568   -0.410856   -0.080660
      8          1           0        0.609774    1.553133   -0.218965
 ---------------------------------------------------------------------

 SCF Done:  E(RB2PLYPD3) =  -191.591403093     A.U. after   13 cycles
 E2(B2PLYPD3) =    -0.2455081972D+00 E(B2PLYPD3) =    -0.19183691128988D+03

 The electronic state is 1-A.
 Alpha  occ. eigenvalues --  -19.73163 -10.72500 -10.63308 -10.62986  -1.21718
 Alpha  occ. eigenvalues --   -0.92975  -0.75502  -0.67497  -0.57732  -0.56851
 Alpha  occ. eigenvalues --   -0.51415  -0.47927  -0.47602  -0.34281  -0.33702
 Alpha virt. eigenvalues --   -0.01304   0.06094   0.07271   0.08236   0.09818
 Alpha virt. eigenvalues --    0.12721   0.13991   0.15694   0.17808   0.19380
 Alpha virt. eigenvalues --    0.20256   0.22049   0.24929   0.26465   0.28512

 Mulliken charges:
               1
     1  C    0.155148
     2  O   -0.317402
     3  C   -0.057581
     4  C   -0.127624
     5  H    0.105875
     6  H    0.076973
     7  H    0.095424
     8  H    0.069187
 Sum of Mulliken charges =   0.00000

 Dipole moment (field-independent basis, Debye):
    X=             -3.1257    Y=              0.7945    Z=             -0.1720  Tot=              3.2297
 Quadrupole moment (field-independent basis, Debye-Ang):
   XX=            -26.8394   YY=            -21.9615   ZZ=            -24.9547
   XY=              1.3864   XZ=             -0.3864   YZ=              0.3297

 Normal termination of Gaussian 09 at Wed Aug 26 11:01:02 2020.
