 Gaussian 09, Revision D.01,
 Gaussian 09:  ES64L-G09RevD.01 24-Apr-2013

 --------------------
 #p B2PLYPD3/Def2QZVP
 --------------------

 --------
 acrolein
 --------
 Symbolic Z-matrix:
 Charge =  0 Multiplicity = 1

                         Standard orientation:
 ---------------------------------------------------------------------
 Center     Atomic      Atomic             Coordinates (Angstroms)
 Number     Number       Type             X           Y           Z
 ---------------------------------------------------------------------
      1          6           0        0.670752    0.349527    0.085374
      2          8           0        1.808364   -0.143390   -0.075470
      3          6           0       -0.564225   -0.432765    0.018958
      4          6           0       -1.734735    0.145356   -0.071375
      5          1           0       -0.491352   -1.447258    0.271467
      6          1           0       -1.793732    1.116766   -0.064052
      7          1           0       -2.858043   -0.458745    0.000140
      8          1           0        0.445465    1.563658    0.198467
 ---------------------------------------------------------------------

 SCF Done:  E(RB2PLYPD3) =  -191.568715436     A.U. after   13 cycles
 E2(B2PLYPD3) =    -0.2509622753D+00 E(B2PLYPD3) =    -0.19181967771131D+03

 The electronic state is 1-A.
 Alpha  occ. eigenvalues --  -19.73765 -10.73839 -10.65960 -10.64153  -1.17794
 Alpha  occ. eigenvalues --   -0.94235  -0.75302  -0.67143  -0.56367  -0.55168
 Alpha  occ. eigenvalues --   -0.50161  -0.46393  -0.45255  -0.35235  -0.34085
 Alpha virt. eigenvalues --   -0.02430   0.05045   0.06208   0.07663   0.09627
 Alpha virt. eigenvalues --    0.11851   0.13444   0.14710   0.17746   0.19598
 Alpha virt. eigenvalues --    0.20308   0.21019   0.24827   0.25835   0.28895

 Mulliken charges:
               1
     1  C    0.152287
     2  O   -0.352335
     3  C   -0.007777
     4  C   -0.123145
     5  H    0.105108
     6  H    0.090989
     7  H    0.084917
     8  H    0.049956
 Sum of Mulliken charges =   0.00000

 Dipole moment (field-independent basis, Debye):
    X=             -3.5740    Y=              0.7648    Z=              0.5048  Tot=              3.6896
 Quadrupole moment (field-independent basis, Debye-Ang):
   XX=            -27.5528   YY=            -22.2176   ZZ=            -25.2854
   XY=              0.8719   XZ=              0.2405   YZ=             -0.3656

 Normal termination of Gaussian 09 at Wed Aug 26 13:59:46 2020.
