 Gaussian 09, Revision D.01,
 Gaussian 09:  ES64L-G09RevD.01 24-Apr-2013

 --------------------
 #p B2PLYPD3/Def2QZVP
 --------------------

 --------
 acrolein
 --------
 Symbolic Z-matrix:
 Charge =  0 Multiplicity = 1

                         Standard orientation:
 ---------------------------------------------------------------------
 Center     Atomic      Atomic             Coordinates (Angstroms)
 Number     Number       Type             X           Y           Z
 ---------------------------------------------------------------------
      1          6           0       -0.679167    0.351144    0.018902
      2          8           0       -1.779234   -0.124813   -0.018781
      3          6           0        0.554581   -0.441581    0.010912
      4          6           0        1.760947    0.129522   -0.019321
      5          1           0        0.454248   -1.515614    0.025317
      6          1           0        1.862356    1.260101   -0.053423
      7          1           0        2.650935   -0.418538    0.040342
      8          1           0       -0.551842    1.438039    0.075050
 ---------------------------------------------------------------------

 SCF Done:  E(RB2PLYPD3) =  -191.614903375     A.U. after   12 cycles
 E2(B2PLYPD3) =    -0.2465014619D+00 E(B2PLYPD3) =    -0.19186140483687D+03

 The electronic state is 1-A.
 Alpha  occ. eigenvalues --  -19.72716 -10.71271 -10.65561 -10.64270  -1.20221
 Alpha  occ. eigenvalues --   -0.92777  -0.75527  -0.66900  -0.56868  -0.56364
 Alpha  occ. eigenvalues --   -0.50947  -0.47119  -0.46428  -0.34616  -0.33843
 Alpha virt. eigenvalues --   -0.01641   0.05753   0.07243   0.08391   0.09697
 Alpha virt. eigenvalues --    0.12428   0.14178   0.15448   0.17566   0.19356
 Alpha virt. eigenvalues --    0.19980   0.21755   0.25545   0.26417   0.28844

 Mulliken charges:
               1
     1  C    0.157279
     2  O   -0.341822
     3  C   -0.045774
     4  C   -0.128579
     5  H    0.104067
     6  H    0.076935
     7  H    0.105719
     8  H    0.072174
 Sum of Mulliken charges =   0.00000

 Dipole moment (field-independent basis, Debye):
    X=              3.4070    Y=              0.7521    Z=              0.1022  Tot=              3.4905
 Quadrupole moment (field-independent basis, Debye-Ang):
   XX=            -27.2873   YY=            -21.7639   ZZ=            -25.1941
   XY=             -1.0471   XZ=             -0.0613   YZ=             -0.0883

 Normal termination of Gaussian 09 at Wed Aug 26 19:10:31 2020.
