 Gaussian 09, Revision D.01,
 Gaussian 09:  ES64L-G09RevD.01 24-Apr-2013

 --------------------
 #p B2PLYPD3/Def2QZVP
 --------------------

 --------
 acrolein
 --------
 Symbolic Z-matrix:
 Charge =  0 Multiplicity = 1

                         Standard orientation:
 ---------------------------------------------------------------------
 Center     Atomic      Atomic             Coordinates (Angstroms)
 Number     Number       Type             X           Y           Z
 ---------------------------------------------------------------------
      1          6           0        0.684464    0.344457   -0.039812
      2          8           0        1.794491   -0.107463    0.033191
      3          6           0       -0.581594   -0.484510   -0.020585
      4          6           0       -1.754541    0.146538    0.005741
      5          1           0       -0.426303   -1.558002   -0.030050
      6          1           0       -1.912683    1.272801    0.073752
      7          1           0       -2.617629   -0.378949    0.065746
      8          1           0        0.510714    1.484946   -0.047039
 ---------------------------------------------------------------------

 SCF Done:  E(RB2PLYPD3) =  -191.607800134     A.U. after   12 cycles
 E2(B2PLYPD3) =    -0.2471863881D+00 E(B2PLYPD3) =    -0.19185498652222D+03

 The electronic state is 1-A.
 Alpha  occ. eigenvalues --  -19.73058 -10.72149 -10.65134 -10.64893  -1.20209
 Alpha  occ. eigenvalues --   -0.92481  -0.74976  -0.66163  -0.57025  -0.55544
 Alpha  occ. eigenvalues --   -0.51023  -0.46959  -0.46833  -0.34777  -0.33491
 Alpha virt. eigenvalues --   -0.01277   0.05733   0.07220   0.07884   0.09594
 Alpha virt. eigenvalues --    0.12507   0.14039   0.15362   0.17227   0.19545
 Alpha virt. eigenvalues --    0.19950   0.21942   0.25166   0.26504   0.28227

 Mulliken charges:
               1
     1  C    0.165894
     2  O   -0.337129
     3  C   -0.057164
     4  C   -0.122435
     5  H    0.107445
     6  H    0.082478
     7  H    0.100437
     8  H    0.060474
 Sum of Mulliken charges =   0.00000

 Dipole moment (field-independent basis, Debye):
    X=             -3.3710    Y=              0.6525    Z=             -0.0388  Tot=              3.4338
 Quadrupole moment (field-independent basis, Debye-Ang):
   XX=            -27.4092   YY=            -21.6919   ZZ=            -25.2900
   XY=              0.5842   XZ=             -0.4308   YZ=              0.0883

 Normal termination of Gaussian 09 at Wed Aug 26 09:32:42 2020.
