 Gaussian 09, Revision D.01,
 Gaussian 09:  ES64L-G09RevD.01 24-Apr-2013

 --------------------
 #p B2PLYPD3/Def2QZVP
 --------------------

 --------
 acrolein
 --------
 Symbolic Z-matrix:
 Charge =  0 Multiplicity = 1

                         Standard orientation:
 ---------------------------------------------------------------------
 Center     Atomic      Atomic             Coordinates (Angstroms)
 Number     Number       Type             X           Y           Z
 ---------------------------------------------------------------------
      1          6           0        0.664419    0.335559   -0.014478
      2          8           0        1.792332   -0.106535    0.016831
      3          6           0       -0.564164   -0.457837   -0.014196
      4          6           0       -1.754727    0.150122    0.000440
      5          1           0       -0.406882   -1.597711   -0.027523
      6          1           0       -1.823223    1.240632    0.023081
      7          1           0       -2.691171   -0.406640    0.067525
      8          1           0        0.509452    1.448938   -0.028331
 ---------------------------------------------------------------------

 SCF Done:  E(RB2PLYPD3) =  -191.612910035     A.U. after   12 cycles
 E2(B2PLYPD3) =    -0.2479522162D+00 E(B2PLYPD3) =    -0.19186086225131D+03

 The electronic state is 1-A.
 Alpha  occ. eigenvalues --  -19.72785 -10.71649 -10.65985 -10.65283  -1.19405
 Alpha  occ. eigenvalues --   -0.92943  -0.75393  -0.66008  -0.56491  -0.56002
 Alpha  occ. eigenvalues --   -0.50339  -0.46791  -0.46321  -0.34760  -0.33744
 Alpha virt. eigenvalues --   -0.01914   0.05707   0.06774   0.08264   0.09702
 Alpha virt. eigenvalues --    0.12492   0.13992   0.15289   0.16973   0.19836
 Alpha virt. eigenvalues --    0.19933   0.21528   0.25348   0.26434   0.28788

 Mulliken charges:
               1
     1  C    0.159857
     2  O   -0.348772
     3  C   -0.033834
     4  C   -0.127615
     5  H    0.098813
     6  H    0.087116
     7  H    0.105322
     8  H    0.059112
 Sum of Mulliken charges =   0.00000

 Dipole moment (field-independent basis, Debye):
    X=             -3.5479    Y=              0.6912    Z=             -0.0085  Tot=              3.6146
 Quadrupole moment (field-independent basis, Debye-Ang):
   XX=            -27.4543   YY=            -21.7838   ZZ=            -25.3304
   XY=              0.7433   XZ=             -0.2779   YZ=              0.0203

 Normal termination of Gaussian 09 at Wed Aug 26 19:19:41 2020.
