 Gaussian 09, Revision D.01,
 Gaussian 09:  ES64L-G09RevD.01 24-Apr-2013

 --------------------
 #p B2PLYPD3/Def2QZVP
 --------------------

 --------
 acrolein
 --------
 Symbolic Z-matrix:
 Charge =  0 Multiplicity = 1

                         Standard orientation:
 ---------------------------------------------------------------------
 Center     Atomic      Atomic             Coordinates (Angstroms)
 Number     Number       Type             X           Y           Z
 ---------------------------------------------------------------------
      1          6           0        0.669262    0.340106    0.018372
      2          8           0        1.795280   -0.111048   -0.017651
      3          6           0       -0.574640   -0.462301   -0.003303
      4          6           0       -1.744939    0.148528   -0.001078
      5          1           0       -0.488261   -1.510010    0.063680
      6          1           0       -1.855191    1.251515   -0.055058
      7          1           0       -2.619003   -0.409549   -0.019732
      8          1           0        0.502115    1.398430    0.068369
 ---------------------------------------------------------------------

 SCF Done:  E(RB2PLYPD3) =  -191.614101458     A.U. after   12 cycles
 E2(B2PLYPD3) =    -0.2465042526D+00 E(B2PLYPD3) =    -0.19186060571083D+03

 The electronic state is 1-A.
 Alpha  occ. eigenvalues --  -19.72755 -10.71277 -10.64981 -10.63971  -1.19242
 Alpha  occ. eigenvalues --   -0.93419  -0.75695  -0.67634  -0.56897  -0.56504
 Alpha  occ. eigenvalues --   -0.50803  -0.47280  -0.46515  -0.34935  -0.33795
 Alpha virt. eigenvalues --   -0.01518   0.05791   0.07332   0.08079   0.09677
 Alpha virt. eigenvalues --    0.12746   0.14098   0.15271   0.17737   0.19624
 Alpha virt. eigenvalues --    0.20009   0.21786   0.25345   0.26728   0.28543

 Mulliken charges:
               1
     1  C    0.154487
     2  O   -0.350974
     3  C   -0.042668
     4  C   -0.127435
     5  H    0.105754
     6  H    0.083159
     7  H    0.100084
     8  H    0.077593
 Sum of Mulliken charges =   0.00000

 Dipole moment (field-independent basis, Debye):
    X=             -3.5202    Y=              0.7385    Z=              0.0810  Tot=              3.5978
 Quadrupole moment (field-independent basis, Debye-Ang):
   XX=            -27.6047   YY=            -21.6268   ZZ=            -25.0884
   XY=              0.8628   XZ=              0.1855   YZ=             -0.1286

 Normal termination of Gaussian 09 at Wed Aug 26 11:21:29 2020.
