 Gaussian 09, Revision D.01,
 Gaussian 09:  ES64L-G09RevD.01 24-Apr-2013

 --------------------
 #p B2PLYPD3/Def2QZVP
 --------------------

 --------
 acrolein
 --------
 Symbolic Z-matrix:
 Charge =  0 Multiplicity = 1

                         Standard orientation:
 ---------------------------------------------------------------------
 Center     Atomic      Atomic             Coordinates (Angstroms)
 Number     Number       Type             X           Y           Z
 ---------------------------------------------------------------------
      1          6           0        0.678048    0.363205   -0.009277
      2          8           0        1.777722   -0.135116    0.008418
      3          6           0       -0.553063   -0.434572    0.002435
      4          6           0       -1.753453    0.127184   -0.013447
      5          1           0       -0.440574   -1.463914   -0.047326
      6          1           0       -1.870369    1.209384   -0.000230
      7          1           0       -2.684618   -0.437292    0.090478
      8          1           0        0.544590    1.437849    0.011468
 ---------------------------------------------------------------------

 SCF Done:  E(RB2PLYPD3) =  -191.615070176     A.U. after   13 cycles
 E2(B2PLYPD3) =    -0.2463983024D+00 E(B2PLYPD3) =    -0.19186146847831D+03

 The electronic state is 1-A.
 Alpha  occ. eigenvalues --  -19.72749 -10.71267 -10.65376 -10.63670  -1.19750
 Alpha  occ. eigenvalues --   -0.93103  -0.75456  -0.67810  -0.56898  -0.56424
 Alpha  occ. eigenvalues --   -0.50837  -0.47073  -0.46613  -0.34720  -0.33899
 Alpha virt. eigenvalues --   -0.01641   0.05725   0.07468   0.08220   0.09746
 Alpha virt. eigenvalues --    0.12482   0.14005   0.15380   0.17963   0.19573
 Alpha virt. eigenvalues --    0.19864   0.21652   0.25672   0.26418   0.28770

 Mulliken charges:
               1
     1  C    0.154487
     2  O   -0.348527
     3  C   -0.045648
     4  C   -0.126083
     5  H    0.111416
     6  H    0.077862
     7  H    0.097691
     8  H    0.078802
 Sum of Mulliken charges =   0.00000

 Dipole moment (field-independent basis, Debye):
    X=             -3.4136    Y=              0.8346    Z=              0.0096  Tot=              3.5142
 Quadrupole moment (field-independent basis, Debye-Ang):
   XX=            -27.3212   YY=            -21.7651   ZZ=            -25.1030
   XY=              1.0347   XZ=             -0.2384   YZ=              0.0263

 Normal termination of Gaussian 09 at Wed Aug 26 09:06:28 2020.
