 Gaussian 09, Revision D.01,
 Gaussian 09:  ES64L-G09RevD.01 24-Apr-2013

 --------------------
 #p B2PLYPD3/Def2QZVP
 --------------------

 --------
 acrolein
 --------
 Symbolic Z-matrix:
 Charge =  0 Multiplicity = 1

                         Standard orientation:
 ---------------------------------------------------------------------
 Center     Atomic      Atomic             Coordinates (Angstroms)
 Number     Number       Type             X           Y           Z
 ---------------------------------------------------------------------
      1          6           0        0.671065    0.353987    0.009479
      2          8           0        1.792361   -0.118148   -0.010491
      3          6           0       -0.567151   -0.464535    0.010092
      4          6           0       -1.753617    0.139192   -0.013864
      5          1           0       -0.439485   -1.541528    0.044615
      6          1           0       -1.873590    1.282103    0.048956
      7          1           0       -2.656787   -0.417681   -0.042465
      8          1           0        0.529200    1.450422   -0.001425
 ---------------------------------------------------------------------

 SCF Done:  E(RB2PLYPD3) =  -191.613062480     A.U. after   12 cycles
 E2(B2PLYPD3) =    -0.2476723996D+00 E(B2PLYPD3) =    -0.19186073487970D+03

 The electronic state is 1-A.
 Alpha  occ. eigenvalues --  -19.72788 -10.71721 -10.65881 -10.64657  -1.19120
 Alpha  occ. eigenvalues --   -0.92749  -0.75072  -0.66726  -0.56551  -0.55875
 Alpha  occ. eigenvalues --   -0.50560  -0.46707  -0.46279  -0.34696  -0.33791
 Alpha virt. eigenvalues --   -0.01642   0.05611   0.07120   0.07942   0.09635
 Alpha virt. eigenvalues --    0.12358   0.14032   0.15345   0.17441   0.19426
 Alpha virt. eigenvalues --    0.20001   0.21606   0.25320   0.26464   0.28702

 Mulliken charges:
               1
     1  C    0.160305
     2  O   -0.351143
     3  C   -0.050121
     4  C   -0.125663
     5  H    0.108179
     6  H    0.081103
     7  H    0.102365
     8  H    0.074975
 Sum of Mulliken charges =   0.00000

 Dipole moment (field-independent basis, Debye):
    X=             -3.4914    Y=              0.7512    Z=              0.0779  Tot=              3.5722
 Quadrupole moment (field-independent basis, Debye-Ang):
   XX=            -27.5922   YY=            -21.5978   ZZ=            -25.3034
   XY=              0.8918   XZ=              0.0497   YZ=              0.0250

 Normal termination of Gaussian 09 at Wed Aug 26 18:47:30 2020.
