 Gaussian 09, Revision D.01,
 Gaussian 09:  ES64L-G09RevD.01 24-Apr-2013

 --------------------
 #p B2PLYPD3/Def2QZVP
 --------------------

 --------
 acrolein
 --------
 Symbolic Z-matrix:
 Charge =  0 Multiplicity = 1

                         Standard orientation:
 ---------------------------------------------------------------------
 Center     Atomic      Atomic             Coordinates (Angstroms)
 Number     Number       Type             X           Y           Z
 ---------------------------------------------------------------------
      1          6           0       -0.666055    0.365111   -0.022555
      2          8           0       -1.770554   -0.140895    0.023870
      3          6           0        0.541714   -0.429928   -0.016574
      4          6           0        1.751706    0.127144    0.004914
      5          1           0        0.438026   -1.453986    0.012806
      6          1           0        1.790313    1.218481    0.168468
      7          1           0        2.694383   -0.467387   -0.044841
      8          1           0       -0.522478    1.456095   -0.122106
 ---------------------------------------------------------------------

 SCF Done:  E(RB2PLYPD3) =  -191.611230453     A.U. after   13 cycles
 E2(B2PLYPD3) =    -0.2474308364D+00 E(B2PLYPD3) =    -0.19185866128949D+03

 The electronic state is 1-A.
 Alpha  occ. eigenvalues --  -19.72708 -10.71421 -10.65971 -10.63500  -1.19255
 Alpha  occ. eigenvalues --   -0.93318  -0.75371  -0.67577  -0.56650  -0.56167
 Alpha  occ. eigenvalues --   -0.50438  -0.47117  -0.46545  -0.34500  -0.33959
 Alpha virt. eigenvalues --   -0.01968   0.05632   0.07248   0.08094   0.09849
 Alpha virt. eigenvalues --    0.12435   0.13719   0.15424   0.17806   0.19162
 Alpha virt. eigenvalues --    0.20244   0.21437   0.25329   0.26452   0.29106

 Mulliken charges:
               1
     1  C    0.153416
     2  O   -0.353570
     3  C   -0.040579
     4  C   -0.129793
     5  H    0.110982
     6  H    0.080496
     7  H    0.103352
     8  H    0.075696
 Sum of Mulliken charges =   0.00000

 Dipole moment (field-independent basis, Debye):
    X=              3.4744    Y=              0.7921    Z=             -0.0091  Tot=              3.5636
 Quadrupole moment (field-independent basis, Debye-Ang):
   XX=            -27.4534   YY=            -21.7797   ZZ=            -25.1487
   XY=             -1.2674   XZ=              0.2712   YZ=              0.1572

 Normal termination of Gaussian 09 at Wed Aug 26 08:40:57 2020.
