 Gaussian 09, Revision D.01,
 Gaussian 09:  ES64L-G09RevD.01 24-Apr-2013

 --------------------
 #p B2PLYPD3/Def2QZVP
 --------------------

 --------
 acrolein
 --------
 Symbolic Z-matrix:
 Charge =  0 Multiplicity = 1

                         Standard orientation:
 ---------------------------------------------------------------------
 Center     Atomic      Atomic             Coordinates (Angstroms)
 Number     Number       Type             X           Y           Z
 ---------------------------------------------------------------------
      1          6           0        0.656623   -0.316166   -0.059576
      2          8           0        1.821206    0.082125    0.043999
      3          6           0       -0.599344    0.464879   -0.043998
      4          6           0       -1.746994   -0.170604   -0.007396
      5          1           0       -0.493675    1.587608    0.024606
      6          1           0       -1.911918   -1.276748    0.092942
      7          1           0       -2.567091    0.409174    0.179668
      8          1           0        0.541331   -1.245687    0.016609
 ---------------------------------------------------------------------

 SCF Done:  E(RB2PLYPD3) =  -191.582749066     A.U. after   13 cycles
 E2(B2PLYPD3) =    -0.2473922968D+00 E(B2PLYPD3) =    -0.19183014136314D+03

 The electronic state is 1-A.
 Alpha  occ. eigenvalues --  -19.72507 -10.69897 -10.65154 -10.65006  -1.17846
 Alpha  occ. eigenvalues --   -0.93907  -0.77175  -0.68461  -0.57132  -0.56580
 Alpha  occ. eigenvalues --   -0.50424  -0.46638  -0.45742  -0.35178  -0.33794
 Alpha virt. eigenvalues --   -0.01986   0.05677   0.07006   0.07949   0.09556
 Alpha virt. eigenvalues --    0.12931   0.14290   0.15138   0.17567   0.19410
 Alpha virt. eigenvalues --    0.19859   0.22281   0.24696   0.27321   0.28005

 Mulliken charges:
               1
     1  C    0.160678
     2  O   -0.368775
     3  C   -0.039737
     4  C   -0.120256
     5  H    0.097332
     6  H    0.085323
     7  H    0.097735
     8  H    0.087700
 Sum of Mulliken charges =   0.00000

 Dipole moment (field-independent basis, Debye):
    X=             -3.7138    Y=             -0.7536    Z=              0.0873  Tot=              3.7905
 Quadrupole moment (field-independent basis, Debye-Ang):
   XX=            -28.0573   YY=            -21.4355   ZZ=            -24.9901
   XY=             -0.6144   XZ=             -0.8063   YZ=              0.0347

 Normal termination of Gaussian 09 at Wed Aug 26 13:38:54 2020.
