 Gaussian 09, Revision D.01,
 Gaussian 09:  ES64L-G09RevD.01 24-Apr-2013

 --------------------
 #p B2PLYPD3/Def2QZVP
 --------------------

 --------
 acrolein
 --------
 Symbolic Z-matrix:
 Charge =  0 Multiplicity = 1

                         Standard orientation:
 ---------------------------------------------------------------------
 Center     Atomic      Atomic             Coordinates (Angstroms)
 Number     Number       Type             X           Y           Z
 ---------------------------------------------------------------------
      1          6           0       -0.675542    0.357745    0.012367
      2          8           0       -1.772154   -0.133610   -0.020973
      3          6           0        0.548135   -0.443245    0.012964
      4          6           0        1.754416    0.147110   -0.011921
      5          1           0        0.449281   -1.514406    0.050797
      6          1           0        1.782040    1.185029   -0.069322
      7          1           0        2.750349   -0.417165   -0.001114
      8          1           0       -0.566496    1.445758    0.106966
 ---------------------------------------------------------------------

 SCF Done:  E(RB2PLYPD3) =  -191.612547477     A.U. after   12 cycles
 E2(B2PLYPD3) =    -0.2468515374D+00 E(B2PLYPD3) =    -0.19185939901490D+03

 The electronic state is 1-A.
 Alpha  occ. eigenvalues --  -19.72627 -10.71311 -10.65666 -10.64315  -1.20042
 Alpha  occ. eigenvalues --   -0.92787  -0.75085  -0.67419  -0.57111  -0.55857
 Alpha  occ. eigenvalues --   -0.50343  -0.47120  -0.46847  -0.34427  -0.33859
 Alpha virt. eigenvalues --   -0.01676   0.05722   0.07140   0.08201   0.09757
 Alpha virt. eigenvalues --    0.12420   0.14097   0.15392   0.17577   0.19667
 Alpha virt. eigenvalues --    0.20245   0.21171   0.25417   0.26318   0.29205

 Mulliken charges:
               1
     1  C    0.147774
     2  O   -0.344088
     3  C   -0.039910
     4  C   -0.134553
     5  H    0.108682
     6  H    0.086224
     7  H    0.100095
     8  H    0.075776
 Sum of Mulliken charges =   0.00000

 Dipole moment (field-independent basis, Debye):
    X=              3.3948    Y=              0.8185    Z=              0.0819  Tot=              3.4931
 Quadrupole moment (field-independent basis, Debye-Ang):
   XX=            -27.2744   YY=            -21.7644   ZZ=            -25.2237
   XY=             -1.1473   XZ=             -0.1969   YZ=             -0.1066

 Normal termination of Gaussian 09 at Wed Aug 26 13:55:47 2020.
