 Gaussian 09, Revision D.01,
 Gaussian 09:  ES64L-G09RevD.01 24-Apr-2013

 --------------------
 #p B2PLYPD3/Def2QZVP
 --------------------

 --------
 acrolein
 --------
 Symbolic Z-matrix:
 Charge =  0 Multiplicity = 1

                         Standard orientation:
 ---------------------------------------------------------------------
 Center     Atomic      Atomic             Coordinates (Angstroms)
 Number     Number       Type             X           Y           Z
 ---------------------------------------------------------------------
      1          6           0       -0.682679    0.357794    0.019132
      2          8           0       -1.777624   -0.134166   -0.018414
      3          6           0        0.554873   -0.443683   -0.000684
      4          6           0        1.751040    0.139537   -0.008127
      5          1           0        0.460830   -1.506823    0.067507
      6          1           0        1.813912    1.201856   -0.047312
      7          1           0        2.700718   -0.436756   -0.002792
      8          1           0       -0.493875    1.493160    0.067984
 ---------------------------------------------------------------------

 SCF Done:  E(RB2PLYPD3) =  -191.614735955     A.U. after   12 cycles
 E2(B2PLYPD3) =    -0.2470413793D+00 E(B2PLYPD3) =    -0.19186177733395D+03

 The electronic state is 1-A.
 Alpha  occ. eigenvalues --  -19.73067 -10.72076 -10.65346 -10.64081  -1.20308
 Alpha  occ. eigenvalues --   -0.92899  -0.74934  -0.66720  -0.56394  -0.56312
 Alpha  occ. eigenvalues --   -0.50652  -0.47300  -0.46794  -0.34688  -0.33848
 Alpha virt. eigenvalues --   -0.01518   0.05772   0.07075   0.08190   0.09798
 Alpha virt. eigenvalues --    0.12510   0.13821   0.15336   0.17567   0.19782
 Alpha virt. eigenvalues --    0.20043   0.21396   0.25474   0.26420   0.28774

 Mulliken charges:
               1
     1  C    0.155641
     2  O   -0.337928
     3  C   -0.037618
     4  C   -0.132579
     5  H    0.105709
     6  H    0.083479
     7  H    0.100617
     8  H    0.062680
 Sum of Mulliken charges =   0.00000

 Dipole moment (field-independent basis, Debye):
    X=              3.3613    Y=              0.7440    Z=              0.1018  Tot=              3.4441
 Quadrupole moment (field-independent basis, Debye-Ang):
   XX=            -27.3019   YY=            -21.8625   ZZ=            -25.2325
   XY=             -1.0113   XZ=             -0.1251   YZ=             -0.1290

 Normal termination of Gaussian 09 at Wed Aug 26 15:10:48 2020.
