 Gaussian 09, Revision D.01,
 Gaussian 09:  ES64L-G09RevD.01 24-Apr-2013

 --------------------
 #p B2PLYPD3/Def2QZVP
 --------------------

 --------
 acrolein
 --------
 Symbolic Z-matrix:
 Charge =  0 Multiplicity = 1

                         Standard orientation:
 ---------------------------------------------------------------------
 Center     Atomic      Atomic             Coordinates (Angstroms)
 Number     Number       Type             X           Y           Z
 ---------------------------------------------------------------------
      1          6           0       -0.674214    0.316754    0.088970
      2          8           0       -1.794566   -0.082728   -0.080282
      3          6           0        0.576881   -0.507032    0.014598
      4          6           0        1.735664    0.197216   -0.032243
      5          1           0        0.393266   -1.609081    0.178544
      6          1           0        1.860086    1.304365   -0.168050
      7          1           0        2.803571   -0.452326   -0.047072
      8          1           0       -0.530383    1.377239    0.250892
 ---------------------------------------------------------------------

 SCF Done:  E(RB2PLYPD3) =  -191.591354639     A.U. after   13 cycles
 E2(B2PLYPD3) =    -0.2489201447D+00 E(B2PLYPD3) =    -0.19184027478406D+03

 The electronic state is 1-A.
 Alpha  occ. eigenvalues --  -19.72677 -10.71221 -10.67974 -10.65860  -1.19961
 Alpha  occ. eigenvalues --   -0.91874  -0.73675  -0.66678  -0.56318  -0.54711
 Alpha  occ. eigenvalues --   -0.50625  -0.46524  -0.45148  -0.34515  -0.33382
 Alpha virt. eigenvalues --   -0.01570   0.05162   0.06474   0.07679   0.09446
 Alpha virt. eigenvalues --    0.11975   0.13890   0.15024   0.17474   0.19024
 Alpha virt. eigenvalues --    0.20076   0.20601   0.24267   0.26848   0.28491

 Mulliken charges:
               1
     1  C    0.157347
     2  O   -0.341926
     3  C   -0.043554
     4  C   -0.133071
     5  H    0.110137
     6  H    0.101920
     7  H    0.081471
     8  H    0.067677
 Sum of Mulliken charges =   0.00000

 Dipole moment (field-independent basis, Debye):
    X=              3.3312    Y=              0.6932    Z=              0.3486  Tot=              3.4204
 Quadrupole moment (field-independent basis, Debye-Ang):
   XX=            -28.0711   YY=            -21.4831   ZZ=            -25.5218
   XY=             -0.3421   XZ=             -0.7227   YZ=             -0.4282

 Normal termination of Gaussian 09 at Wed Aug 26 11:52:57 2020.
