 Gaussian 09, Revision D.01,
 Gaussian 09:  ES64L-G09RevD.01 24-Apr-2013

 --------------------
 #p B2PLYPD3/Def2QZVP
 --------------------

 --------
 acrolein
 --------
 Symbolic Z-matrix:
 Charge =  0 Multiplicity = 1

                         Standard orientation:
 ---------------------------------------------------------------------
 Center     Atomic      Atomic             Coordinates (Angstroms)
 Number     Number       Type             X           Y           Z
 ---------------------------------------------------------------------
      1          6           0        0.669577    0.357478    0.031743
      2          8           0        1.790440   -0.131557   -0.024928
      3          6           0       -0.562689   -0.438622    0.021675
      4          6           0       -1.756510    0.142134   -0.023062
      5          1           0       -0.461759   -1.510753    0.024621
      6          1           0       -1.784494    1.183100   -0.012247
      7          1           0       -2.694512   -0.422701   -0.014529
      8          1           0        0.514981    1.436872    0.019442
 ---------------------------------------------------------------------

 SCF Done:  E(RB2PLYPD3) =  -191.614597687     A.U. after   12 cycles
 E2(B2PLYPD3) =    -0.2474552793D+00 E(B2PLYPD3) =    -0.19186205296592D+03

 The electronic state is 1-A.
 Alpha  occ. eigenvalues --  -19.72873 -10.71680 -10.65079 -10.64192  -1.18752
 Alpha  occ. eigenvalues --   -0.93364  -0.75693  -0.67522  -0.56911  -0.56303
 Alpha  occ. eigenvalues --   -0.50480  -0.47070  -0.46405  -0.34718  -0.34016
 Alpha virt. eigenvalues --   -0.01917   0.05772   0.07179   0.08072   0.09804
 Alpha virt. eigenvalues --    0.12611   0.13990   0.15343   0.17514   0.19918
 Alpha virt. eigenvalues --    0.20057   0.21539   0.25514   0.26411   0.29061

 Mulliken charges:
               1
     1  C    0.149697
     2  O   -0.355205
     3  C   -0.030509
     4  C   -0.134094
     5  H    0.104676
     6  H    0.083927
     7  H    0.103996
     8  H    0.077512
 Sum of Mulliken charges =   0.00000

 Dipole moment (field-independent basis, Debye):
    X=             -3.5304    Y=              0.8227    Z=              0.0976  Tot=              3.6263
 Quadrupole moment (field-independent basis, Debye-Ang):
   XX=            -27.4947   YY=            -21.7365   ZZ=            -25.1719
   XY=              1.1166   XZ=              0.1547   YZ=             -0.0192

 Normal termination of Gaussian 09 at Wed Aug 26 18:54:47 2020.
