 Gaussian 09, Revision D.01,
 Gaussian 09:  ES64L-G09RevD.01 24-Apr-2013

 --------------------
 #p B2PLYPD3/Def2QZVP
 --------------------

 --------
 acrolein
 --------
 Symbolic Z-matrix:
 Charge =  0 Multiplicity = 1

                         Standard orientation:
 ---------------------------------------------------------------------
 Center     Atomic      Atomic             Coordinates (Angstroms)
 Number     Number       Type             X           Y           Z
 ---------------------------------------------------------------------
      1          6           0        0.677719    0.339313   -0.046621
      2          8           0        1.784891   -0.102929    0.032907
      3          6           0       -0.562738   -0.477492   -0.005971
      4          6           0       -1.745331    0.163814    0.000431
      5          1           0       -0.422806   -1.551391   -0.030714
      6          1           0       -1.873129    1.211921    0.124100
      7          1           0       -2.694440   -0.410800    0.017235
      8          1           0        0.493342    1.419894   -0.060911
 ---------------------------------------------------------------------

 SCF Done:  E(RB2PLYPD3) =  -191.614042612     A.U. after   12 cycles
 E2(B2PLYPD3) =    -0.2466920646D+00 E(B2PLYPD3) =    -0.19186073467696D+03

 The electronic state is 1-A.
 Alpha  occ. eigenvalues --  -19.72749 -10.71236 -10.65656 -10.64722  -1.20417
 Alpha  occ. eigenvalues --   -0.92497  -0.75039  -0.67237  -0.56814  -0.55913
 Alpha  occ. eigenvalues --   -0.50724  -0.47201  -0.47045  -0.34509  -0.33574
 Alpha virt. eigenvalues --   -0.01535   0.05756   0.07270   0.08013   0.09704
 Alpha virt. eigenvalues --    0.12663   0.14106   0.15312   0.17450   0.19801
 Alpha virt. eigenvalues --    0.20077   0.21529   0.25027   0.26623   0.28263

 Mulliken charges:
               1
     1  C    0.158651
     2  O   -0.340790
     3  C   -0.044681
     4  C   -0.132655
     5  H    0.108017
     6  H    0.091552
     7  H    0.092536
     8  H    0.067370
 Sum of Mulliken charges =   0.00000

 Dipole moment (field-independent basis, Debye):
    X=             -3.3843    Y=              0.7114    Z=             -0.0524  Tot=              3.4587
 Quadrupole moment (field-independent basis, Debye-Ang):
   XX=            -27.4719   YY=            -21.6885   ZZ=            -25.2247
   XY=              0.5771   XZ=             -0.3933   YZ=              0.1786

 Normal termination of Gaussian 09 at Wed Aug 26 09:30:53 2020.
