 Gaussian 09, Revision D.01,
 Gaussian 09:  ES64L-G09RevD.01 24-Apr-2013

 --------------------
 #p B2PLYPD3/Def2QZVP
 --------------------

 --------
 acrolein
 --------
 Symbolic Z-matrix:
 Charge =  0 Multiplicity = 1

                         Standard orientation:
 ---------------------------------------------------------------------
 Center     Atomic      Atomic             Coordinates (Angstroms)
 Number     Number       Type             X           Y           Z
 ---------------------------------------------------------------------
      1          6           0       -0.683914    0.347897    0.031015
      2          8           0       -1.785287   -0.107909   -0.031841
      3          6           0        0.562148   -0.453972    0.046027
      4          6           0        1.770356    0.148491   -0.015427
      5          1           0        0.396861   -1.584064   -0.029000
      6          1           0        1.864612    1.202464   -0.066639
      7          1           0        2.656808   -0.392775   -0.060704
      8          1           0       -0.527523    1.383156    0.041380
 ---------------------------------------------------------------------

 SCF Done:  E(RB2PLYPD3) =  -191.610407280     A.U. after   12 cycles
 E2(B2PLYPD3) =    -0.2463120807D+00 E(B2PLYPD3) =    -0.19185671936027D+03

 The electronic state is 1-A.
 Alpha  occ. eigenvalues --  -19.72692 -10.70757 -10.65197 -10.65004  -1.20489
 Alpha  occ. eigenvalues --   -0.92350  -0.76034  -0.67277  -0.56997  -0.56426
 Alpha  occ. eigenvalues --   -0.51052  -0.47215  -0.46680  -0.34383  -0.33752
 Alpha virt. eigenvalues --   -0.01682   0.05872   0.07252   0.08269   0.09706
 Alpha virt. eigenvalues --    0.12750   0.14131   0.15466   0.17299   0.19727
 Alpha virt. eigenvalues --    0.20023   0.21982   0.25224   0.26703   0.28550

 Mulliken charges:
               1
     1  C    0.160952
     2  O   -0.342761
     3  C   -0.045860
     4  C   -0.134940
     5  H    0.098570
     6  H    0.084515
     7  H    0.104924
     8  H    0.074599
 Sum of Mulliken charges =   0.00000

 Dipole moment (field-independent basis, Debye):
    X=              3.3875    Y=              0.8075    Z=             -0.0192  Tot=              3.4825
 Quadrupole moment (field-independent basis, Debye-Ang):
   XX=            -27.2809   YY=            -21.7220   ZZ=            -25.1899
   XY=             -0.7174   XZ=             -0.4458   YZ=              0.0353

 Normal termination of Gaussian 09 at Wed Aug 26 20:19:08 2020.
