 Gaussian 09, Revision D.01,
 Gaussian 09:  ES64L-G09RevD.01 24-Apr-2013

 --------------------
 #p B2PLYPD3/Def2QZVP
 --------------------

 --------
 acrolein
 --------
 Symbolic Z-matrix:
 Charge =  0 Multiplicity = 1

                         Standard orientation:
 ---------------------------------------------------------------------
 Center     Atomic      Atomic             Coordinates (Angstroms)
 Number     Number       Type             X           Y           Z
 ---------------------------------------------------------------------
      1          6           0        0.671895    0.346833   -0.017357
      2          8           0        1.795501   -0.111822    0.031296
      3          6           0       -0.577334   -0.457776   -0.043153
      4          6           0       -1.762367    0.149741    0.002837
      5          1           0       -0.385454   -1.576733   -0.051402
      6          1           0       -1.851692    1.218180   -0.010053
      7          1           0       -2.685905   -0.392464    0.192628
      8          1           0        0.565875    1.412803   -0.035505
 ---------------------------------------------------------------------

 SCF Done:  E(RB2PLYPD3) =  -191.612037891     A.U. after   13 cycles
 E2(B2PLYPD3) =    -0.2473935803D+00 E(B2PLYPD3) =    -0.19185943147140D+03

 The electronic state is 1-A.
 Alpha  occ. eigenvalues --  -19.72701 -10.71289 -10.65536 -10.65237  -1.19216
 Alpha  occ. eigenvalues --   -0.92748  -0.75393  -0.66991  -0.56798  -0.56051
 Alpha  occ. eigenvalues --   -0.50566  -0.46807  -0.46204  -0.34717  -0.33696
 Alpha virt. eigenvalues --   -0.01756   0.05743   0.07123   0.08015   0.09682
 Alpha virt. eigenvalues --    0.12493   0.14104   0.15338   0.17184   0.19682
 Alpha virt. eigenvalues --    0.19849   0.21763   0.25138   0.26613   0.28703

 Mulliken charges:
               1
     1  C    0.158981
     2  O   -0.353297
     3  C   -0.043375
     4  C   -0.127847
     5  H    0.103691
     6  H    0.086454
     7  H    0.101364
     8  H    0.074031
 Sum of Mulliken charges =   0.00000

 Dipole moment (field-independent basis, Debye):
    X=             -3.4757    Y=              0.8038    Z=              0.0113  Tot=              3.5675
 Quadrupole moment (field-independent basis, Debye-Ang):
   XX=            -27.5583   YY=            -21.6892   ZZ=            -25.2282
   XY=              0.7479   XZ=             -0.6072   YZ=             -0.0669

 Normal termination of Gaussian 09 at Wed Aug 26 09:27:49 2020.
