 Gaussian 09, Revision D.01,
 Gaussian 09:  ES64L-G09RevD.01 24-Apr-2013

 --------------------
 #p B2PLYPD3/Def2QZVP
 --------------------

 --------
 acrolein
 --------
 Symbolic Z-matrix:
 Charge =  0 Multiplicity = 1

                         Standard orientation:
 ---------------------------------------------------------------------
 Center     Atomic      Atomic             Coordinates (Angstroms)
 Number     Number       Type             X           Y           Z
 ---------------------------------------------------------------------
      1          6           0        0.664188    0.372125   -0.015588
      2          8           0        1.768807   -0.139623   -0.000875
      3          6           0       -0.552719   -0.432621    0.048476
      4          6           0       -1.734344    0.101318   -0.031644
      5          1           0       -0.418567   -1.457681   -0.015947
      6          1           0       -1.926734    1.258779    0.158447
      7          1           0       -2.655612   -0.400259   -0.088984
      8          1           0        0.587708    1.471214   -0.053983
 ---------------------------------------------------------------------

 SCF Done:  E(RB2PLYPD3) =  -191.604062316     A.U. after   13 cycles
 E2(B2PLYPD3) =    -0.2468957851D+00 E(B2PLYPD3) =    -0.19185095810087D+03

 The electronic state is 1-A.
 Alpha  occ. eigenvalues --  -19.72631 -10.71495 -10.65557 -10.63537  -1.19152
 Alpha  occ. eigenvalues --   -0.93657  -0.75405  -0.67281  -0.57546  -0.56172
 Alpha  occ. eigenvalues --   -0.50849  -0.46717  -0.45218  -0.35110  -0.33893
 Alpha virt. eigenvalues --   -0.01549   0.05563   0.07396   0.07935   0.09663
 Alpha virt. eigenvalues --    0.12191   0.14264   0.15230   0.17722   0.19540
 Alpha virt. eigenvalues --    0.19944   0.21710   0.24702   0.26596   0.28699

 Mulliken charges:
               1
     1  C    0.159676
     2  O   -0.353309
     3  C   -0.054006
     4  C   -0.110797
     5  H    0.114711
     6  H    0.064414
     7  H    0.096930
     8  H    0.082381
 Sum of Mulliken charges =   0.00000

 Dipole moment (field-independent basis, Debye):
    X=             -3.4558    Y=              0.8016    Z=             -0.0076  Tot=              3.5475
 Quadrupole moment (field-independent basis, Debye-Ang):
   XX=            -27.2279   YY=            -21.8309   ZZ=            -25.0615
   XY=              1.1306   XZ=             -0.0068   YZ=              0.2588

 Normal termination of Gaussian 09 at Wed Aug 26 13:35:37 2020.
