 Gaussian 09, Revision D.01,
 Gaussian 09:  ES64L-G09RevD.01 24-Apr-2013

 --------------------
 #p B2PLYPD3/Def2QZVP
 --------------------

 --------
 acrolein
 --------
 Symbolic Z-matrix:
 Charge =  0 Multiplicity = 1

                         Standard orientation:
 ---------------------------------------------------------------------
 Center     Atomic      Atomic             Coordinates (Angstroms)
 Number     Number       Type             X           Y           Z
 ---------------------------------------------------------------------
      1          6           0       -0.735354    0.401118    0.074555
      2          8           0       -1.759363   -0.165671   -0.049250
      3          6           0        0.567453   -0.447013    0.025449
      4          6           0        1.749316    0.137753   -0.039271
      5          1           0        0.494344   -1.430606    0.047529
      6          1           0        1.876540    1.181349   -0.081794
      7          1           0        2.740661   -0.446475    0.038222
      8          1           0       -0.525131    1.469956    0.025644
 ---------------------------------------------------------------------

 SCF Done:  E(RB2PLYPD3) =  -191.597867882     A.U. after   12 cycles
 E2(B2PLYPD3) =    -0.2453979124D+00 E(B2PLYPD3) =    -0.19184326579469D+03

 The electronic state is 1-A.
 Alpha  occ. eigenvalues --  -19.73517 -10.72088 -10.64449 -10.62828  -1.22172
 Alpha  occ. eigenvalues --   -0.91855  -0.73748  -0.68499  -0.57003  -0.55948
 Alpha  occ. eigenvalues --   -0.51655  -0.48004  -0.46529  -0.34538  -0.33325
 Alpha virt. eigenvalues --   -0.00485   0.05792   0.07550   0.07763   0.09771
 Alpha virt. eigenvalues --    0.12431   0.13883   0.15615   0.18424   0.19664
 Alpha virt. eigenvalues --    0.19729   0.21259   0.25725   0.26571   0.28043

 Mulliken charges:
               1
     1  C    0.160346
     2  O   -0.315376
     3  C   -0.079179
     4  C   -0.133862
     5  H    0.117729
     6  H    0.076076
     7  H    0.082624
     8  H    0.091642
 Sum of Mulliken charges =   0.00000

 Dipole moment (field-independent basis, Debye):
    X=              2.7982    Y=              1.0058    Z=              0.2178  Tot=              2.9815
 Quadrupole moment (field-independent basis, Debye-Ang):
   XX=            -27.2936   YY=            -21.6647   ZZ=            -25.1423
   XY=             -1.1278   XZ=             -0.2270   YZ=             -0.1502

 Normal termination of Gaussian 09 at Wed Aug 26 12:59:18 2020.
