 Gaussian 09, Revision D.01,
 Gaussian 09:  ES64L-G09RevD.01 24-Apr-2013

 --------------------
 #p B2PLYPD3/Def2QZVP
 --------------------

 --------
 acrolein
 --------
 Symbolic Z-matrix:
 Charge =  0 Multiplicity = 1

                         Standard orientation:
 ---------------------------------------------------------------------
 Center     Atomic      Atomic             Coordinates (Angstroms)
 Number     Number       Type             X           Y           Z
 ---------------------------------------------------------------------
      1          6           0        0.673867    0.353706    0.020566
      2          8           0        1.783766   -0.134026   -0.023399
      3          6           0       -0.559376   -0.438368    0.041323
      4          6           0       -1.750019    0.143214   -0.018403
      5          1           0       -0.470921   -1.485160   -0.020819
      6          1           0       -1.801728    1.191218   -0.021411
      7          1           0       -2.712459   -0.439985   -0.050752
      8          1           0        0.528146    1.454825    0.019260
 ---------------------------------------------------------------------

 SCF Done:  E(RB2PLYPD3) =  -191.614094324     A.U. after   12 cycles
 E2(B2PLYPD3) =    -0.2470347652D+00 E(B2PLYPD3) =    -0.19186112908924D+03

 The electronic state is 1-A.
 Alpha  occ. eigenvalues --  -19.72839 -10.71689 -10.65401 -10.63880  -1.19419
 Alpha  occ. eigenvalues --   -0.93318  -0.75267  -0.67500  -0.56883  -0.56126
 Alpha  occ. eigenvalues --   -0.50444  -0.47110  -0.46735  -0.34781  -0.33907
 Alpha virt. eigenvalues --   -0.01710   0.05722   0.07191   0.08181   0.09792
 Alpha virt. eigenvalues --    0.12506   0.13855   0.15338   0.17747   0.19873
 Alpha virt. eigenvalues --    0.20007   0.21343   0.25437   0.26369   0.28962

 Mulliken charges:
               1
     1  C    0.149746
     2  O   -0.349086
     3  C   -0.034819
     4  C   -0.130394
     5  H    0.108056
     6  H    0.084950
     7  H    0.099692
     8  H    0.071855
 Sum of Mulliken charges =   0.00000

 Dipole moment (field-independent basis, Debye):
    X=             -3.4716    Y=              0.7964    Z=             -0.0013  Tot=              3.5618
 Quadrupole moment (field-independent basis, Debye-Ang):
   XX=            -27.3985   YY=            -21.7949   ZZ=            -25.1680
   XY=              1.1126   XZ=              0.2898   YZ=              0.0626

 Normal termination of Gaussian 09 at Wed Aug 26 19:09:08 2020.
