 Gaussian 09, Revision D.01,
 Gaussian 09:  ES64L-G09RevD.01 24-Apr-2013

 --------------------
 #p B2PLYPD3/Def2QZVP
 --------------------

 --------
 acrolein
 --------
 Symbolic Z-matrix:
 Charge =  0 Multiplicity = 1

                         Standard orientation:
 ---------------------------------------------------------------------
 Center     Atomic      Atomic             Coordinates (Angstroms)
 Number     Number       Type             X           Y           Z
 ---------------------------------------------------------------------
      1          6           0        0.669397    0.336882    0.006887
      2          8           0        1.799751   -0.104653   -0.017270
      3          6           0       -0.560516   -0.462389    0.011096
      4          6           0       -1.758639    0.139636   -0.006675
      5          1           0       -0.460127   -1.537750    0.045253
      6          1           0       -1.870884    1.268753   -0.060077
      7          1           0       -2.643827   -0.401594   -0.017897
      8          1           0        0.475378    1.423042    0.103034
 ---------------------------------------------------------------------

 SCF Done:  E(RB2PLYPD3) =  -191.613296380     A.U. after   12 cycles
 E2(B2PLYPD3) =    -0.2475932555D+00 E(B2PLYPD3) =    -0.19186088963524D+03

 The electronic state is 1-A.
 Alpha  occ. eigenvalues --  -19.72854 -10.71599 -10.65800 -10.64610  -1.19292
 Alpha  occ. eigenvalues --   -0.92972  -0.75819  -0.66779  -0.56906  -0.55913
 Alpha  occ. eigenvalues --   -0.50726  -0.46933  -0.46556  -0.34666  -0.33825
 Alpha virt. eigenvalues --   -0.01968   0.05687   0.07157   0.08149   0.09642
 Alpha virt. eigenvalues --    0.12581   0.14098   0.15317   0.17492   0.19431
 Alpha virt. eigenvalues --    0.20069   0.21682   0.25205   0.26644   0.28588

 Mulliken charges:
               1
     1  C    0.159530
     2  O   -0.349590
     3  C   -0.040479
     4  C   -0.127370
     5  H    0.104050
     6  H    0.080791
     7  H    0.104923
     8  H    0.068146
 Sum of Mulliken charges =   0.00000

 Dipole moment (field-independent basis, Debye):
    X=             -3.5834    Y=              0.6741    Z=              0.0562  Tot=              3.6466
 Quadrupole moment (field-independent basis, Debye-Ang):
   XX=            -27.4504   YY=            -21.7645   ZZ=            -25.2428
   XY=              0.7544   XZ=              0.2070   YZ=             -0.0870

 Normal termination of Gaussian 09 at Wed Aug 26 15:36:36 2020.
