 Gaussian 09, Revision D.01,
 Gaussian 09:  ES64L-G09RevD.01 24-Apr-2013

 --------------------
 #p B2PLYPD3/Def2QZVP
 --------------------

 --------
 acrolein
 --------
 Symbolic Z-matrix:
 Charge =  0 Multiplicity = 1

                         Standard orientation:
 ---------------------------------------------------------------------
 Center     Atomic      Atomic             Coordinates (Angstroms)
 Number     Number       Type             X           Y           Z
 ---------------------------------------------------------------------
      1          6           0        0.669456    0.342167   -0.007921
      2          8           0        1.793858   -0.110494    0.009041
      3          6           0       -0.569577   -0.460157   -0.003594
      4          6           0       -1.758139    0.141552   -0.006149
      5          1           0       -0.433650   -1.526228   -0.023825
      6          1           0       -1.881040    1.240159    0.021743
      7          1           0       -2.618456   -0.398624    0.051904
      8          1           0        0.531844    1.427270   -0.016173
 ---------------------------------------------------------------------

 SCF Done:  E(RB2PLYPD3) =  -191.613702337     A.U. after   12 cycles
 E2(B2PLYPD3) =    -0.2467890922D+00 E(B2PLYPD3) =    -0.19186049142964D+03

 The electronic state is 1-A.
 Alpha  occ. eigenvalues --  -19.72710 -10.71367 -10.65056 -10.64483  -1.19334
 Alpha  occ. eigenvalues --   -0.93089  -0.75922  -0.67135  -0.57053  -0.56395
 Alpha  occ. eigenvalues --   -0.50752  -0.47236  -0.46597  -0.34749  -0.33725
 Alpha virt. eigenvalues --   -0.01733   0.05789   0.07326   0.08172   0.09690
 Alpha virt. eigenvalues --    0.12645   0.14137   0.15341   0.17477   0.19685
 Alpha virt. eigenvalues --    0.19962   0.21994   0.25382   0.26495   0.28568

 Mulliken charges:
               1
     1  C    0.157812
     2  O   -0.350990
     3  C   -0.044389
     4  C   -0.126794
     5  H    0.106180
     6  H    0.083929
     7  H    0.102897
     8  H    0.071356
 Sum of Mulliken charges =   0.00000

 Dipole moment (field-independent basis, Debye):
    X=             -3.5270    Y=              0.7279    Z=              0.0072  Tot=              3.6013
 Quadrupole moment (field-independent basis, Debye-Ang):
   XX=            -27.4552   YY=            -21.6743   ZZ=            -25.1531
   XY=              0.7806   XZ=             -0.1978   YZ=              0.0297

 Normal termination of Gaussian 09 at Wed Aug 26 18:53:39 2020.
