 Gaussian 09, Revision D.01,
 Gaussian 09:  ES64L-G09RevD.01 24-Apr-2013

 --------------------
 #p B2PLYPD3/Def2QZVP
 --------------------

 --------
 acrolein
 --------
 Symbolic Z-matrix:
 Charge =  0 Multiplicity = 1

                         Standard orientation:
 ---------------------------------------------------------------------
 Center     Atomic      Atomic             Coordinates (Angstroms)
 Number     Number       Type             X           Y           Z
 ---------------------------------------------------------------------
      1          6           0        0.671977    0.341823   -0.005192
      2          8           0        1.794765   -0.110837    0.006765
      3          6           0       -0.562891   -0.468090   -0.023823
      4          6           0       -1.755029    0.156794    0.000231
      5          1           0       -0.463035   -1.547598    0.042867
      6          1           0       -1.839552    1.233750    0.005663
      7          1           0       -2.708697   -0.401029    0.049732
      8          1           0        0.528818    1.418413    0.020320
 ---------------------------------------------------------------------

 SCF Done:  E(RB2PLYPD3) =  -191.615700721     A.U. after   12 cycles
 E2(B2PLYPD3) =    -0.2473608535D+00 E(B2PLYPD3) =    -0.19186306157442D+03

 The electronic state is 1-A.
 Alpha  occ. eigenvalues --  -19.72665 -10.71379 -10.65937 -10.64801  -1.19417
 Alpha  occ. eigenvalues --   -0.92646  -0.75165  -0.67277  -0.56643  -0.56034
 Alpha  occ. eigenvalues --   -0.50364  -0.47089  -0.46600  -0.34506  -0.33775
 Alpha virt. eigenvalues --   -0.01792   0.05700   0.07143   0.08037   0.09649
 Alpha virt. eigenvalues --    0.12546   0.14106   0.15334   0.17537   0.19827
 Alpha virt. eigenvalues --    0.19982   0.21349   0.25182   0.26475   0.28794

 Mulliken charges:
               1
     1  C    0.152964
     2  O   -0.349109
     3  C   -0.041532
     4  C   -0.130493
     5  H    0.107644
     6  H    0.087247
     7  H    0.098625
     8  H    0.074654
 Sum of Mulliken charges =   0.00000

 Dipole moment (field-independent basis, Debye):
    X=             -3.5195    Y=              0.7586    Z=              0.0748  Tot=              3.6011
 Quadrupole moment (field-independent basis, Debye-Ang):
   XX=            -27.5041   YY=            -21.6578   ZZ=            -25.2801
   XY=              0.8427   XZ=             -0.1944   YZ=             -0.0872

 Normal termination of Gaussian 09 at Wed Aug 26 19:53:33 2020.
