 Gaussian 09, Revision D.01,
 Gaussian 09:  ES64L-G09RevD.01 24-Apr-2013

 --------------------
 #p B2PLYPD3/Def2QZVP
 --------------------

 --------
 acrolein
 --------
 Symbolic Z-matrix:
 Charge =  0 Multiplicity = 1

                         Standard orientation:
 ---------------------------------------------------------------------
 Center     Atomic      Atomic             Coordinates (Angstroms)
 Number     Number       Type             X           Y           Z
 ---------------------------------------------------------------------
      1          6           0       -0.673519    0.326797    0.015245
      2          8           0       -1.800637   -0.100104   -0.026072
      3          6           0        0.552864   -0.462167    0.024447
      4          6           0        1.752188    0.151422   -0.009385
      5          1           0        0.472138   -1.530174    0.021976
      6          1           0        1.917961    1.254770   -0.097609
      7          1           0        2.732593   -0.422221   -0.020890
      8          1           0       -0.506789    1.402145    0.123261
 ---------------------------------------------------------------------

 SCF Done:  E(RB2PLYPD3) =  -191.612057954     A.U. after   13 cycles
 E2(B2PLYPD3) =    -0.2475402647D+00 E(B2PLYPD3) =    -0.19185959821875D+03

 The electronic state is 1-A.
 Alpha  occ. eigenvalues --  -19.72671 -10.71224 -10.66839 -10.64692  -1.19686
 Alpha  occ. eigenvalues --   -0.92767  -0.75245  -0.67090  -0.56723  -0.55797
 Alpha  occ. eigenvalues --   -0.50446  -0.46853  -0.46416  -0.34595  -0.33743
 Alpha virt. eigenvalues --   -0.02018   0.05506   0.07166   0.08269   0.09529
 Alpha virt. eigenvalues --    0.12425   0.14130   0.15356   0.17736   0.19359
 Alpha virt. eigenvalues --    0.20091   0.21136   0.25141   0.26483   0.28395

 Mulliken charges:
               1
     1  C    0.155494
     2  O   -0.347117
     3  C   -0.040123
     4  C   -0.124152
     5  H    0.107819
     6  H    0.086356
     7  H    0.093345
     8  H    0.068379
 Sum of Mulliken charges =   0.00000

 Dipole moment (field-independent basis, Debye):
    X=              3.5927    Y=              0.6860    Z=              0.0345  Tot=              3.6578
 Quadrupole moment (field-independent basis, Debye-Ang):
   XX=            -27.3331   YY=            -21.8266   ZZ=            -25.2891
   XY=             -0.6420   XZ=             -0.3477   YZ=             -0.0898

 Normal termination of Gaussian 09 at Wed Aug 26 09:17:59 2020.
