 Gaussian 09, Revision D.01,
 Gaussian 09:  ES64L-G09RevD.01 24-Apr-2013

 --------------------
 #p B2PLYPD3/Def2QZVP
 --------------------

 --------
 acrolein
 --------
 Symbolic Z-matrix:
 Charge =  0 Multiplicity = 1

                         Standard orientation:
 ---------------------------------------------------------------------
 Center     Atomic      Atomic             Coordinates (Angstroms)
 Number     Number       Type             X           Y           Z
 ---------------------------------------------------------------------
      1          6           0       -0.678439    0.334154    0.045039
      2          8           0       -1.781567   -0.111113   -0.033903
      3          6           0        0.550881   -0.466330    0.045811
      4          6           0        1.754175    0.165813   -0.036493
      5          1           0        0.472839   -1.542685   -0.019100
      6          1           0        1.808263    1.236027    0.019230
      7          1           0        2.741291   -0.430055   -0.037327
      8          1           0       -0.529550    1.423797   -0.017727
 ---------------------------------------------------------------------

 SCF Done:  E(RB2PLYPD3) =  -191.611115054     A.U. after   13 cycles
 E2(B2PLYPD3) =    -0.2472280215D+00 E(B2PLYPD3) =    -0.19185834307553D+03

 The electronic state is 1-A.
 Alpha  occ. eigenvalues --  -19.72624 -10.71198 -10.66489 -10.64759  -1.20581
 Alpha  occ. eigenvalues --   -0.92334  -0.74771  -0.67108  -0.56764  -0.55717
 Alpha  occ. eigenvalues --   -0.50055  -0.47354  -0.47104  -0.34360  -0.33603
 Alpha virt. eigenvalues --   -0.01815   0.05660   0.07080   0.08119   0.09714
 Alpha virt. eigenvalues --    0.12472   0.13959   0.15333   0.17693   0.19782
 Alpha virt. eigenvalues --    0.20037   0.21076   0.24865   0.26536   0.28842

 Mulliken charges:
               1
     1  C    0.151372
     2  O   -0.337428
     3  C   -0.040255
     4  C   -0.133750
     5  H    0.107742
     6  H    0.090373
     7  H    0.097444
     8  H    0.064503
 Sum of Mulliken charges =   0.00000

 Dipole moment (field-independent basis, Debye):
    X=              3.4090    Y=              0.7019    Z=              0.0858  Tot=              3.4815
 Quadrupole moment (field-independent basis, Debye-Ang):
   XX=            -27.3855   YY=            -21.7461   ZZ=            -25.3289
   XY=             -0.9334   XZ=             -0.2301   YZ=              0.0845

 Normal termination of Gaussian 09 at Wed Aug 26 10:14:23 2020.
