 Gaussian 09, Revision D.01,
 Gaussian 09:  ES64L-G09RevD.01 24-Apr-2013

 --------------------
 #p B2PLYPD3/Def2QZVP
 --------------------

 --------
 acrolein
 --------
 Symbolic Z-matrix:
 Charge =  0 Multiplicity = 1

                         Standard orientation:
 ---------------------------------------------------------------------
 Center     Atomic      Atomic             Coordinates (Angstroms)
 Number     Number       Type             X           Y           Z
 ---------------------------------------------------------------------
      1          6           0        0.667038    0.369714    0.015118
      2          8           0        1.795403   -0.133503   -0.053846
      3          6           0       -0.607341   -0.475561    0.109315
      4          6           0       -1.708604    0.156288   -0.074323
      5          1           0       -0.557928   -1.550505    0.079638
      6          1           0       -1.881140    1.259919    0.106235
      7          1           0       -2.596788   -0.383938   -0.197658
      8          1           0        0.566079    1.439905    0.141890
 ---------------------------------------------------------------------

 SCF Done:  E(RB2PLYPD3) =  -191.600058665     A.U. after   14 cycles
 E2(B2PLYPD3) =    -0.2479197534D+00 E(B2PLYPD3) =    -0.19184797841825D+03

 The electronic state is 1-A.
 Alpha  occ. eigenvalues --  -19.72865 -10.72274 -10.64401 -10.64170  -1.17883
 Alpha  occ. eigenvalues --   -0.93769  -0.74489  -0.67227  -0.56760  -0.56043
 Alpha  occ. eigenvalues --   -0.50623  -0.46510  -0.45386  -0.35314  -0.33616
 Alpha virt. eigenvalues --   -0.01001   0.05741   0.06519   0.07452   0.09570
 Alpha virt. eigenvalues --    0.12494   0.14121   0.15320   0.17386   0.19800
 Alpha virt. eigenvalues --    0.20072   0.21661   0.24032   0.26285   0.27412

 Mulliken charges:
               1
     1  C    0.160945
     2  O   -0.356651
     3  C   -0.062227
     4  C   -0.109724
     5  H    0.108453
     6  H    0.079079
     7  H    0.085948
     8  H    0.094178
 Sum of Mulliken charges =   0.00000

 Dipole moment (field-independent basis, Debye):
    X=             -3.4811    Y=              0.8622    Z=              0.1954  Tot=              3.5916
 Quadrupole moment (field-independent basis, Debye-Ang):
   XX=            -27.9504   YY=            -21.3757   ZZ=            -25.1031
   XY=              1.0996   XZ=              0.5149   YZ=              0.2518

 Normal termination of Gaussian 09 at Wed Aug 26 14:44:45 2020.
