 Gaussian 09, Revision D.01,
 Gaussian 09:  ES64L-G09RevD.01 24-Apr-2013

 --------------------
 #p B2PLYPD3/Def2QZVP
 --------------------

 --------
 acrolein
 --------
 Symbolic Z-matrix:
 Charge =  0 Multiplicity = 1

                         Standard orientation:
 ---------------------------------------------------------------------
 Center     Atomic      Atomic             Coordinates (Angstroms)
 Number     Number       Type             X           Y           Z
 ---------------------------------------------------------------------
      1          6           0       -0.675100    0.365134   -0.035578
      2          8           0       -1.787367   -0.143124    0.020859
      3          6           0        0.543391   -0.435136    0.000146
      4          6           0        1.751406    0.125938    0.006726
      5          1           0        0.520195   -1.447534   -0.009752
      6          1           0        1.815753    1.167048    0.112920
      7          1           0        2.683013   -0.435958   -0.051206
      8          1           0       -0.438199    1.525818   -0.046597
 ---------------------------------------------------------------------

 SCF Done:  E(RB2PLYPD3) =  -191.604956508     A.U. after   12 cycles
 E2(B2PLYPD3) =    -0.2483124814D+00 E(B2PLYPD3) =    -0.19185326898894D+03

 The electronic state is 1-A.
 Alpha  occ. eigenvalues --  -19.73262 -10.72759 -10.65068 -10.63469  -1.19023
 Alpha  occ. eigenvalues --   -0.93533  -0.75534  -0.67478  -0.56668  -0.56106
 Alpha  occ. eigenvalues --   -0.50433  -0.47451  -0.46627  -0.34630  -0.34026
 Alpha virt. eigenvalues --   -0.02114   0.05722   0.07128   0.08005   0.09804
 Alpha virt. eigenvalues --    0.12604   0.13666   0.15378   0.17739   0.19753
 Alpha virt. eigenvalues --    0.20131   0.21363   0.25352   0.26356   0.28750

 Mulliken charges:
               1
     1  C    0.155572
     2  O   -0.347431
     3  C   -0.028593
     4  C   -0.128703
     5  H    0.107131
     6  H    0.079693
     7  H    0.099438
     8  H    0.062894
 Sum of Mulliken charges =   0.00000

 Dipole moment (field-independent basis, Debye):
    X=              3.5404    Y=              0.7464    Z=             -0.0596  Tot=              3.6187
 Quadrupole moment (field-independent basis, Debye-Ang):
   XX=            -27.3088   YY=            -21.9362   ZZ=            -25.1751
   XY=             -1.1142   XZ=              0.1230   YZ=              0.1556

 Normal termination of Gaussian 09 at Wed Aug 26 20:20:45 2020.
