 Gaussian 09, Revision D.01,
 Gaussian 09:  ES64L-G09RevD.01 24-Apr-2013

 --------------------
 #p B2PLYPD3/Def2QZVP
 --------------------

 --------
 acrolein
 --------
 Symbolic Z-matrix:
 Charge =  0 Multiplicity = 1

                         Standard orientation:
 ---------------------------------------------------------------------
 Center     Atomic      Atomic             Coordinates (Angstroms)
 Number     Number       Type             X           Y           Z
 ---------------------------------------------------------------------
      1          6           0       -0.679874    0.387261   -0.088763
      2          8           0       -1.794975   -0.143344    0.077827
      3          6           0        0.582887   -0.463197   -0.039465
      4          6           0        1.748154    0.134841    0.017424
      5          1           0        0.541847   -1.527368   -0.110936
      6          1           0        1.768268    1.320498    0.222936
      7          1           0        2.653383   -0.401271    0.107778
      8          1           0       -0.510698    1.401462   -0.177570
 ---------------------------------------------------------------------

 SCF Done:  E(RB2PLYPD3) =  -191.596554661     A.U. after   13 cycles
 E2(B2PLYPD3) =    -0.2489376084D+00 E(B2PLYPD3) =    -0.19184549226921D+03

 The electronic state is 1-A.
 Alpha  occ. eigenvalues --  -19.73247 -10.72215 -10.65476 -10.64218  -1.17693
 Alpha  occ. eigenvalues --   -0.92903  -0.75334  -0.67500  -0.56653  -0.55744
 Alpha  occ. eigenvalues --   -0.50661  -0.45579  -0.45442  -0.34858  -0.34218
 Alpha virt. eigenvalues --   -0.01614   0.05446   0.06996   0.07264   0.09605
 Alpha virt. eigenvalues --    0.12321   0.14161   0.15125   0.17780   0.18857
 Alpha virt. eigenvalues --    0.19952   0.21392   0.24637   0.26752   0.28442

 Mulliken charges:
               1
     1  C    0.165210
     2  O   -0.357620
     3  C   -0.058957
     4  C   -0.118491
     5  H    0.104682
     6  H    0.058527
     7  H    0.100543
     8  H    0.106107
 Sum of Mulliken charges =   0.00000

 Dipole moment (field-independent basis, Debye):
    X=              3.3503    Y=              0.8943    Z=             -0.1919  Tot=              3.4729
 Quadrupole moment (field-independent basis, Debye-Ang):
   XX=            -28.1072   YY=            -21.4357   ZZ=            -25.2542
   XY=             -1.4871   XZ=              0.8943   YZ=              0.2258

 Normal termination of Gaussian 09 at Wed Aug 26 14:39:37 2020.
