 Gaussian 09, Revision D.01,
 Gaussian 09:  ES64L-G09RevD.01 24-Apr-2013

 --------------------
 #p B2PLYPD3/Def2QZVP
 --------------------

 --------
 acrolein
 --------
 Symbolic Z-matrix:
 Charge =  0 Multiplicity = 1

                         Standard orientation:
 ---------------------------------------------------------------------
 Center     Atomic      Atomic             Coordinates (Angstroms)
 Number     Number       Type             X           Y           Z
 ---------------------------------------------------------------------
      1          6           0        0.677204    0.372212    0.039740
      2          8           0        1.785729   -0.146021   -0.044326
      3          6           0       -0.563682   -0.426199    0.017529
      4          6           0       -1.760131    0.125002   -0.015371
      5          1           0       -0.464715   -1.549164    0.129007
      6          1           0       -1.785183    1.167561   -0.108323
      7          1           0       -2.661763   -0.394258   -0.061118
      8          1           0        0.505481    1.517937    0.143653
 ---------------------------------------------------------------------

 SCF Done:  E(RB2PLYPD3) =  -191.608293871     A.U. after   13 cycles
 E2(B2PLYPD3) =    -0.2482177924D+00 E(B2PLYPD3) =    -0.19185651166346D+03

 The electronic state is 1-A.
 Alpha  occ. eigenvalues --  -19.73285 -10.72752 -10.64686 -10.64272  -1.18891
 Alpha  occ. eigenvalues --   -0.93340  -0.75694  -0.66066  -0.57134  -0.56186
 Alpha  occ. eigenvalues --   -0.50909  -0.46724  -0.45695  -0.34889  -0.34115
 Alpha virt. eigenvalues --   -0.01859   0.05855   0.06791   0.07972   0.09794
 Alpha virt. eigenvalues --    0.12593   0.14005   0.15142   0.17105   0.19482
 Alpha virt. eigenvalues --    0.20271   0.21984   0.25222   0.26436   0.29017

 Mulliken charges:
               1
     1  C    0.154984
     2  O   -0.346788
     3  C   -0.030776
     4  C   -0.124790
     5  H    0.096839
     6  H    0.074345
     7  H    0.105915
     8  H    0.070271
 Sum of Mulliken charges =   0.00000

 Dipole moment (field-independent basis, Debye):
    X=             -3.4549    Y=              0.8343    Z=              0.1562  Tot=              3.5577
 Quadrupole moment (field-independent basis, Debye-Ang):
   XX=            -27.3503   YY=            -21.8807   ZZ=            -25.2090
   XY=              1.1600   XZ=              0.4542   YZ=             -0.1956

 Normal termination of Gaussian 09 at Wed Aug 26 09:55:37 2020.
