 Gaussian 09, Revision D.01,
 Gaussian 09:  ES64L-G09RevD.01 24-Apr-2013

 --------------------
 #p B2PLYPD3/Def2QZVP
 --------------------

 --------
 acrolein
 --------
 Symbolic Z-matrix:
 Charge =  0 Multiplicity = 1

                         Standard orientation:
 ---------------------------------------------------------------------
 Center     Atomic      Atomic             Coordinates (Angstroms)
 Number     Number       Type             X           Y           Z
 ---------------------------------------------------------------------
      1          6           0        0.672845    0.350670   -0.011995
      2          8           0        1.780820   -0.124362    0.013503
      3          6           0       -0.550588   -0.440202   -0.007731
      4          6           0       -1.755748    0.133542    0.005442
      5          1           0       -0.440382   -1.533604   -0.008822
      6          1           0       -1.825160    1.223477    0.074780
      7          1           0       -2.676536   -0.425307   -0.020254
      8          1           0        0.496466    1.466268   -0.068025
 ---------------------------------------------------------------------

 SCF Done:  E(RB2PLYPD3) =  -191.616111281     A.U. after   12 cycles
 E2(B2PLYPD3) =    -0.2472746321D+00 E(B2PLYPD3) =    -0.19186338591285D+03

 The electronic state is 1-A.
 Alpha  occ. eigenvalues --  -19.72885 -10.71703 -10.65596 -10.64424  -1.19890
 Alpha  occ. eigenvalues --   -0.93009  -0.75528  -0.66444  -0.56657  -0.56231
 Alpha  occ. eigenvalues --   -0.50710  -0.47055  -0.46534  -0.34652  -0.33894
 Alpha virt. eigenvalues --   -0.01832   0.05756   0.07041   0.08336   0.09776
 Alpha virt. eigenvalues --    0.12528   0.13981   0.15383   0.17335   0.19614
 Alpha virt. eigenvalues --    0.20071   0.21585   0.25496   0.26435   0.28816

 Mulliken charges:
               1
     1  C    0.157509
     2  O   -0.344113
     3  C   -0.034950
     4  C   -0.130658
     5  H    0.101765
     6  H    0.081451
     7  H    0.105792
     8  H    0.063203
 Sum of Mulliken charges =   0.00000

 Dipole moment (field-independent basis, Debye):
    X=             -3.4735    Y=              0.7238    Z=             -0.0270  Tot=              3.5482
 Quadrupole moment (field-independent basis, Debye-Ang):
   XX=            -27.2943   YY=            -21.8594   ZZ=            -25.2337
   XY=              0.9643   XZ=             -0.1277   YZ=              0.0852

 Normal termination of Gaussian 09 at Wed Aug 26 15:45:56 2020.
