 Gaussian 09, Revision D.01,
 Gaussian 09:  ES64L-G09RevD.01 24-Apr-2013

 --------------------
 #p B2PLYPD3/Def2QZVP
 --------------------

 --------
 acrolein
 --------
 Symbolic Z-matrix:
 Charge =  0 Multiplicity = 1

                         Standard orientation:
 ---------------------------------------------------------------------
 Center     Atomic      Atomic             Coordinates (Angstroms)
 Number     Number       Type             X           Y           Z
 ---------------------------------------------------------------------
      1          6           0       -0.652928    0.322111    0.008851
      2          8           0       -1.797834   -0.102623   -0.022353
      3          6           0        0.567023   -0.467122    0.009416
      4          6           0        1.749207    0.146936   -0.008499
      5          1           0        0.454820   -1.538112    0.088241
      6          1           0        1.839535    1.290330   -0.050649
      7          1           0        2.635763   -0.405828   -0.042066
      8          1           0       -0.527251    1.463047    0.124693
 ---------------------------------------------------------------------

 SCF Done:  E(RB2PLYPD3) =  -191.610039789     A.U. after   12 cycles
 E2(B2PLYPD3) =    -0.2482039479D+00 E(B2PLYPD3) =    -0.19185824373723D+03

 The electronic state is 1-A.
 Alpha  occ. eigenvalues --  -19.72692 -10.71867 -10.66063 -10.64683  -1.18754
 Alpha  occ. eigenvalues --   -0.93456  -0.75668  -0.66152  -0.56926  -0.55810
 Alpha  occ. eigenvalues --   -0.50183  -0.47152  -0.46266  -0.34915  -0.33556
 Alpha virt. eigenvalues --   -0.02047   0.05658   0.06869   0.08199   0.09644
 Alpha virt. eigenvalues --    0.12414   0.13951   0.15185   0.17346   0.19420
 Alpha virt. eigenvalues --    0.20022   0.21644   0.25154   0.26461   0.28901

 Mulliken charges:
               1
     1  C    0.157668
     2  O   -0.352667
     3  C   -0.038118
     4  C   -0.120782
     5  H    0.106130
     6  H    0.086380
     7  H    0.105456
     8  H    0.055932
 Sum of Mulliken charges =   0.00000

 Dipole moment (field-independent basis, Debye):
    X=              3.6650    Y=              0.5937    Z=              0.1010  Tot=              3.7142
 Quadrupole moment (field-independent basis, Debye-Ang):
   XX=            -27.5429   YY=            -21.7563   ZZ=            -25.2676
   XY=             -0.8100   XZ=             -0.2567   YZ=             -0.1233

 Normal termination of Gaussian 09 at Wed Aug 26 09:01:19 2020.
