 Gaussian 09, Revision D.01,
 Gaussian 09:  ES64L-G09RevD.01 24-Apr-2013

 --------------------
 #p B2PLYPD3/Def2QZVP
 --------------------

 --------
 acrolein
 --------
 Symbolic Z-matrix:
 Charge =  0 Multiplicity = 1

                         Standard orientation:
 ---------------------------------------------------------------------
 Center     Atomic      Atomic             Coordinates (Angstroms)
 Number     Number       Type             X           Y           Z
 ---------------------------------------------------------------------
      1          6           0       -0.670144    0.340962    0.008954
      2          8           0       -1.785703   -0.110007   -0.012675
      3          6           0        0.563638   -0.456254    0.007070
      4          6           0        1.748563    0.145009   -0.004784
      5          1           0        0.458154   -1.541739    0.015098
      6          1           0        1.880782    1.262020   -0.059510
      7          1           0        2.644666   -0.408777    0.009186
      8          1           0       -0.550326    1.390248    0.069183
 ---------------------------------------------------------------------

 SCF Done:  E(RB2PLYPD3) =  -191.614290291     A.U. after   12 cycles
 E2(B2PLYPD3) =    -0.2462911202D+00 E(B2PLYPD3) =    -0.19186058141081D+03

 The electronic state is 1-A.
 Alpha  occ. eigenvalues --  -19.72512 -10.70798 -10.65506 -10.64431  -1.19792
 Alpha  occ. eigenvalues --   -0.93008  -0.75612  -0.67334  -0.56813  -0.56484
 Alpha  occ. eigenvalues --   -0.50726  -0.46861  -0.46638  -0.34760  -0.33742
 Alpha virt. eigenvalues --   -0.01536   0.05730   0.07235   0.08312   0.09636
 Alpha virt. eigenvalues --    0.12583   0.14265   0.15368   0.17556   0.19463
 Alpha virt. eigenvalues --    0.20056   0.21726   0.25464   0.26551   0.28634

 Mulliken charges:
               1
     1  C    0.156311
     2  O   -0.347976
     3  C   -0.045189
     4  C   -0.128071
     5  H    0.104327
     6  H    0.082579
     7  H    0.101555
     8  H    0.076465
 Sum of Mulliken charges =   0.00000

 Dipole moment (field-independent basis, Debye):
    X=              3.4882    Y=              0.7521    Z=              0.0346  Tot=              3.5686
 Quadrupole moment (field-independent basis, Debye-Ang):
   XX=            -27.4357   YY=            -21.6321   ZZ=            -25.1500
   XY=             -0.8655   XZ=             -0.1386   YZ=             -0.0723

 Normal termination of Gaussian 09 at Wed Aug 26 16:14:06 2020.
