 Gaussian 09, Revision D.01,
 Gaussian 09:  ES64L-G09RevD.01 24-Apr-2013

 --------------------
 #p B2PLYPD3/Def2QZVP
 --------------------

 --------
 acrolein
 --------
 Symbolic Z-matrix:
 Charge =  0 Multiplicity = 1

                         Standard orientation:
 ---------------------------------------------------------------------
 Center     Atomic      Atomic             Coordinates (Angstroms)
 Number     Number       Type             X           Y           Z
 ---------------------------------------------------------------------
      1          6           0        0.651104    0.356966    0.033638
      2          8           0        1.782442   -0.146317   -0.038453
      3          6           0       -0.524716   -0.408737   -0.018624
      4          6           0       -1.740019    0.097657   -0.013484
      5          1           0       -0.510347   -1.477824    0.232478
      6          1           0       -1.832408    1.181201   -0.113621
      7          1           0       -2.669930   -0.424008   -0.016052
      8          1           0        0.434927    1.615853    0.195646
 ---------------------------------------------------------------------

 SCF Done:  E(RB2PLYPD3) =  -191.589104402     A.U. after   13 cycles
 E2(B2PLYPD3) =    -0.2507589522D+00 E(B2PLYPD3) =    -0.19183986335381D+03

 The electronic state is 1-A.
 Alpha  occ. eigenvalues --  -19.73416 -10.73435 -10.65602 -10.64181  -1.18267
 Alpha  occ. eigenvalues --   -0.94405  -0.76564  -0.65343  -0.57390  -0.55520
 Alpha  occ. eigenvalues --   -0.50140  -0.47138  -0.44769  -0.35128  -0.33973
 Alpha virt. eigenvalues --   -0.02748   0.05530   0.06120   0.08144   0.09721
 Alpha virt. eigenvalues --    0.12370   0.13454   0.14509   0.17632   0.19409
 Alpha virt. eigenvalues --    0.20182   0.21519   0.24703   0.26560   0.29015

 Mulliken charges:
               1
     1  C    0.153288
     2  O   -0.348448
     3  C   -0.013358
     4  C   -0.106109
     5  H    0.099266
     6  H    0.068457
     7  H    0.105076
     8  H    0.041829
 Sum of Mulliken charges =   0.00000

 Dipole moment (field-independent basis, Debye):
    X=             -3.7690    Y=              0.6292    Z=              0.2756  Tot=              3.8311
 Quadrupole moment (field-independent basis, Debye-Ang):
   XX=            -27.0025   YY=            -22.3711   ZZ=            -25.2022
   XY=              1.0984   XZ=              0.1962   YZ=             -0.3636

 Normal termination of Gaussian 09 at Wed Aug 26 10:47:00 2020.
