 Gaussian 09, Revision D.01,
 Gaussian 09:  ES64L-G09RevD.01 24-Apr-2013

 --------------------
 #p B2PLYPD3/Def2QZVP
 --------------------

 --------
 acrolein
 --------
 Symbolic Z-matrix:
 Charge =  0 Multiplicity = 1

                         Standard orientation:
 ---------------------------------------------------------------------
 Center     Atomic      Atomic             Coordinates (Angstroms)
 Number     Number       Type             X           Y           Z
 ---------------------------------------------------------------------
      1          6           0        0.668577    0.352512    0.012123
      2          8           0        1.788441   -0.131756   -0.020035
      3          6           0       -0.556483   -0.440779    0.016703
      4          6           0       -1.744760    0.131269   -0.027756
      5          1           0       -0.491514   -1.482078    0.063494
      6          1           0       -1.800480    1.207876   -0.015943
      7          1           0       -2.676822   -0.424488    0.013683
      8          1           0        0.457283    1.494724    0.092622
 ---------------------------------------------------------------------

 SCF Done:  E(RB2PLYPD3) =  -191.612378012     A.U. after   12 cycles
 E2(B2PLYPD3) =    -0.2478053824D+00 E(B2PLYPD3) =    -0.19186018339445D+03

 The electronic state is 1-A.
 Alpha  occ. eigenvalues --  -19.73144 -10.72390 -10.65230 -10.63727  -1.19128
 Alpha  occ. eigenvalues --   -0.93662  -0.75433  -0.66973  -0.56736  -0.56087
 Alpha  occ. eigenvalues --   -0.50591  -0.47121  -0.46544  -0.34940  -0.33984
 Alpha virt. eigenvalues --   -0.01864   0.05743   0.07023   0.08213   0.09787
 Alpha virt. eigenvalues --    0.12594   0.13814   0.15322   0.17600   0.19711
 Alpha virt. eigenvalues --    0.20045   0.21428   0.25560   0.26384   0.28815

 Mulliken charges:
               1
     1  C    0.155143
     2  O   -0.348222
     3  C   -0.028289
     4  C   -0.125173
     5  H    0.105330
     6  H    0.078759
     7  H    0.101167
     8  H    0.061286
 Sum of Mulliken charges =   0.00000

 Dipole moment (field-independent basis, Debye):
    X=             -3.5351    Y=              0.7056    Z=              0.1431  Tot=              3.6077
 Quadrupole moment (field-independent basis, Debye-Ang):
   XX=            -27.3920   YY=            -21.9121   ZZ=            -25.1737
   XY=              1.0330   XZ=              0.0429   YZ=             -0.0627

 Normal termination of Gaussian 09 at Wed Aug 26 16:34:53 2020.
