 Gaussian 09, Revision D.01,
 Gaussian 09:  ES64L-G09RevD.01 24-Apr-2013

 --------------------
 #p B2PLYPD3/Def2QZVP
 --------------------

 --------
 acrolein
 --------
 Symbolic Z-matrix:
 Charge =  0 Multiplicity = 1

                         Standard orientation:
 ---------------------------------------------------------------------
 Center     Atomic      Atomic             Coordinates (Angstroms)
 Number     Number       Type             X           Y           Z
 ---------------------------------------------------------------------
      1          6           0        0.666451    0.358655    0.031691
      2          8           0        1.791306   -0.131409   -0.034648
      3          6           0       -0.570357   -0.428526    0.054625
      4          6           0       -1.763316    0.124629   -0.025432
      5          1           0       -0.415957   -1.472250   -0.023239
      6          1           0       -1.802083    1.191261   -0.063357
      7          1           0       -2.611126   -0.427707   -0.052869
      8          1           0        0.502047    1.431421    0.051344
 ---------------------------------------------------------------------

 SCF Done:  E(RB2PLYPD3) =  -191.611044641     A.U. after   13 cycles
 E2(B2PLYPD3) =    -0.2471355886D+00 E(B2PLYPD3) =    -0.19185818022932D+03

 The electronic state is 1-A.
 Alpha  occ. eigenvalues --  -19.72957 -10.71607 -10.64430 -10.63768  -1.18505
 Alpha  occ. eigenvalues --   -0.93801  -0.76509  -0.67595  -0.57694  -0.56414
 Alpha  occ. eigenvalues --   -0.50963  -0.47161  -0.46255  -0.34930  -0.34017
 Alpha virt. eigenvalues --   -0.01977   0.05850   0.07400   0.08151   0.09888
 Alpha virt. eigenvalues --    0.12707   0.13782   0.15352   0.17639   0.19625
 Alpha virt. eigenvalues --    0.20040   0.22102   0.25443   0.26596   0.28932

 Mulliken charges:
               1
     1  C    0.156989
     2  O   -0.360207
     3  C   -0.033387
     4  C   -0.129594
     5  H    0.103416
     6  H    0.080460
     7  H    0.108099
     8  H    0.074225
 Sum of Mulliken charges =   0.00000

 Dipole moment (field-independent basis, Debye):
    X=             -3.5500    Y=              0.8139    Z=              0.0070  Tot=              3.6421
 Quadrupole moment (field-independent basis, Debye-Ang):
   XX=            -27.5098   YY=            -21.7917   ZZ=            -25.0376
   XY=              1.0539   XZ=              0.4221   YZ=              0.0433

 Normal termination of Gaussian 09 at Wed Aug 26 08:45:28 2020.
