 Gaussian 09, Revision D.01,
 Gaussian 09:  ES64L-G09RevD.01 24-Apr-2013

 --------------------
 #p B2PLYPD3/Def2QZVP
 --------------------

 --------
 acrolein
 --------
 Symbolic Z-matrix:
 Charge =  0 Multiplicity = 1

                         Standard orientation:
 ---------------------------------------------------------------------
 Center     Atomic      Atomic             Coordinates (Angstroms)
 Number     Number       Type             X           Y           Z
 ---------------------------------------------------------------------
      1          6           0        0.685062    0.362329   -0.027320
      2          8           0        1.776247   -0.139831    0.020584
      3          6           0       -0.540274   -0.440106   -0.019929
      4          6           0       -1.744933    0.141256   -0.005477
      5          1           0       -0.471526   -1.497861    0.025704
      6          1           0       -1.781276    1.179177    0.088757
      7          1           0       -2.831385   -0.436166    0.045249
      8          1           0        0.475083    1.492616   -0.008030
 ---------------------------------------------------------------------

 SCF Done:  E(RB2PLYPD3) =  -191.599800704     A.U. after   13 cycles
 E2(B2PLYPD3) =    -0.2480103181D+00 E(B2PLYPD3) =    -0.19184781102209D+03

 The electronic state is 1-A.
 Alpha  occ. eigenvalues --  -19.73134 -10.72174 -10.66373 -10.64091  -1.20337
 Alpha  occ. eigenvalues --   -0.92882  -0.74530  -0.67112  -0.56598  -0.55485
 Alpha  occ. eigenvalues --   -0.50111  -0.47378  -0.46121  -0.34602  -0.33973
 Alpha virt. eigenvalues --   -0.01729   0.05354   0.06943   0.08113   0.09701
 Alpha virt. eigenvalues --    0.12183   0.13825   0.15381   0.17687   0.19750
 Alpha virt. eigenvalues --    0.20080   0.20821   0.25543   0.25925   0.28802

 Mulliken charges:
               1
     1  C    0.153095
     2  O   -0.338013
     3  C   -0.034116
     4  C   -0.130839
     5  H    0.108999
     6  H    0.083332
     7  H    0.092170
     8  H    0.065372
 Sum of Mulliken charges =   0.00000

 Dipole moment (field-independent basis, Debye):
    X=             -3.3456    Y=              0.7884    Z=              0.0595  Tot=              3.4377
 Quadrupole moment (field-independent basis, Debye-Ang):
   XX=            -27.2405   YY=            -21.9869   ZZ=            -25.3254
   XY=              1.0566   XZ=             -0.3648   YZ=              0.0367

 Normal termination of Gaussian 09 at Wed Aug 26 10:11:04 2020.
