 Gaussian 09, Revision D.01,
 Gaussian 09:  ES64L-G09RevD.01 24-Apr-2013

 --------------------
 #p B2PLYPD3/Def2QZVP
 --------------------

 --------
 acrolein
 --------
 Symbolic Z-matrix:
 Charge =  0 Multiplicity = 1

                         Standard orientation:
 ---------------------------------------------------------------------
 Center     Atomic      Atomic             Coordinates (Angstroms)
 Number     Number       Type             X           Y           Z
 ---------------------------------------------------------------------
      1          6           0       -0.644427    0.329885   -0.041170
      2          8           0       -1.803234   -0.105951    0.030604
      3          6           0        0.563518   -0.456460   -0.012968
      4          6           0        1.742271    0.137335    0.025278
      5          1           0        0.468346   -1.546625   -0.015453
      6          1           0        1.801783    1.274617    0.115590
      7          1           0        2.634528   -0.404315   -0.070070
      8          1           0       -0.446958    1.459364   -0.101744
 ---------------------------------------------------------------------

 SCF Done:  E(RB2PLYPD3) =  -191.608509265     A.U. after   13 cycles
 E2(B2PLYPD3) =    -0.2491368405D+00 E(B2PLYPD3) =    -0.19185764610588D+03

 The electronic state is 1-A.
 Alpha  occ. eigenvalues --  -19.72899 -10.72150 -10.65936 -10.64498  -1.17746
 Alpha  occ. eigenvalues --   -0.93996  -0.76026  -0.66214  -0.57059  -0.55567
 Alpha  occ. eigenvalues --   -0.50153  -0.46719  -0.46021  -0.34962  -0.33893
 Alpha virt. eigenvalues --   -0.02380   0.05595   0.06796   0.08122   0.09737
 Alpha virt. eigenvalues --    0.12509   0.13881   0.15275   0.17118   0.19277
 Alpha virt. eigenvalues --    0.20131   0.21721   0.25262   0.26508   0.28988

 Mulliken charges:
               1
     1  C    0.158259
     2  O   -0.362228
     3  C   -0.025691
     4  C   -0.119961
     5  H    0.101414
     6  H    0.081291
     7  H    0.107676
     8  H    0.059240
 Sum of Mulliken charges =   0.00000

 Dipole moment (field-independent basis, Debye):
    X=              3.7680    Y=              0.6243    Z=             -0.1276  Tot=              3.8215
 Quadrupole moment (field-independent basis, Debye-Ang):
   XX=            -27.6969   YY=            -21.7861   ZZ=            -25.2427
   XY=             -0.8454   XZ=              0.1280   YZ=              0.1561

 Normal termination of Gaussian 09 at Wed Aug 26 08:37:53 2020.
