 Gaussian 09, Revision D.01,
 Gaussian 09:  ES64L-G09RevD.01 24-Apr-2013

 --------------------
 #p B2PLYPD3/Def2QZVP
 --------------------

 --------
 acrolein
 --------
 Symbolic Z-matrix:
 Charge =  0 Multiplicity = 1

                         Standard orientation:
 ---------------------------------------------------------------------
 Center     Atomic      Atomic             Coordinates (Angstroms)
 Number     Number       Type             X           Y           Z
 ---------------------------------------------------------------------
      1          6           0       -0.682877    0.360865    0.000042
      2          8           0       -1.782441   -0.131345    0.009047
      3          6           0        0.562568   -0.442358   -0.022469
      4          6           0        1.755485    0.145920    0.013781
      5          1           0        0.437769   -1.508477   -0.022991
      6          1           0        1.816312    1.193780   -0.053374
      7          1           0        2.719416   -0.441415    0.060476
      8          1           0       -0.525031    1.420306   -0.004615
 ---------------------------------------------------------------------

 SCF Done:  E(RB2PLYPD3) =  -191.614333444     A.U. after   12 cycles
 E2(B2PLYPD3) =    -0.2465723723D+00 E(B2PLYPD3) =    -0.19186090581599D+03

 The electronic state is 1-A.
 Alpha  occ. eigenvalues --  -19.72845 -10.71299 -10.65393 -10.64120  -1.19925
 Alpha  occ. eigenvalues --   -0.92836  -0.75181  -0.67688  -0.56908  -0.55985
 Alpha  occ. eigenvalues --   -0.50711  -0.47078  -0.46736  -0.34622  -0.33888
 Alpha virt. eigenvalues --   -0.01504   0.05730   0.07286   0.08118   0.09779
 Alpha virt. eigenvalues --    0.12530   0.13958   0.15392   0.17657   0.19847
 Alpha virt. eigenvalues --    0.20012   0.21405   0.25447   0.26565   0.28747

 Mulliken charges:
               1
     1  C    0.153992
     2  O   -0.346349
     3  C   -0.041543
     4  C   -0.137465
     5  H    0.106970
     6  H    0.086152
     7  H    0.099411
     8  H    0.078831
 Sum of Mulliken charges =   0.00000

 Dipole moment (field-independent basis, Debye):
    X=              3.3639    Y=              0.8429    Z=             -0.0347  Tot=              3.4681
 Quadrupole moment (field-independent basis, Debye-Ang):
   XX=            -27.4495   YY=            -21.7207   ZZ=            -25.1790
   XY=             -1.0335   XZ=              0.1017   YZ=             -0.0847

 Normal termination of Gaussian 09 at Wed Aug 26 09:00:14 2020.
