 Gaussian 09, Revision D.01,
 Gaussian 09:  ES64L-G09RevD.01 24-Apr-2013

 --------------------
 #p B2PLYPD3/Def2QZVP
 --------------------

 --------
 acrolein
 --------
 Symbolic Z-matrix:
 Charge =  0 Multiplicity = 1

                         Standard orientation:
 ---------------------------------------------------------------------
 Center     Atomic      Atomic             Coordinates (Angstroms)
 Number     Number       Type             X           Y           Z
 ---------------------------------------------------------------------
      1          6           0        0.650599    0.319201    0.049317
      2          8           0        1.806782   -0.096812   -0.033099
      3          6           0       -0.587370   -0.461086    0.029002
      4          6           0       -1.756580    0.158585   -0.029589
      5          1           0       -0.425097   -1.533043    0.016385
      6          1           0       -1.814973    1.226052    0.011260
      7          1           0       -2.590262   -0.398905   -0.042633
      8          1           0        0.536182    1.380192   -0.012601
 ---------------------------------------------------------------------

 SCF Done:  E(RB2PLYPD3) =  -191.607989598     A.U. after   13 cycles
 E2(B2PLYPD3) =    -0.2473742082D+00 E(B2PLYPD3) =    -0.19185536380585D+03

 The electronic state is 1-A.
 Alpha  occ. eigenvalues --  -19.72597 -10.71095 -10.64755 -10.64558  -1.18082
 Alpha  occ. eigenvalues --   -0.93924  -0.76634  -0.67450  -0.57562  -0.56595
 Alpha  occ. eigenvalues --   -0.50327  -0.47806  -0.46023  -0.34984  -0.33629
 Alpha virt. eigenvalues --   -0.02095   0.05853   0.07260   0.08093   0.09766
 Alpha virt. eigenvalues --    0.12829   0.13986   0.15218   0.17404   0.19818
 Alpha virt. eigenvalues --    0.20094   0.22125   0.25092   0.26722   0.28814

 Mulliken charges:
               1
     1  C    0.156358
     2  O   -0.363806
     3  C   -0.031752
     4  C   -0.129589
     5  H    0.101806
     6  H    0.093574
     7  H    0.106589
     8  H    0.066819
 Sum of Mulliken charges =   0.00000

 Dipole moment (field-independent basis, Debye):
    X=             -3.6983    Y=              0.6855    Z=              0.1117  Tot=              3.7629
 Quadrupole moment (field-independent basis, Debye-Ang):
   XX=            -27.7236   YY=            -21.6480   ZZ=            -25.0677
   XY=              0.7604   XZ=              0.2240   YZ=              0.0163

 Normal termination of Gaussian 09 at Wed Aug 26 09:20:05 2020.
