 Gaussian 09, Revision D.01,
 Gaussian 09:  ES64L-G09RevD.01 24-Apr-2013

 --------------------
 #p B2PLYPD3/Def2QZVP
 --------------------

 --------
 acrolein
 --------
 Symbolic Z-matrix:
 Charge =  0 Multiplicity = 1

                         Standard orientation:
 ---------------------------------------------------------------------
 Center     Atomic      Atomic             Coordinates (Angstroms)
 Number     Number       Type             X           Y           Z
 ---------------------------------------------------------------------
      1          6           0        0.671737    0.348153   -0.010958
      2          8           0        1.784670   -0.123271   -0.000599
      3          6           0       -0.544380   -0.436109    0.018109
      4          6           0       -1.756574    0.134257   -0.012129
      5          1           0       -0.419093   -1.497694    0.007524
      6          1           0       -1.840413    1.207717    0.058713
      7          1           0       -2.725835   -0.454911   -0.034434
      8          1           0        0.483283    1.453252    0.002856
 ---------------------------------------------------------------------

 SCF Done:  E(RB2PLYPD3) =  -191.613775469     A.U. after   13 cycles
 E2(B2PLYPD3) =    -0.2475594689D+00 E(B2PLYPD3) =    -0.19186133493815D+03

 The electronic state is 1-A.
 Alpha  occ. eigenvalues --  -19.72860 -10.71540 -10.66232 -10.64180  -1.19696
 Alpha  occ. eigenvalues --   -0.93084  -0.75518  -0.66974  -0.56535  -0.56041
 Alpha  occ. eigenvalues --   -0.50461  -0.47064  -0.46678  -0.34606  -0.33903
 Alpha virt. eigenvalues --   -0.02056   0.05612   0.07137   0.08375   0.09773
 Alpha virt. eigenvalues --    0.12434   0.13830   0.15335   0.17621   0.19801
 Alpha virt. eigenvalues --    0.19940   0.21297   0.25438   0.26435   0.28733

 Mulliken charges:
               1
     1  C    0.157445
     2  O   -0.348615
     3  C   -0.031534
     4  C   -0.131921
     5  H    0.105989
     6  H    0.085427
     7  H    0.101185
     8  H    0.062024
 Sum of Mulliken charges =   0.00000

 Dipole moment (field-independent basis, Debye):
    X=             -3.5252    Y=              0.7297    Z=              0.0148  Tot=              3.5999
 Quadrupole moment (field-independent basis, Debye-Ang):
   XX=            -27.2717   YY=            -21.9229   ZZ=            -25.2397
   XY=              0.8964   XZ=             -0.0003   YZ=              0.0981

 Normal termination of Gaussian 09 at Wed Aug 26 15:45:47 2020.
