 Gaussian 09, Revision D.01,
 Gaussian 09:  ES64L-G09RevD.01 24-Apr-2013

 --------------------
 #p B2PLYPD3/Def2QZVP
 --------------------

 --------
 acrolein
 --------
 Symbolic Z-matrix:
 Charge =  0 Multiplicity = 1

                         Standard orientation:
 ---------------------------------------------------------------------
 Center     Atomic      Atomic             Coordinates (Angstroms)
 Number     Number       Type             X           Y           Z
 ---------------------------------------------------------------------
      1          6           0       -0.675175    0.354394    0.007971
      2          8           0       -1.780811   -0.117366   -0.018299
      3          6           0        0.561227   -0.469668    0.031699
      4          6           0        1.753509    0.148899   -0.023395
      5          1           0        0.448575   -1.526029    0.028260
      6          1           0        1.834694    1.235119    0.033701
      7          1           0        2.664311   -0.390083   -0.053275
      8          1           0       -0.538459    1.418167    0.040064
 ---------------------------------------------------------------------

 SCF Done:  E(RB2PLYPD3) =  -191.615837181     A.U. after   12 cycles
 E2(B2PLYPD3) =    -0.2464677197D+00 E(B2PLYPD3) =    -0.19186230490100D+03

 The electronic state is 1-A.
 Alpha  occ. eigenvalues --  -19.72612 -10.71149 -10.65288 -10.64384  -1.19927
 Alpha  occ. eigenvalues --   -0.92557  -0.75252  -0.67706  -0.56668  -0.56477
 Alpha  occ. eigenvalues --   -0.50723  -0.47400  -0.46812  -0.34404  -0.33742
 Alpha virt. eigenvalues --   -0.01488   0.05804   0.07368   0.08006   0.09710
 Alpha virt. eigenvalues --    0.12616   0.14199   0.15392   0.17615   0.19830
 Alpha virt. eigenvalues --    0.19982   0.21589   0.25258   0.26484   0.28778

 Mulliken charges:
               1
     1  C    0.154845
     2  O   -0.345743
     3  C   -0.050282
     4  C   -0.131939
     5  H    0.110208
     6  H    0.083445
     7  H    0.099855
     8  H    0.079610
 Sum of Mulliken charges =   0.00000

 Dipole moment (field-independent basis, Debye):
    X=              3.4050    Y=              0.7860    Z=              0.0697  Tot=              3.4953
 Quadrupole moment (field-independent basis, Debye-Ang):
   XX=            -27.4572   YY=            -21.5838   ZZ=            -25.1917
   XY=             -0.9147   XZ=             -0.1632   YZ=              0.0645

 Normal termination of Gaussian 09 at Wed Aug 26 08:35:13 2020.
