 Gaussian 09, Revision D.01,
 Gaussian 09:  ES64L-G09RevD.01 24-Apr-2013

 --------------------
 #p B2PLYPD3/Def2QZVP
 --------------------

 --------
 acrolein
 --------
 Symbolic Z-matrix:
 Charge =  0 Multiplicity = 1

                         Standard orientation:
 ---------------------------------------------------------------------
 Center     Atomic      Atomic             Coordinates (Angstroms)
 Number     Number       Type             X           Y           Z
 ---------------------------------------------------------------------
      1          6           0        0.664493    0.340711    0.020400
      2          8           0        1.799166   -0.110744   -0.006689
      3          6           0       -0.568978   -0.466245   -0.011562
      4          6           0       -1.750411    0.143998   -0.005379
      5          1           0       -0.465943   -1.516675    0.006048
      6          1           0       -1.843978    1.280671   -0.041483
      7          1           0       -2.652021   -0.415080    0.059891
      8          1           0        0.497986    1.426246    0.008297
 ---------------------------------------------------------------------

 SCF Done:  E(RB2PLYPD3) =  -191.613328954     A.U. after   12 cycles
 E2(B2PLYPD3) =    -0.2476599917D+00 E(B2PLYPD3) =    -0.19186098894618D+03

 The electronic state is 1-A.
 Alpha  occ. eigenvalues --  -19.72787 -10.71622 -10.65888 -10.64271  -1.18798
 Alpha  occ. eigenvalues --   -0.93190  -0.75370  -0.67199  -0.56661  -0.55999
 Alpha  occ. eigenvalues --   -0.50522  -0.46973  -0.46359  -0.34792  -0.33809
 Alpha virt. eigenvalues --   -0.01823   0.05630   0.07199   0.08000   0.09664
 Alpha virt. eigenvalues --    0.12493   0.13990   0.15309   0.17623   0.19433
 Alpha virt. eigenvalues --    0.19986   0.21594   0.25330   0.26540   0.28776

 Mulliken charges:
               1
     1  C    0.158074
     2  O   -0.354736
     3  C   -0.042720
     4  C   -0.126067
     5  H    0.107962
     6  H    0.082570
     7  H    0.102433
     8  H    0.072484
 Sum of Mulliken charges =   0.00000

 Dipole moment (field-independent basis, Debye):
    X=             -3.5791    Y=              0.7102    Z=              0.0659  Tot=              3.6494
 Quadrupole moment (field-independent basis, Debye-Ang):
   XX=            -27.6535   YY=            -21.6459   ZZ=            -25.2323
   XY=              0.8720   XZ=             -0.0673   YZ=             -0.1007

 Normal termination of Gaussian 09 at Wed Aug 26 16:06:20 2020.
