 Gaussian 09, Revision D.01,
 Gaussian 09:  ES64L-G09RevD.01 24-Apr-2013

 --------------------
 #p B2PLYPD3/Def2QZVP
 --------------------

 --------
 acrolein
 --------
 Symbolic Z-matrix:
 Charge =  0 Multiplicity = 1

                         Standard orientation:
 ---------------------------------------------------------------------
 Center     Atomic      Atomic             Coordinates (Angstroms)
 Number     Number       Type             X           Y           Z
 ---------------------------------------------------------------------
      1          6           0        0.698655    0.341239   -0.059763
      2          8           0        1.767304   -0.148671    0.064693
      3          6           0       -0.525073   -0.423947   -0.053800
      4          6           0       -1.766045    0.136779    0.002492
      5          1           0       -0.511645   -1.385552   -0.126852
      6          1           0       -1.771569    1.153658    0.078605
      7          1           0       -2.800760   -0.476015    0.251889
      8          1           0        0.500317    1.572851   -0.054761
 ---------------------------------------------------------------------

 SCF Done:  E(RB2PLYPD3) =  -191.574711777     A.U. after   13 cycles
 E2(B2PLYPD3) =    -0.2482506116D+00 E(B2PLYPD3) =    -0.19182296238892D+03

 The electronic state is 1-A.
 Alpha  occ. eigenvalues --  -19.73422 -10.72652 -10.66523 -10.63342  -1.21857
 Alpha  occ. eigenvalues --   -0.93063  -0.75028  -0.67552  -0.56643  -0.55838
 Alpha  occ. eigenvalues --   -0.49785  -0.48398  -0.47236  -0.34325  -0.33762
 Alpha virt. eigenvalues --   -0.02202   0.05347   0.07024   0.08393   0.09776
 Alpha virt. eigenvalues --    0.12045   0.13445   0.15188   0.18275   0.19078
 Alpha virt. eigenvalues --    0.20156   0.21009   0.25203   0.25717   0.28678

 Mulliken charges:
               1
     1  C    0.158323
     2  O   -0.319642
     3  C   -0.028751
     4  C   -0.127291
     5  H    0.110240
     6  H    0.084054
     7  H    0.096072
     8  H    0.026995
 Sum of Mulliken charges =   0.00000

 Dipole moment (field-independent basis, Debye):
    X=             -3.2770    Y=              0.5593    Z=             -0.0410  Tot=              3.3246
 Quadrupole moment (field-independent basis, Debye-Ang):
   XX=            -26.7867   YY=            -22.4378   ZZ=            -25.2199
   XY=              1.1947   XZ=             -0.9849   YZ=              0.0955

 Normal termination of Gaussian 09 at Wed Aug 26 14:44:02 2020.
