 Gaussian 09, Revision D.01,
 Gaussian 09:  ES64L-G09RevD.01 24-Apr-2013

 --------------------
 #p B2PLYPD3/Def2QZVP
 --------------------

 --------
 acrolein
 --------
 Symbolic Z-matrix:
 Charge =  0 Multiplicity = 1

                         Standard orientation:
 ---------------------------------------------------------------------
 Center     Atomic      Atomic             Coordinates (Angstroms)
 Number     Number       Type             X           Y           Z
 ---------------------------------------------------------------------
      1          6           0        0.660368    0.347709    0.038460
      2          8           0        1.781053   -0.126276   -0.038518
      3          6           0       -0.547283   -0.432209    0.026983
      4          6           0       -1.743254    0.135902   -0.044208
      5          1           0       -0.470023   -1.519652    0.061658
      6          1           0       -1.792365    1.186777   -0.079377
      7          1           0       -2.729104   -0.397882    0.059834
      8          1           0        0.524084    1.432553    0.138622
 ---------------------------------------------------------------------

 SCF Done:  E(RB2PLYPD3) =  -191.612605147     A.U. after   13 cycles
 E2(B2PLYPD3) =    -0.2474720196D+00 E(B2PLYPD3) =    -0.19186007716664D+03

 The electronic state is 1-A.
 Alpha  occ. eigenvalues --  -19.72690 -10.71393 -10.65588 -10.64201  -1.18997
 Alpha  occ. eigenvalues --   -0.93641  -0.75805  -0.67241  -0.57053  -0.56183
 Alpha  occ. eigenvalues --   -0.50403  -0.46681  -0.46365  -0.34776  -0.34009
 Alpha virt. eigenvalues --   -0.02092   0.05689   0.07019   0.08384   0.09744
 Alpha virt. eigenvalues --    0.12524   0.14211   0.15380   0.17435   0.19481
 Alpha virt. eigenvalues --    0.20114   0.21468   0.25511   0.26360   0.29174

 Mulliken charges:
               1
     1  C    0.145178
     2  O   -0.353130
     3  C   -0.025258
     4  C   -0.124083
     5  H    0.103574
     6  H    0.079408
     7  H    0.100032
     8  H    0.074279
 Sum of Mulliken charges =   0.00000

 Dipole moment (field-independent basis, Debye):
    X=             -3.5807    Y=              0.7936    Z=              0.2172  Tot=              3.6740
 Quadrupole moment (field-independent basis, Debye-Ang):
   XX=            -27.3043   YY=            -21.8660   ZZ=            -25.1459
   XY=              1.0430   XZ=              0.1228   YZ=             -0.1329

 Normal termination of Gaussian 09 at Wed Aug 26 08:45:35 2020.
