 Gaussian 09, Revision D.01,
 Gaussian 09:  ES64L-G09RevD.01 24-Apr-2013

 --------------------
 #p B2PLYPD3/Def2QZVP
 --------------------

 --------
 acrolein
 --------
 Symbolic Z-matrix:
 Charge =  0 Multiplicity = 1

                         Standard orientation:
 ---------------------------------------------------------------------
 Center     Atomic      Atomic             Coordinates (Angstroms)
 Number     Number       Type             X           Y           Z
 ---------------------------------------------------------------------
      1          6           0        0.673648    0.351863   -0.033672
      2          8           0        1.762030   -0.146195    0.049900
      3          6           0       -0.503443   -0.404617   -0.099568
      4          6           0       -1.756044    0.124988    0.013910
      5          1           0       -0.503192   -1.492968    0.089836
      6          1           0       -1.822338    1.243080    0.120964
      7          1           0       -2.846770   -0.484170    0.150821
      8          1           0        0.591102    1.470211   -0.044843
 ---------------------------------------------------------------------

 SCF Done:  E(RB2PLYPD3) =  -191.586623752     A.U. after   13 cycles
 E2(B2PLYPD3) =    -0.2492976155D+00 E(B2PLYPD3) =    -0.19183592136750D+03

 The electronic state is 1-A.
 Alpha  occ. eigenvalues --  -19.72392 -10.71123 -10.68365 -10.64592  -1.20191
 Alpha  occ. eigenvalues --   -0.92820  -0.75081  -0.66312  -0.57038  -0.55151
 Alpha  occ. eigenvalues --   -0.49276  -0.47585  -0.44627  -0.34307  -0.33850
 Alpha virt. eigenvalues --   -0.02586   0.04822   0.06684   0.08570   0.09584
 Alpha virt. eigenvalues --    0.11692   0.13791   0.15283   0.18142   0.19178
 Alpha virt. eigenvalues --    0.19720   0.20379   0.24544   0.26178   0.28937

 Mulliken charges:
               1
     1  C    0.145035
     2  O   -0.341178
     3  C   -0.033018
     4  C   -0.113438
     5  H    0.104369
     6  H    0.073686
     7  H    0.098843
     8  H    0.065701
 Sum of Mulliken charges =   0.00000

 Dipole moment (field-independent basis, Debye):
    X=             -3.5650    Y=              0.8106    Z=              0.1592  Tot=              3.6594
 Quadrupole moment (field-independent basis, Debye-Ang):
   XX=            -26.8664   YY=            -22.1391   ZZ=            -25.4034
   XY=              1.4618   XZ=             -0.9010   YZ=             -0.1492

 Normal termination of Gaussian 09 at Wed Aug 26 14:57:24 2020.
