 Gaussian 09, Revision D.01,
 Gaussian 09:  ES64L-G09RevD.01 24-Apr-2013

 --------------------
 #p B2PLYPD3/Def2QZVP
 --------------------

 --------
 acrolein
 --------
 Symbolic Z-matrix:
 Charge =  0 Multiplicity = 1

                         Standard orientation:
 ---------------------------------------------------------------------
 Center     Atomic      Atomic             Coordinates (Angstroms)
 Number     Number       Type             X           Y           Z
 ---------------------------------------------------------------------
      1          6           0        0.655367    0.352321    0.052132
      2          8           0        1.789567   -0.138281   -0.043426
      3          6           0       -0.547445   -0.431489    0.018958
      4          6           0       -1.742987    0.146679   -0.026871
      5          1           0       -0.476093   -1.493697    0.085005
      6          1           0       -1.742291    1.099046   -0.108151
      7          1           0       -2.765425   -0.428989    0.000078
      8          1           0        0.477664    1.524826    0.105162
 ---------------------------------------------------------------------

 SCF Done:  E(RB2PLYPD3) =  -191.589977367     A.U. after   13 cycles
 E2(B2PLYPD3) =    -0.2492563081D+00 E(B2PLYPD3) =    -0.19183923367477D+03

 The electronic state is 1-A.
 Alpha  occ. eigenvalues --  -19.73059 -10.72661 -10.65183 -10.64137  -1.18011
 Alpha  occ. eigenvalues --   -0.94230  -0.76051  -0.67336  -0.56810  -0.55797
 Alpha  occ. eigenvalues --   -0.49713  -0.47400  -0.46208  -0.34761  -0.34032
 Alpha virt. eigenvalues --   -0.02445   0.05590   0.06695   0.08086   0.09809
 Alpha virt. eigenvalues --    0.12360   0.13765   0.15199   0.17206   0.19811
 Alpha virt. eigenvalues --    0.20548   0.21431   0.25277   0.26087   0.29321

 Mulliken charges:
               1
     1  C    0.146010
     2  O   -0.358880
     3  C   -0.011322
     4  C   -0.135810
     5  H    0.105676
     6  H    0.094012
     7  H    0.101521
     8  H    0.058794
 Sum of Mulliken charges =   0.00000

 Dipole moment (field-independent basis, Debye):
    X=             -3.6768    Y=              0.7490    Z=              0.1684  Tot=              3.7561
 Quadrupole moment (field-independent basis, Debye-Ang):
   XX=            -27.3557   YY=            -21.9483   ZZ=            -25.2058
   XY=              1.1082   XZ=              0.3038   YZ=             -0.1922

 Normal termination of Gaussian 09 at Wed Aug 26 09:23:34 2020.
