 Gaussian 09, Revision D.01,
 Gaussian 09:  ES64L-G09RevD.01 24-Apr-2013

 --------------------
 #p B2PLYPD3/Def2QZVP
 --------------------

 --------
 acrolein
 --------
 Symbolic Z-matrix:
 Charge =  0 Multiplicity = 1

                         Standard orientation:
 ---------------------------------------------------------------------
 Center     Atomic      Atomic             Coordinates (Angstroms)
 Number     Number       Type             X           Y           Z
 ---------------------------------------------------------------------
      1          6           0       -0.666254    0.342795   -0.009756
      2          8           0       -1.799790   -0.115413    0.013608
      3          6           0        0.565596   -0.453859   -0.028695
      4          6           0        1.760161    0.142360    0.006669
      5          1           0        0.451403   -1.536076    0.023230
      6          1           0        1.844316    1.240837    0.017910
      7          1           0        2.632883   -0.431864    0.051342
      8          1           0       -0.487302    1.462624   -0.010649
 ---------------------------------------------------------------------

 SCF Done:  E(RB2PLYPD3) =  -191.614347405     A.U. after   12 cycles
 E2(B2PLYPD3) =    -0.2480560707D+00 E(B2PLYPD3) =    -0.19186240347610D+03

 The electronic state is 1-A.
 Alpha  occ. eigenvalues --  -19.72928 -10.72005 -10.65502 -10.64632  -1.18798
 Alpha  occ. eigenvalues --   -0.93179  -0.75753  -0.66498  -0.56796  -0.56004
 Alpha  occ. eigenvalues --   -0.50424  -0.47134  -0.46417  -0.34728  -0.33845
 Alpha virt. eigenvalues --   -0.02032   0.05739   0.07024   0.08107   0.09734
 Alpha virt. eigenvalues --    0.12576   0.13843   0.15298   0.17350   0.19689
 Alpha virt. eigenvalues --    0.19977   0.21785   0.25290   0.26462   0.28676

 Mulliken charges:
               1
     1  C    0.158962
     2  O   -0.353253
     3  C   -0.035899
     4  C   -0.128901
     5  H    0.103095
     6  H    0.086576
     7  H    0.106004
     8  H    0.063416
 Sum of Mulliken charges =   0.00000

 Dipole moment (field-independent basis, Debye):
    X=              3.5980    Y=              0.6994    Z=              0.0385  Tot=              3.6655
 Quadrupole moment (field-independent basis, Debye-Ang):
   XX=            -27.5759   YY=            -21.7284   ZZ=            -25.2642
   XY=             -0.8651   XZ=              0.2433   YZ=             -0.0618

 Normal termination of Gaussian 09 at Wed Aug 26 11:23:06 2020.
