 Gaussian 09, Revision D.01,
 Gaussian 09:  ES64L-G09RevD.01 24-Apr-2013

 --------------------
 #p B2PLYPD3/Def2QZVP
 --------------------

 --------
 acrolein
 --------
 Symbolic Z-matrix:
 Charge =  0 Multiplicity = 1

                         Standard orientation:
 ---------------------------------------------------------------------
 Center     Atomic      Atomic             Coordinates (Angstroms)
 Number     Number       Type             X           Y           Z
 ---------------------------------------------------------------------
      1          6           0        0.698619    0.359860   -0.033334
      2          8           0        1.765983   -0.155313    0.048176
      3          6           0       -0.531094   -0.387228   -0.090988
      4          6           0       -1.777905    0.110465    0.011748
      5          1           0       -0.435742   -1.418294    0.072663
      6          1           0       -1.882175    1.157650    0.155773
      7          1           0       -2.695332   -0.506008    0.127779
      8          1           0        0.547668    1.510579   -0.066180
 ---------------------------------------------------------------------

 SCF Done:  E(RB2PLYPD3) =  -191.606809595     A.U. after   13 cycles
 E2(B2PLYPD3) =    -0.2469396859D+00 E(B2PLYPD3) =    -0.19185374928126D+03

 The electronic state is 1-A.
 Alpha  occ. eigenvalues --  -19.73067 -10.71758 -10.65819 -10.63697  -1.21227
 Alpha  occ. eigenvalues --   -0.92871  -0.75900  -0.66602  -0.56853  -0.56445
 Alpha  occ. eigenvalues --   -0.51056  -0.47999  -0.46159  -0.34494  -0.33832
 Alpha virt. eigenvalues --   -0.02161   0.05696   0.07270   0.08615   0.09892
 Alpha virt. eigenvalues --    0.12399   0.13540   0.15387   0.18151   0.19307
 Alpha virt. eigenvalues --    0.19929   0.21568   0.25102   0.26188   0.28555

 Mulliken charges:
               1
     1  C    0.157916
     2  O   -0.331772
     3  C   -0.038019
     4  C   -0.122161
     5  H    0.101921
     6  H    0.077639
     7  H    0.102930
     8  H    0.051545
 Sum of Mulliken charges =   0.00000

 Dipole moment (field-independent basis, Debye):
    X=             -3.3488    Y=              0.7581    Z=              0.1605  Tot=              3.4372
 Quadrupole moment (field-independent basis, Debye-Ang):
   XX=            -26.8005   YY=            -22.2759   ZZ=            -25.1277
   XY=              1.2162   XZ=             -0.8666   YZ=             -0.0711

 Normal termination of Gaussian 09 at Wed Aug 26 12:49:42 2020.
