 Gaussian 09, Revision D.01,
 Gaussian 09:  ES64L-G09RevD.01 24-Apr-2013

 --------------------
 #p B2PLYPD3/Def2QZVP
 --------------------

 --------
 acrolein
 --------
 Symbolic Z-matrix:
 Charge =  0 Multiplicity = 1

                         Standard orientation:
 ---------------------------------------------------------------------
 Center     Atomic      Atomic             Coordinates (Angstroms)
 Number     Number       Type             X           Y           Z
 ---------------------------------------------------------------------
      1          6           0        0.671577    0.352464    0.027355
      2          8           0        1.785533   -0.128492   -0.028137
      3          6           0       -0.547235   -0.430009    0.008490
      4          6           0       -1.759806    0.133905   -0.010950
      5          1           0       -0.462404   -1.505290    0.082355
      6          1           0       -1.798838    1.202860   -0.057975
      7          1           0       -2.712846   -0.431095   -0.034811
      8          1           0        0.502604    1.423299    0.086156
 ---------------------------------------------------------------------

 SCF Done:  E(RB2PLYPD3) =  -191.614783097     A.U. after   13 cycles
 E2(B2PLYPD3) =    -0.2473874147D+00 E(B2PLYPD3) =    -0.19186217051132D+03

 The electronic state is 1-A.
 Alpha  occ. eigenvalues --  -19.72807 -10.71364 -10.65738 -10.64169  -1.19315
 Alpha  occ. eigenvalues --   -0.93207  -0.75830  -0.67319  -0.56722  -0.56340
 Alpha  occ. eigenvalues --   -0.50627  -0.46980  -0.46343  -0.34586  -0.34063
 Alpha virt. eigenvalues --   -0.02052   0.05704   0.07145   0.08317   0.09744
 Alpha virt. eigenvalues --    0.12547   0.14017   0.15294   0.17670   0.19659
 Alpha virt. eigenvalues --    0.20048   0.21377   0.25448   0.26525   0.29052

 Mulliken charges:
               1
     1  C    0.149842
     2  O   -0.350800
     3  C   -0.028421
     4  C   -0.132961
     5  H    0.102483
     6  H    0.079899
     7  H    0.105297
     8  H    0.074661
 Sum of Mulliken charges =   0.00000

 Dipole moment (field-independent basis, Debye):
    X=             -3.5379    Y=              0.7951    Z=              0.1189  Tot=              3.6280
 Quadrupole moment (field-independent basis, Debye-Ang):
   XX=            -27.3144   YY=            -21.8632   ZZ=            -25.1848
   XY=              1.1114   XZ=              0.2662   YZ=             -0.1272

 Normal termination of Gaussian 09 at Wed Aug 26 15:06:00 2020.
