 Gaussian 09, Revision D.01,
 Gaussian 09:  ES64L-G09RevD.01 24-Apr-2013

 --------------------
 #p B2PLYPD3/Def2QZVP
 --------------------

 --------
 acrolein
 --------
 Symbolic Z-matrix:
 Charge =  0 Multiplicity = 1

                         Standard orientation:
 ---------------------------------------------------------------------
 Center     Atomic      Atomic             Coordinates (Angstroms)
 Number     Number       Type             X           Y           Z
 ---------------------------------------------------------------------
      1          6           0        0.666665    0.339182    0.018526
      2          8           0        1.798702   -0.109281   -0.023385
      3          6           0       -0.569549   -0.448287    0.019374
      4          6           0       -1.758113    0.142038   -0.022673
      5          1           0       -0.425243   -1.538971    0.053013
      6          1           0       -1.841673    1.217797   -0.015061
      7          1           0       -2.650304   -0.406502   -0.017723
      8          1           0        0.493590    1.404327    0.075487
 ---------------------------------------------------------------------

 SCF Done:  E(RB2PLYPD3) =  -191.615492100     A.U. after   12 cycles
 E2(B2PLYPD3) =    -0.2471336709D+00 E(B2PLYPD3) =    -0.19186262577100D+03

 The electronic state is 1-A.
 Alpha  occ. eigenvalues --  -19.72831 -10.71338 -10.65166 -10.64542  -1.19006
 Alpha  occ. eigenvalues --   -0.93357  -0.76152  -0.67117  -0.56906  -0.56481
 Alpha  occ. eigenvalues --   -0.50806  -0.47001  -0.46409  -0.34848  -0.33877
 Alpha virt. eigenvalues --   -0.01919   0.05786   0.07187   0.08286   0.09731
 Alpha virt. eigenvalues --    0.12715   0.14065   0.15315   0.17363   0.19728
 Alpha virt. eigenvalues --    0.20044   0.21847   0.25440   0.26643   0.28658

 Mulliken charges:
               1
     1  C    0.157739
     2  O   -0.354830
     3  C   -0.032498
     4  C   -0.131215
     5  H    0.100510
     6  H    0.084576
     7  H    0.105307
     8  H    0.070411
 Sum of Mulliken charges =   0.00000

 Dipole moment (field-independent basis, Debye):
    X=             -3.5820    Y=              0.7419    Z=              0.1180  Tot=              3.6599
 Quadrupole moment (field-independent basis, Debye-Ang):
   XX=            -27.4674   YY=            -21.7818   ZZ=            -25.1477
   XY=              0.7738   XZ=              0.1593   YZ=             -0.0445

 Normal termination of Gaussian 09 at Wed Aug 26 16:16:18 2020.
