 Gaussian 09, Revision D.01,
 Gaussian 09:  ES64L-G09RevD.01 24-Apr-2013

 --------------------
 #p B2PLYPD3/Def2QZVP
 --------------------

 --------
 acrolein
 --------
 Symbolic Z-matrix:
 Charge =  0 Multiplicity = 1

                         Standard orientation:
 ---------------------------------------------------------------------
 Center     Atomic      Atomic             Coordinates (Angstroms)
 Number     Number       Type             X           Y           Z
 ---------------------------------------------------------------------
      1          6           0        0.675350    0.347737    0.008468
      2          8           0        1.793428   -0.117330   -0.002684
      3          6           0       -0.576405   -0.460742    0.002808
      4          6           0       -1.750635    0.145281   -0.011790
      5          1           0       -0.454062   -1.525505   -0.022942
      6          1           0       -1.841829    1.222642   -0.018607
      7          1           0       -2.641984   -0.395077    0.059728
      8          1           0        0.500595    1.442928    0.006377
 ---------------------------------------------------------------------

 SCF Done:  E(RB2PLYPD3) =  -191.616031521     A.U. after   12 cycles
 E2(B2PLYPD3) =    -0.2467263176D+00 E(B2PLYPD3) =    -0.19186275783891D+03

 The electronic state is 1-A.
 Alpha  occ. eigenvalues --  -19.72948 -10.71759 -10.64773 -10.64255  -1.19526
 Alpha  occ. eigenvalues --   -0.93163  -0.75425  -0.67121  -0.56837  -0.56376
 Alpha  occ. eigenvalues --   -0.50893  -0.47228  -0.46656  -0.34901  -0.33754
 Alpha virt. eigenvalues --   -0.01487   0.05829   0.07293   0.08054   0.09744
 Alpha virt. eigenvalues --    0.12695   0.14046   0.15361   0.17456   0.19794
 Alpha virt. eigenvalues --    0.19941   0.21843   0.25491   0.26548   0.28573

 Mulliken charges:
               1
     1  C    0.156987
     2  O   -0.347013
     3  C   -0.042232
     4  C   -0.128304
     5  H    0.105917
     6  H    0.082891
     7  H    0.100913
     8  H    0.070841
 Sum of Mulliken charges =   0.00000

 Dipole moment (field-independent basis, Debye):
    X=             -3.4533    Y=              0.7433    Z=              0.0334  Tot=              3.5325
 Quadrupole moment (field-independent basis, Debye-Ang):
   XX=            -27.4975   YY=            -21.7143   ZZ=            -25.1455
   XY=              0.8235   XZ=             -0.0967   YZ=             -0.0157

 Normal termination of Gaussian 09 at Wed Aug 26 16:07:55 2020.
