 Gaussian 09, Revision D.01,
 Gaussian 09:  ES64L-G09RevD.01 24-Apr-2013

 --------------------
 #p B2PLYPD3/Def2QZVP
 --------------------

 --------
 acrolein
 --------
 Symbolic Z-matrix:
 Charge =  0 Multiplicity = 1

                         Standard orientation:
 ---------------------------------------------------------------------
 Center     Atomic      Atomic             Coordinates (Angstroms)
 Number     Number       Type             X           Y           Z
 ---------------------------------------------------------------------
      1          6           0        0.678142    0.379377    0.014837
      2          8           0        1.802384   -0.162240   -0.054659
      3          6           0       -0.552657   -0.401150    0.047742
      4          6           0       -1.759496    0.125265   -0.026012
      5          1           0       -0.453178   -1.563989    0.201357
      6          1           0       -1.787447    1.068502   -0.157144
      7          1           0       -2.794840   -0.465309   -0.108486
      8          1           0        0.420458    1.637767    0.282150
 ---------------------------------------------------------------------

 SCF Done:  E(RB2PLYPD3) =  -191.560619162     A.U. after   13 cycles
 E2(B2PLYPD3) =    -0.2523470219D+00 E(B2PLYPD3) =    -0.19181296618375D+03

 The electronic state is 1-A.
 Alpha  occ. eigenvalues --  -19.74109 -10.74581 -10.65434 -10.65136  -1.18081
 Alpha  occ. eigenvalues --   -0.93849  -0.75759  -0.65265  -0.55672  -0.55616
 Alpha  occ. eigenvalues --   -0.49848  -0.46636  -0.44757  -0.35210  -0.34018
 Alpha virt. eigenvalues --   -0.02684   0.05104   0.05481   0.07851   0.09758
 Alpha virt. eigenvalues --    0.12116   0.13135   0.15014   0.16657   0.18988
 Alpha virt. eigenvalues --    0.20441   0.21779   0.24603   0.26196   0.28496

 Mulliken charges:
               1
     1  C    0.160470
     2  O   -0.346207
     3  C   -0.017552
     4  C   -0.126630
     5  H    0.096149
     6  H    0.088043
     7  H    0.102882
     8  H    0.042845
 Sum of Mulliken charges =   0.00000

 Dipole moment (field-independent basis, Debye):
    X=             -3.5887    Y=              0.7332    Z=              0.1393  Tot=              3.6655
 Quadrupole moment (field-independent basis, Debye-Ang):
   XX=            -27.2143   YY=            -22.3424   ZZ=            -25.4193
   XY=              1.0221   XZ=              0.6500   YZ=             -0.2197

 Normal termination of Gaussian 09 at Wed Aug 26 14:43:19 2020.
