 Gaussian 09, Revision D.01,
 Gaussian 09:  ES64L-G09RevD.01 24-Apr-2013

 --------------------
 #p B2PLYPD3/Def2QZVP
 --------------------

 --------
 acrolein
 --------
 Symbolic Z-matrix:
 Charge =  0 Multiplicity = 1

                         Standard orientation:
 ---------------------------------------------------------------------
 Center     Atomic      Atomic             Coordinates (Angstroms)
 Number     Number       Type             X           Y           Z
 ---------------------------------------------------------------------
      1          6           0       -0.668617    0.348066   -0.013491
      2          8           0       -1.789919   -0.120803    0.017424
      3          6           0        0.556738   -0.438640   -0.019867
      4          6           0        1.758621    0.142647    0.004944
      5          1           0        0.456215   -1.522458   -0.037346
      6          1           0        1.837381    1.216360   -0.010914
      7          1           0        2.670154   -0.441272    0.090241
      8          1           0       -0.524847    1.401352   -0.010894
 ---------------------------------------------------------------------

 SCF Done:  E(RB2PLYPD3) =  -191.615790819     A.U. after   12 cycles
 E2(B2PLYPD3) =    -0.2470637585D+00 E(B2PLYPD3) =    -0.19186285457752D+03

 The electronic state is 1-A.
 Alpha  occ. eigenvalues --  -19.72651 -10.71059 -10.65565 -10.64348  -1.19123
 Alpha  occ. eigenvalues --   -0.93179  -0.75919  -0.67486  -0.56902  -0.56347
 Alpha  occ. eigenvalues --   -0.50483  -0.47017  -0.46524  -0.34614  -0.33940
 Alpha virt. eigenvalues --   -0.01963   0.05725   0.07190   0.08300   0.09728
 Alpha virt. eigenvalues --    0.12600   0.14047   0.15349   0.17592   0.19725
 Alpha virt. eigenvalues --    0.19947   0.21652   0.25501   0.26537   0.28822

 Mulliken charges:
               1
     1  C    0.152204
     2  O   -0.354381
     3  C   -0.032990
     4  C   -0.134249
     5  H    0.103018
     6  H    0.085240
     7  H    0.104142
     8  H    0.077016
 Sum of Mulliken charges =   0.00000

 Dipole moment (field-independent basis, Debye):
    X=              3.5551    Y=              0.7969    Z=             -0.0220  Tot=              3.6434
 Quadrupole moment (field-independent basis, Debye-Ang):
   XX=            -27.4963   YY=            -21.6982   ZZ=            -25.1632
   XY=             -1.0090   XZ=              0.2758   YZ=             -0.0272

 Normal termination of Gaussian 09 at Wed Aug 26 16:28:13 2020.
