 Gaussian 09, Revision D.01,
 Gaussian 09:  ES64L-G09RevD.01 24-Apr-2013

 --------------------
 #p B2PLYPD3/Def2QZVP
 --------------------

 --------
 acrolein
 --------
 Symbolic Z-matrix:
 Charge =  0 Multiplicity = 1

                         Standard orientation:
 ---------------------------------------------------------------------
 Center     Atomic      Atomic             Coordinates (Angstroms)
 Number     Number       Type             X           Y           Z
 ---------------------------------------------------------------------
      1          6           0        0.656346    0.323119    0.013430
      2          8           0        1.809902   -0.104119   -0.023750
      3          6           0       -0.567494   -0.460559    0.012789
      4          6           0       -1.759418    0.158650   -0.012007
      5          1           0       -0.471449   -1.546989    0.056108
      6          1           0       -1.805601    1.237008   -0.093810
      7          1           0       -2.661181   -0.431336    0.001225
      8          1           0        0.482411    1.447004    0.141204
 ---------------------------------------------------------------------

 SCF Done:  E(RB2PLYPD3) =  -191.612869188     A.U. after   12 cycles
 E2(B2PLYPD3) =    -0.2488458754D+00 E(B2PLYPD3) =    -0.19186171506322D+03

 The electronic state is 1-A.
 Alpha  occ. eigenvalues --  -19.72861 -10.72046 -10.65993 -10.64869  -1.18260
 Alpha  occ. eigenvalues --   -0.93393  -0.75820  -0.66457  -0.56566  -0.55967
 Alpha  occ. eigenvalues --   -0.50019  -0.47523  -0.46123  -0.34705  -0.33753
 Alpha virt. eigenvalues --   -0.02383   0.05721   0.06820   0.08069   0.09709
 Alpha virt. eigenvalues --    0.12634   0.13787   0.15217   0.17283   0.19470
 Alpha virt. eigenvalues --    0.20263   0.21534   0.24961   0.26547   0.28784

 Mulliken charges:
               1
     1  C    0.155840
     2  O   -0.357214
     3  C   -0.029124
     4  C   -0.128343
     5  H    0.102317
     6  H    0.092492
     7  H    0.106348
     8  H    0.057685
 Sum of Mulliken charges =   0.00000

 Dipole moment (field-independent basis, Debye):
    X=             -3.7235    Y=              0.6247    Z=              0.0845  Tot=              3.7765
 Quadrupole moment (field-independent basis, Debye-Ang):
   XX=            -27.6682   YY=            -21.7722   ZZ=            -25.2978
   XY=              0.8423   XZ=              0.2385   YZ=             -0.1433

 Normal termination of Gaussian 09 at Wed Aug 26 09:45:33 2020.
