 Gaussian 09, Revision D.01,
 Gaussian 09:  ES64L-G09RevD.01 24-Apr-2013

 --------------------
 #p B2PLYPD3/Def2QZVP
 --------------------

 --------
 acrolein
 --------
 Symbolic Z-matrix:
 Charge =  0 Multiplicity = 1

                         Standard orientation:
 ---------------------------------------------------------------------
 Center     Atomic      Atomic             Coordinates (Angstroms)
 Number     Number       Type             X           Y           Z
 ---------------------------------------------------------------------
      1          6           0       -0.675996    0.332566    0.017235
      2          8           0       -1.797955   -0.098382   -0.035284
      3          6           0        0.561939   -0.469076    0.041739
      4          6           0        1.775943    0.145380   -0.041527
      5          1           0        0.389526   -1.579534    0.077265
      6          1           0        1.915638    1.261956   -0.002313
      7          1           0        2.616183   -0.416217   -0.034958
      8          1           0       -0.509028    1.467627    0.137600
 ---------------------------------------------------------------------

 SCF Done:  E(RB2PLYPD3) =  -191.606466405     A.U. after   13 cycles
 E2(B2PLYPD3) =    -0.2480723168D+00 E(B2PLYPD3) =    -0.19185453872159D+03

 The electronic state is 1-A.
 Alpha  occ. eigenvalues --  -19.72903 -10.71854 -10.65853 -10.65545  -1.19988
 Alpha  occ. eigenvalues --   -0.92293  -0.75884  -0.65643  -0.56888  -0.55651
 Alpha  occ. eigenvalues --   -0.50672  -0.47369  -0.46631  -0.34382  -0.33536
 Alpha virt. eigenvalues --   -0.02100   0.05747   0.06904   0.08266   0.09629
 Alpha virt. eigenvalues --    0.12470   0.13944   0.15368   0.17069   0.19452
 Alpha virt. eigenvalues --    0.20021   0.21958   0.24936   0.26427   0.28266

 Mulliken charges:
               1
     1  C    0.166292
     2  O   -0.341321
     3  C   -0.047678
     4  C   -0.127599
     5  H    0.101545
     6  H    0.089607
     7  H    0.107372
     8  H    0.051782
 Sum of Mulliken charges =   0.00000

 Dipole moment (field-independent basis, Debye):
    X=              3.5113    Y=              0.6089    Z=              0.1689  Tot=              3.5677
 Quadrupole moment (field-independent basis, Debye-Ang):
   XX=            -27.3409   YY=            -21.7886   ZZ=            -25.3777
   XY=             -0.5369   XZ=             -0.2386   YZ=             -0.0300

 Normal termination of Gaussian 09 at Wed Aug 26 20:44:13 2020.
