 Gaussian 09, Revision D.01,
 Gaussian 09:  ES64L-G09RevD.01 24-Apr-2013

 --------------------
 #p B2PLYPD3/Def2QZVP
 --------------------

 --------
 acrolein
 --------
 Symbolic Z-matrix:
 Charge =  0 Multiplicity = 1

                         Standard orientation:
 ---------------------------------------------------------------------
 Center     Atomic      Atomic             Coordinates (Angstroms)
 Number     Number       Type             X           Y           Z
 ---------------------------------------------------------------------
      1          6           0        0.682644    0.311847   -0.080832
      2          8           0        1.805604   -0.084626    0.075390
      3          6           0       -0.563103   -0.479964   -0.073618
      4          6           0       -1.799218    0.170536    0.066154
      5          1           0       -0.385792   -1.656879   -0.129755
      6          1           0       -1.856690    1.280259   -0.118612
      7          1           0       -2.626454   -0.441258    0.207969
      8          1           0        0.502168    1.480365   -0.032950
 ---------------------------------------------------------------------

 SCF Done:  E(RB2PLYPD3) =  -191.591562780     A.U. after   14 cycles
 E2(B2PLYPD3) =    -0.2503287054D+00 E(B2PLYPD3) =    -0.19184189148580D+03

 The electronic state is 1-A.
 Alpha  occ. eigenvalues --  -19.73015 -10.72201 -10.67028 -10.66873  -1.20157
 Alpha  occ. eigenvalues --   -0.91444  -0.75554  -0.64497  -0.56481  -0.55121
 Alpha  occ. eigenvalues --   -0.50279  -0.47498  -0.46429  -0.33702  -0.33383
 Alpha virt. eigenvalues --   -0.02720   0.05686   0.06489   0.07768   0.09572
 Alpha virt. eigenvalues --    0.12284   0.13642   0.15292   0.16747   0.19553
 Alpha virt. eigenvalues --    0.20252   0.21489   0.23839   0.26471   0.28449

 Mulliken charges:
               1
     1  C    0.168385
     2  O   -0.333335
     3  C   -0.042018
     4  C   -0.136090
     5  H    0.092777
     6  H    0.103760
     7  H    0.114698
     8  H    0.031824
 Sum of Mulliken charges =   0.00000

 Dipole moment (field-independent basis, Debye):
    X=             -3.5193    Y=              0.4999    Z=             -0.2839  Tot=              3.5660
 Quadrupole moment (field-independent basis, Debye-Ang):
   XX=            -27.4955   YY=            -21.8578   ZZ=            -25.5982
   XY=              0.5504   XZ=             -0.6424   YZ=             -0.1145

 Normal termination of Gaussian 09 at Wed Aug 26 13:11:17 2020.
