 Gaussian 09, Revision D.01,
 Gaussian 09:  ES64L-G09RevD.01 24-Apr-2013

 --------------------
 #p B2PLYPD3/Def2QZVP
 --------------------

 --------
 acrolein
 --------
 Symbolic Z-matrix:
 Charge =  0 Multiplicity = 1

                         Standard orientation:
 ---------------------------------------------------------------------
 Center     Atomic      Atomic             Coordinates (Angstroms)
 Number     Number       Type             X           Y           Z
 ---------------------------------------------------------------------
      1          6           0       -0.691910    0.358400    0.083992
      2          8           0       -1.770789   -0.112404   -0.072227
      3          6           0        0.561566   -0.488897    0.042837
      4          6           0        1.762912    0.173898   -0.070767
      5          1           0        0.484307   -1.566085    0.038420
      6          1           0        1.848764    1.289760   -0.186889
      7          1           0        2.636745   -0.424790    0.151478
      8          1           0       -0.598908    1.339948    0.238434
 ---------------------------------------------------------------------

 SCF Done:  E(RB2PLYPD3) =  -191.598080653     A.U. after   14 cycles
 E2(B2PLYPD3) =    -0.2467217160D+00 E(B2PLYPD3) =    -0.19184480236935D+03

 The electronic state is 1-A.
 Alpha  occ. eigenvalues --  -19.72440 -10.70336 -10.65923 -10.64953  -1.20818
 Alpha  occ. eigenvalues --   -0.91223  -0.74799  -0.68326  -0.57098  -0.55502
 Alpha  occ. eigenvalues --   -0.50256  -0.47697  -0.46810  -0.34114  -0.32985
 Alpha virt. eigenvalues --   -0.01574   0.05737   0.07210   0.07814   0.09678
 Alpha virt. eigenvalues --    0.12453   0.14105   0.15760   0.17632   0.18508
 Alpha virt. eigenvalues --    0.20127   0.21817   0.24838   0.26575   0.28858

 Mulliken charges:
               1
     1  C    0.156889
     2  O   -0.335752
     3  C   -0.070024
     4  C   -0.138885
     5  H    0.112353
     6  H    0.085227
     7  H    0.097306
     8  H    0.092885
 Sum of Mulliken charges =   0.00000

 Dipole moment (field-independent basis, Debye):
    X=              3.1383    Y=              0.8508    Z=              0.3695  Tot=              3.2726
 Quadrupole moment (field-independent basis, Debye-Ang):
   XX=            -27.9214   YY=            -21.2143   ZZ=            -25.2800
   XY=             -0.9879   XZ=             -0.2902   YZ=             -0.2797

 Normal termination of Gaussian 09 at Wed Aug 26 11:32:57 2020.
