 Gaussian 09, Revision D.01,
 Gaussian 09:  ES64L-G09RevD.01 24-Apr-2013

 --------------------
 #p B2PLYPD3/Def2QZVP
 --------------------

 --------
 acrolein
 --------
 Symbolic Z-matrix:
 Charge =  0 Multiplicity = 1

                         Standard orientation:
 ---------------------------------------------------------------------
 Center     Atomic      Atomic             Coordinates (Angstroms)
 Number     Number       Type             X           Y           Z
 ---------------------------------------------------------------------
      1          6           0        0.663673    0.335095   -0.019282
      2          8           0        1.789191   -0.109209    0.018301
      3          6           0       -0.553953   -0.449269   -0.013112
      4          6           0       -1.755716    0.147880    0.002247
      5          1           0       -0.433742   -1.545004   -0.000909
      6          1           0       -1.843655    1.215489    0.082728
      7          1           0       -2.667396   -0.427284    0.009119
      8          1           0        0.507236    1.428233   -0.056464
 ---------------------------------------------------------------------

 SCF Done:  E(RB2PLYPD3) =  -191.616137883     A.U. after   12 cycles
 E2(B2PLYPD3) =    -0.2473059746D+00 E(B2PLYPD3) =    -0.19186344385761D+03

 The electronic state is 1-A.
 Alpha  occ. eigenvalues --  -19.72650 -10.71262 -10.65711 -10.64670  -1.19412
 Alpha  occ. eigenvalues --   -0.93158  -0.75923  -0.66800  -0.56688  -0.56419
 Alpha  occ. eigenvalues --   -0.50390  -0.47099  -0.46784  -0.34606  -0.33781
 Alpha virt. eigenvalues --   -0.02069   0.05750   0.07065   0.08389   0.09742
 Alpha virt. eigenvalues --    0.12642   0.14020   0.15330   0.17344   0.19735
 Alpha virt. eigenvalues --    0.20108   0.21638   0.25368   0.26448   0.28695

 Mulliken charges:
               1
     1  C    0.154819
     2  O   -0.350882
     3  C   -0.031094
     4  C   -0.131391
     5  H    0.101950
     6  H    0.088958
     7  H    0.103910
     8  H    0.063730
 Sum of Mulliken charges =   0.00000

 Dipole moment (field-independent basis, Debye):
    X=             -3.5875    Y=              0.7010    Z=             -0.0025  Tot=              3.6554
 Quadrupole moment (field-independent basis, Debye-Ang):
   XX=            -27.3993   YY=            -21.7801   ZZ=            -25.2075
   XY=              0.8135   XZ=             -0.2492   YZ=              0.0749

 Normal termination of Gaussian 09 at Wed Aug 26 11:14:44 2020.
