 Gaussian 09, Revision D.01,
 Gaussian 09:  ES64L-G09RevD.01 24-Apr-2013

 --------------------
 #p B2PLYPD3/Def2QZVP
 --------------------

 --------
 acrolein
 --------
 Symbolic Z-matrix:
 Charge =  0 Multiplicity = 1

                         Standard orientation:
 ---------------------------------------------------------------------
 Center     Atomic      Atomic             Coordinates (Angstroms)
 Number     Number       Type             X           Y           Z
 ---------------------------------------------------------------------
      1          6           0        0.668561    0.351402    0.016744
      2          8           0        1.781607   -0.129568   -0.018485
      3          6           0       -0.562778   -0.439274    0.038193
      4          6           0       -1.744285    0.141872   -0.022472
      5          1           0       -0.442650   -1.493217   -0.020274
      6          1           0       -1.798507    1.173685    0.017670
      7          1           0       -2.707832   -0.415605   -0.042114
      8          1           0        0.527145    1.447678   -0.002202
 ---------------------------------------------------------------------

 SCF Done:  E(RB2PLYPD3) =  -191.614296589     A.U. after   12 cycles
 E2(B2PLYPD3) =    -0.2466984584D+00 E(B2PLYPD3) =    -0.19186099504764D+03

 The electronic state is 1-A.
 Alpha  occ. eigenvalues --  -19.72795 -10.71538 -10.65025 -10.63887  -1.19395
 Alpha  occ. eigenvalues --   -0.93582  -0.75507  -0.67528  -0.57002  -0.56355
 Alpha  occ. eigenvalues --   -0.50595  -0.47039  -0.46766  -0.34941  -0.33871
 Alpha virt. eigenvalues --   -0.01643   0.05778   0.07246   0.08216   0.09819
 Alpha virt. eigenvalues --    0.12583   0.13963   0.15298   0.17593   0.19881
 Alpha virt. eigenvalues --    0.20180   0.21497   0.25389   0.26506   0.28940

 Mulliken charges:
               1
     1  C    0.150359
     2  O   -0.350667
     3  C   -0.032577
     4  C   -0.129195
     5  H    0.107457
     6  H    0.085185
     7  H    0.099034
     8  H    0.070403
 Sum of Mulliken charges =   0.00000

 Dipole moment (field-independent basis, Debye):
    X=             -3.4838    Y=              0.7930    Z=              0.0187  Tot=              3.5729
 Quadrupole moment (field-independent basis, Debye-Ang):
   XX=            -27.3455   YY=            -21.8278   ZZ=            -25.1000
   XY=              1.0032   XZ=              0.1778   YZ=              0.0930

 Normal termination of Gaussian 09 at Wed Aug 26 20:54:25 2020.
