 Gaussian 09, Revision D.01,
 Gaussian 09:  ES64L-G09RevD.01 24-Apr-2013

 --------------------
 #p B2PLYPD3/Def2QZVP
 --------------------

 --------
 acrolein
 --------
 Symbolic Z-matrix:
 Charge =  0 Multiplicity = 1

                         Standard orientation:
 ---------------------------------------------------------------------
 Center     Atomic      Atomic             Coordinates (Angstroms)
 Number     Number       Type             X           Y           Z
 ---------------------------------------------------------------------
      1          6           0        0.665580    0.348183    0.014504
      2          8           0        1.785373   -0.127739   -0.022469
      3          6           0       -0.552892   -0.441021    0.017272
      4          6           0       -1.744482    0.144230   -0.024883
      5          1           0       -0.465420   -1.477920    0.064642
      6          1           0       -1.780695    1.181787   -0.027710
      7          1           0       -2.727000   -0.440057    0.002557
      8          1           0        0.480891    1.449742    0.098903
 ---------------------------------------------------------------------

 SCF Done:  E(RB2PLYPD3) =  -191.611068035     A.U. after   13 cycles
 E2(B2PLYPD3) =    -0.2474282941D+00 E(B2PLYPD3) =    -0.19185849632887D+03

 The electronic state is 1-A.
 Alpha  occ. eigenvalues --  -19.72880 -10.71722 -10.65594 -10.63733  -1.19174
 Alpha  occ. eigenvalues --   -0.93626  -0.75476  -0.67666  -0.56771  -0.56069
 Alpha  occ. eigenvalues --   -0.50376  -0.47344  -0.46615  -0.34781  -0.33949
 Alpha virt. eigenvalues --   -0.01911   0.05677   0.07101   0.08259   0.09788
 Alpha virt. eigenvalues --    0.12565   0.13826   0.15312   0.17723   0.19761
 Alpha virt. eigenvalues --    0.20202   0.21241   0.25535   0.26396   0.28967

 Mulliken charges:
               1
     1  C    0.148425
     2  O   -0.352064
     3  C   -0.025613
     4  C   -0.132509
     5  H    0.108026
     6  H    0.086641
     7  H    0.099223
     8  H    0.067871
 Sum of Mulliken charges =   0.00000

 Dipole moment (field-independent basis, Debye):
    X=             -3.5405    Y=              0.7486    Z=              0.1362  Tot=              3.6213
 Quadrupole moment (field-independent basis, Debye-Ang):
   XX=            -27.4206   YY=            -21.8568   ZZ=            -25.1540
   XY=              1.0243   XZ=              0.1088   YZ=             -0.0751

 Normal termination of Gaussian 09 at Wed Aug 26 19:44:32 2020.
