 Gaussian 09, Revision D.01,
 Gaussian 09:  ES64L-G09RevD.01 24-Apr-2013

 --------------------
 #p B2PLYPD3/Def2QZVP
 --------------------

 --------
 acrolein
 --------
 Symbolic Z-matrix:
 Charge =  0 Multiplicity = 1

                         Standard orientation:
 ---------------------------------------------------------------------
 Center     Atomic      Atomic             Coordinates (Angstroms)
 Number     Number       Type             X           Y           Z
 ---------------------------------------------------------------------
      1          6           0       -0.674612    0.352715    0.011431
      2          8           0       -1.781852   -0.126298   -0.015705
      3          6           0        0.542534   -0.442333    0.033424
      4          6           0        1.764148    0.132646   -0.017622
      5          1           0        0.450226   -1.498510   -0.014436
      6          1           0        1.837369    1.220147    0.010399
      7          1           0        2.670839   -0.439809   -0.040802
      8          1           0       -0.496036    1.470397    0.007078
 ---------------------------------------------------------------------

 SCF Done:  E(RB2PLYPD3) =  -191.615355470     A.U. after   13 cycles
 E2(B2PLYPD3) =    -0.2474549942D+00 E(B2PLYPD3) =    -0.19186281046456D+03

 The electronic state is 1-A.
 Alpha  occ. eigenvalues --  -19.72838 -10.71695 -10.65771 -10.64235  -1.19817
 Alpha  occ. eigenvalues --   -0.92815  -0.75651  -0.66897  -0.56599  -0.56311
 Alpha  occ. eigenvalues --   -0.50583  -0.47135  -0.46995  -0.34385  -0.33895
 Alpha virt. eigenvalues --   -0.02038   0.05751   0.07187   0.08279   0.09782
 Alpha virt. eigenvalues --    0.12517   0.13878   0.15357   0.17645   0.19762
 Alpha virt. eigenvalues --    0.19933   0.21552   0.25327   0.26394   0.28838

 Mulliken charges:
               1
     1  C    0.155611
     2  O   -0.345248
     3  C   -0.036875
     4  C   -0.132591
     5  H    0.106629
     6  H    0.082956
     7  H    0.105092
     8  H    0.064426
 Sum of Mulliken charges =   0.00000

 Dipole moment (field-independent basis, Debye):
    X=              3.4991    Y=              0.7263    Z=              0.0058  Tot=              3.5737
 Quadrupole moment (field-independent basis, Debye-Ang):
   XX=            -27.2812   YY=            -21.8300   ZZ=            -25.2481
   XY=             -1.0036   XZ=             -0.1799   YZ=              0.0809

 Normal termination of Gaussian 09 at Wed Aug 26 20:19:54 2020.
