 Gaussian 09, Revision D.01,
 Gaussian 09:  ES64L-G09RevD.01 24-Apr-2013

 --------------------
 #p B2PLYPD3/Def2QZVP
 --------------------

 --------
 acrolein
 --------
 Symbolic Z-matrix:
 Charge =  0 Multiplicity = 1

                         Standard orientation:
 ---------------------------------------------------------------------
 Center     Atomic      Atomic             Coordinates (Angstroms)
 Number     Number       Type             X           Y           Z
 ---------------------------------------------------------------------
      1          6           0       -0.664676    0.343014   -0.020816
      2          8           0       -1.797268   -0.115606    0.021171
      3          6           0        0.571024   -0.463775   -0.018043
      4          6           0        1.754873    0.142316    0.009037
      5          1           0        0.459983   -1.504564    0.002813
      6          1           0        1.816540    1.245315    0.096891
      7          1           0        2.618882   -0.406877   -0.010608
      8          1           0       -0.484585    1.461645   -0.079532
 ---------------------------------------------------------------------

 SCF Done:  E(RB2PLYPD3) =  -191.612103252     A.U. after   13 cycles
 E2(B2PLYPD3) =    -0.2476632462D+00 E(B2PLYPD3) =    -0.19185976649772D+03

 The electronic state is 1-A.
 Alpha  occ. eigenvalues --  -19.72937 -10.72032 -10.65140 -10.64155  -1.18811
 Alpha  occ. eigenvalues --   -0.93367  -0.75708  -0.67032  -0.57177  -0.55875
 Alpha  occ. eigenvalues --   -0.50580  -0.47612  -0.46363  -0.34768  -0.33806
 Alpha virt. eigenvalues --   -0.01868   0.05768   0.07222   0.07973   0.09763
 Alpha virt. eigenvalues --    0.12647   0.13857   0.15346   0.17469   0.19506
 Alpha virt. eigenvalues --    0.20139   0.21794   0.25276   0.26509   0.28799

 Mulliken charges:
               1
     1  C    0.158376
     2  O   -0.353323
     3  C   -0.040403
     4  C   -0.126834
     5  H    0.107192
     6  H    0.084804
     7  H    0.104646
     8  H    0.065542
 Sum of Mulliken charges =   0.00000

 Dipole moment (field-independent basis, Debye):
    X=              3.5654    Y=              0.6841    Z=             -0.0215  Tot=              3.6305
 Quadrupole moment (field-independent basis, Debye-Ang):
   XX=            -27.6079   YY=            -21.7085   ZZ=            -25.1843
   XY=             -0.8951   XZ=              0.2328   YZ=              0.0836

 Normal termination of Gaussian 09 at Wed Aug 26 15:30:25 2020.
