 Gaussian 09, Revision D.01,
 Gaussian 09:  ES64L-G09RevD.01 24-Apr-2013

 --------------------
 #p B2PLYPD3/Def2QZVP
 --------------------

 --------
 acrolein
 --------
 Symbolic Z-matrix:
 Charge =  0 Multiplicity = 1

                         Standard orientation:
 ---------------------------------------------------------------------
 Center     Atomic      Atomic             Coordinates (Angstroms)
 Number     Number       Type             X           Y           Z
 ---------------------------------------------------------------------
      1          6           0       -0.671445    0.346749    0.003372
      2          8           0       -1.778926   -0.124898   -0.013548
      3          6           0        0.552327   -0.450436    0.014385
      4          6           0        1.758807    0.136299   -0.019788
      5          1           0        0.437443   -1.493732    0.045564
      6          1           0        1.815306    1.223805   -0.007843
      7          1           0        2.660009   -0.420401    0.006061
      8          1           0       -0.519486    1.493845    0.076791
 ---------------------------------------------------------------------

 SCF Done:  E(RB2PLYPD3) =  -191.614480098     A.U. after   12 cycles
 E2(B2PLYPD3) =    -0.2471599601D+00 E(B2PLYPD3) =    -0.19186164005785D+03

 The electronic state is 1-A.
 Alpha  occ. eigenvalues --  -19.72862 -10.71880 -10.65458 -10.64141  -1.20009
 Alpha  occ. eigenvalues --   -0.93000  -0.75496  -0.66699  -0.56861  -0.56182
 Alpha  occ. eigenvalues --   -0.50633  -0.47500  -0.46975  -0.34574  -0.33735
 Alpha virt. eigenvalues --   -0.01828   0.05811   0.07136   0.08321   0.09806
 Alpha virt. eigenvalues --    0.12509   0.13886   0.15377   0.17512   0.19703
 Alpha virt. eigenvalues --    0.20017   0.21611   0.25465   0.26320   0.28938

 Mulliken charges:
               1
     1  C    0.158140
     2  O   -0.342547
     3  C   -0.039432
     4  C   -0.129496
     5  H    0.107746
     6  H    0.084543
     7  H    0.104720
     8  H    0.056325
 Sum of Mulliken charges =   0.00000

 Dipole moment (field-independent basis, Debye):
    X=              3.4578    Y=              0.6724    Z=              0.0953  Tot=              3.5239
 Quadrupole moment (field-independent basis, Debye-Ang):
   XX=            -27.2718   YY=            -21.8579   ZZ=            -25.2161
   XY=             -0.9727   XZ=             -0.0420   YZ=             -0.0385

 Normal termination of Gaussian 09 at Wed Aug 26 15:58:05 2020.
