 Gaussian 09, Revision D.01,
 Gaussian 09:  ES64L-G09RevD.01 24-Apr-2013

 --------------------
 #p B2PLYPD3/Def2QZVP
 --------------------

 --------
 acrolein
 --------
 Symbolic Z-matrix:
 Charge =  0 Multiplicity = 1

                         Standard orientation:
 ---------------------------------------------------------------------
 Center     Atomic      Atomic             Coordinates (Angstroms)
 Number     Number       Type             X           Y           Z
 ---------------------------------------------------------------------
      1          6           0       -0.669241    0.348087   -0.020938
      2          8           0       -1.794888   -0.118361    0.022977
      3          6           0        0.573269   -0.452224   -0.034763
      4          6           0        1.757527    0.144797    0.006060
      5          1           0        0.435669   -1.553068    0.015067
      6          1           0        1.824316    1.243794    0.041465
      7          1           0        2.660593   -0.416254    0.078282
      8          1           0       -0.530805    1.428453   -0.020785
 ---------------------------------------------------------------------

 SCF Done:  E(RB2PLYPD3) =  -191.615297206     A.U. after   12 cycles
 E2(B2PLYPD3) =    -0.2474839807D+00 E(B2PLYPD3) =    -0.19186278118622D+03

 The electronic state is 1-A.
 Alpha  occ. eigenvalues --  -19.72807 -10.71566 -10.65456 -10.64731  -1.18975
 Alpha  occ. eigenvalues --   -0.93058  -0.75470  -0.66819  -0.56557  -0.56309
 Alpha  occ. eigenvalues --   -0.50564  -0.46642  -0.46414  -0.34819  -0.33862
 Alpha virt. eigenvalues --   -0.01749   0.05739   0.07068   0.08076   0.09723
 Alpha virt. eigenvalues --    0.12543   0.13984   0.15333   0.17330   0.19670
 Alpha virt. eigenvalues --    0.19938   0.21700   0.25328   0.26541   0.28833

 Mulliken charges:
               1
     1  C    0.157885
     2  O   -0.353549
     3  C   -0.040419
     4  C   -0.128412
     5  H    0.102607
     6  H    0.083420
     7  H    0.105089
     8  H    0.073378
 Sum of Mulliken charges =   0.00000

 Dipole moment (field-independent basis, Debye):
    X=              3.5148    Y=              0.7734    Z=              0.0364  Tot=              3.5991
 Quadrupole moment (field-independent basis, Debye-Ang):
   XX=            -27.5988   YY=            -21.6712   ZZ=            -25.2382
   XY=             -0.9435   XZ=              0.3885   YZ=             -0.0401

 Normal termination of Gaussian 09 at Wed Aug 26 08:56:30 2020.
