 Gaussian 09, Revision D.01,
 Gaussian 09:  ES64L-G09RevD.01 24-Apr-2013

 --------------------
 #p B2PLYPD3/Def2QZVP
 --------------------

 --------
 acrolein
 --------
 Symbolic Z-matrix:
 Charge =  0 Multiplicity = 1

                         Standard orientation:
 ---------------------------------------------------------------------
 Center     Atomic      Atomic             Coordinates (Angstroms)
 Number     Number       Type             X           Y           Z
 ---------------------------------------------------------------------
      1          6           0       -0.669699    0.342701   -0.003787
      2          8           0       -1.798453   -0.116939   -0.004210
      3          6           0        0.570109   -0.461767    0.017475
      4          6           0        1.757702    0.152917   -0.014937
      5          1           0        0.448216   -1.528806    0.006429
      6          1           0        1.826092    1.228922    0.040423
      7          1           0        2.669940   -0.433310   -0.018139
      8          1           0       -0.505293    1.465603    0.012461
 ---------------------------------------------------------------------

 SCF Done:  E(RB2PLYPD3) =  -191.615445427     A.U. after   12 cycles
 E2(B2PLYPD3) =    -0.2478848590D+00 E(B2PLYPD3) =    -0.19186333028594D+03

 The electronic state is 1-A.
 Alpha  occ. eigenvalues --  -19.72911 -10.72010 -10.65629 -10.64596  -1.19042
 Alpha  occ. eigenvalues --   -0.92985  -0.75238  -0.66787  -0.56434  -0.56111
 Alpha  occ. eigenvalues --   -0.50323  -0.47402  -0.46482  -0.34684  -0.33761
 Alpha virt. eigenvalues --   -0.01872   0.05741   0.07067   0.08000   0.09749
 Alpha virt. eigenvalues --    0.12545   0.13807   0.15303   0.17403   0.19841
 Alpha virt. eigenvalues --    0.19969   0.21549   0.25238   0.26408   0.28690

 Mulliken charges:
               1
     1  C    0.157799
     2  O   -0.350953
     3  C   -0.038896
     4  C   -0.130415
     5  H    0.106731
     6  H    0.089998
     7  H    0.102216
     8  H    0.063519
 Sum of Mulliken charges =   0.00000

 Dipole moment (field-independent basis, Debye):
    X=              3.5370    Y=              0.7041    Z=              0.0328  Tot=              3.6065
 Quadrupole moment (field-independent basis, Debye-Ang):
   XX=            -27.6057   YY=            -21.7025   ZZ=            -25.2854
   XY=             -0.8809   XZ=             -0.0027   YZ=              0.0702

 Normal termination of Gaussian 09 at Wed Aug 26 15:17:07 2020.
