 Gaussian 09, Revision D.01,
 Gaussian 09:  ES64L-G09RevD.01 24-Apr-2013

 --------------------
 #p B2PLYPD3/Def2QZVP
 --------------------

 --------
 acrolein
 --------
 Symbolic Z-matrix:
 Charge =  0 Multiplicity = 1

                         Standard orientation:
 ---------------------------------------------------------------------
 Center     Atomic      Atomic             Coordinates (Angstroms)
 Number     Number       Type             X           Y           Z
 ---------------------------------------------------------------------
      1          6           0       -0.662851    0.330216   -0.000550
      2          8           0       -1.795860   -0.102302    0.004916
      3          6           0        0.566999   -0.478871    0.011559
      4          6           0        1.749818    0.147321   -0.009839
      5          1           0        0.475917   -1.511660   -0.027633
      6          1           0        1.816136    1.292349    0.095171
      7          1           0        2.596133   -0.406493   -0.025639
      8          1           0       -0.445109    1.452228   -0.088254
 ---------------------------------------------------------------------

 SCF Done:  E(RB2PLYPD3) =  -191.607130588     A.U. after   12 cycles
 E2(B2PLYPD3) =    -0.2477251129D+00 E(B2PLYPD3) =    -0.19185485570104D+03

 The electronic state is 1-A.
 Alpha  occ. eigenvalues --  -19.72924 -10.71941 -10.65561 -10.64150  -1.19369
 Alpha  occ. eigenvalues --   -0.93293  -0.75638  -0.66848  -0.57214  -0.55481
 Alpha  occ. eigenvalues --   -0.50592  -0.47621  -0.46681  -0.34734  -0.33699
 Alpha virt. eigenvalues --   -0.01829   0.05708   0.07178   0.07957   0.09723
 Alpha virt. eigenvalues --    0.12648   0.13861   0.15253   0.17552   0.19420
 Alpha virt. eigenvalues --    0.20098   0.21715   0.24930   0.26743   0.28624

 Mulliken charges:
               1
     1  C    0.160508
     2  O   -0.347121
     3  C   -0.042109
     4  C   -0.125656
     5  H    0.106492
     6  H    0.085540
     7  H    0.104617
     8  H    0.057728
 Sum of Mulliken charges =   0.00000

 Dipole moment (field-independent basis, Debye):
    X=              3.5547    Y=              0.5837    Z=             -0.0103  Tot=              3.6023
 Quadrupole moment (field-independent basis, Debye-Ang):
   XX=            -27.6400   YY=            -21.7133   ZZ=            -25.2107
   XY=             -0.7879   XZ=              0.0887   YZ=              0.1552

 Normal termination of Gaussian 09 at Wed Aug 26 09:15:50 2020.
