 Gaussian 09, Revision D.01,
 Gaussian 09:  ES64L-G09RevD.01 24-Apr-2013

 --------------------
 #p B2PLYPD3/Def2QZVP
 --------------------

 --------
 acrolein
 --------
 Symbolic Z-matrix:
 Charge =  0 Multiplicity = 1

                         Standard orientation:
 ---------------------------------------------------------------------
 Center     Atomic      Atomic             Coordinates (Angstroms)
 Number     Number       Type             X           Y           Z
 ---------------------------------------------------------------------
      1          6           0       -0.661315    0.339029   -0.033983
      2          8           0       -1.799638   -0.101369    0.034217
      3          6           0        0.576306   -0.459505   -0.040219
      4          6           0        1.754088    0.136612    0.034172
      5          1           0        0.467469   -1.541677   -0.066018
      6          1           0        1.901101    1.277879   -0.063021
      7          1           0        2.528905   -0.383829    0.110730
      8          1           0       -0.514847    1.361764   -0.015248
 ---------------------------------------------------------------------

 SCF Done:  E(RB2PLYPD3) =  -191.591690085     A.U. after   13 cycles
 E2(B2PLYPD3) =    -0.2467656514D+00 E(B2PLYPD3) =    -0.19183845573631D+03

 The electronic state is 1-A.
 Alpha  occ. eigenvalues --  -19.72613 -10.70840 -10.64542 -10.64392  -1.18628
 Alpha  occ. eigenvalues --   -0.93704  -0.77094  -0.67686  -0.57838  -0.56305
 Alpha  occ. eigenvalues --   -0.50851  -0.47182  -0.46111  -0.34845  -0.33855
 Alpha virt. eigenvalues --   -0.01798   0.05719   0.07278   0.08109   0.09615
 Alpha virt. eigenvalues --    0.12643   0.14404   0.15280   0.17453   0.19575
 Alpha virt. eigenvalues --    0.20088   0.22482   0.25054   0.26786   0.28414

 Mulliken charges:
               1
     1  C    0.158080
     2  O   -0.358781
     3  C   -0.040256
     4  C   -0.134075
     5  H    0.099871
     6  H    0.082287
     7  H    0.110766
     8  H    0.082107
 Sum of Mulliken charges =   0.00000

 Dipole moment (field-independent basis, Debye):
    X=              3.6146    Y=              0.7372    Z=             -0.1366  Tot=              3.6915
 Quadrupole moment (field-independent basis, Debye-Ang):
   XX=            -27.6564   YY=            -21.5342   ZZ=            -25.0246
   XY=             -0.7975   XZ=              0.3004   YZ=             -0.0770

 Normal termination of Gaussian 09 at Wed Aug 26 08:49:27 2020.
