 Gaussian 09, Revision D.01,
 Gaussian 09:  ES64L-G09RevD.01 24-Apr-2013

 --------------------
 #p B2PLYPD3/Def2QZVP
 --------------------

 --------
 acrolein
 --------
 Symbolic Z-matrix:
 Charge =  0 Multiplicity = 1

                         Standard orientation:
 ---------------------------------------------------------------------
 Center     Atomic      Atomic             Coordinates (Angstroms)
 Number     Number       Type             X           Y           Z
 ---------------------------------------------------------------------
      1          6           0        0.673955    0.346687    0.008296
      2          8           0        1.794295   -0.111771   -0.010210
      3          6           0       -0.568892   -0.460750    0.016074
      4          6           0       -1.757867    0.152160   -0.013508
      5          1           0       -0.447429   -1.564555    0.022995
      6          1           0       -1.867886    1.260153    0.042748
      7          1           0       -2.654650   -0.430486   -0.044480
      8          1           0        0.532428    1.400474   -0.004752
 ---------------------------------------------------------------------

 SCF Done:  E(RB2PLYPD3) =  -191.614303560     A.U. after   12 cycles
 E2(B2PLYPD3) =    -0.2471472051D+00 E(B2PLYPD3) =    -0.19186145076546D+03

 The electronic state is 1-A.
 Alpha  occ. eigenvalues --  -19.72672 -10.71151 -10.65723 -10.64859  -1.19408
 Alpha  occ. eigenvalues --   -0.92658  -0.75387  -0.67085  -0.56437  -0.56249
 Alpha  occ. eigenvalues --   -0.50515  -0.46836  -0.46532  -0.34594  -0.33790
 Alpha virt. eigenvalues --   -0.01662   0.05707   0.07106   0.08074   0.09655
 Alpha virt. eigenvalues --    0.12544   0.14073   0.15353   0.17436   0.19543
 Alpha virt. eigenvalues --    0.20018   0.21668   0.25273   0.26612   0.28566

 Mulliken charges:
               1
     1  C    0.158369
     2  O   -0.350326
     3  C   -0.045765
     4  C   -0.132709
     5  H    0.103286
     6  H    0.086806
     7  H    0.102765
     8  H    0.077573
 Sum of Mulliken charges =   0.00000

 Dipole moment (field-independent basis, Debye):
    X=             -3.4857    Y=              0.7752    Z=              0.0490  Tot=              3.5712
 Quadrupole moment (field-independent basis, Debye-Ang):
   XX=            -27.6271   YY=            -21.5559   ZZ=            -25.2652
   XY=              0.8641   XZ=              0.0760   YZ=              0.0543

 Normal termination of Gaussian 09 at Wed Aug 26 09:27:23 2020.
