 Gaussian 09, Revision D.01,
 Gaussian 09:  ES64L-G09RevD.01 24-Apr-2013

 --------------------
 #p B2PLYPD3/Def2QZVP
 --------------------

 --------
 acrolein
 --------
 Symbolic Z-matrix:
 Charge =  0 Multiplicity = 1

                         Standard orientation:
 ---------------------------------------------------------------------
 Center     Atomic      Atomic             Coordinates (Angstroms)
 Number     Number       Type             X           Y           Z
 ---------------------------------------------------------------------
      1          6           0        0.665799    0.324507    0.038728
      2          8           0        1.831589   -0.092248   -0.034083
      3          6           0       -0.611274   -0.496105    0.031325
      4          6           0       -1.751019    0.173126   -0.054149
      5          1           0       -0.413185   -1.571146    0.013612
      6          1           0       -1.770472    1.227416   -0.063229
      7          1           0       -2.680727   -0.377569    0.099058
      8          1           0        0.390633    1.450114    0.127801
 ---------------------------------------------------------------------

 SCF Done:  E(RB2PLYPD3) =  -191.604291863     A.U. after   13 cycles
 E2(B2PLYPD3) =    -0.2497689515D+00 E(B2PLYPD3) =    -0.19185406081483D+03

 The electronic state is 1-A.
 Alpha  occ. eigenvalues --  -19.73512 -10.72962 -10.65439 -10.65203  -1.17962
 Alpha  occ. eigenvalues --   -0.93335  -0.74975  -0.66596  -0.56307  -0.55545
 Alpha  occ. eigenvalues --   -0.50552  -0.47295  -0.45735  -0.35126  -0.33635
 Alpha virt. eigenvalues --   -0.02038   0.05735   0.06909   0.07481   0.09764
 Alpha virt. eigenvalues --    0.12655   0.13568   0.15228   0.16937   0.19337
 Alpha virt. eigenvalues --    0.20035   0.21711   0.24773   0.26793   0.28346

 Mulliken charges:
               1
     1  C    0.164746
     2  O   -0.356216
     3  C   -0.036200
     4  C   -0.121259
     5  H    0.106311
     6  H    0.090187
     7  H    0.099425
     8  H    0.053006
 Sum of Mulliken charges =   0.00000

 Dipole moment (field-independent basis, Debye):
    X=             -3.5945    Y=              0.5936    Z=              0.2053  Tot=              3.6490
 Quadrupole moment (field-independent basis, Debye-Ang):
   XX=            -28.0335   YY=            -21.8074   ZZ=            -25.3408
   XY=              0.4227   XZ=             -0.0115   YZ=             -0.0941

 Normal termination of Gaussian 09 at Wed Aug 26 12:05:07 2020.
