 Gaussian 09, Revision D.01,
 Gaussian 09:  ES64L-G09RevD.01 24-Apr-2013

 --------------------
 #p B2PLYPD3/Def2QZVP
 --------------------

 --------
 acrolein
 --------
 Symbolic Z-matrix:
 Charge =  0 Multiplicity = 1

                         Standard orientation:
 ---------------------------------------------------------------------
 Center     Atomic      Atomic             Coordinates (Angstroms)
 Number     Number       Type             X           Y           Z
 ---------------------------------------------------------------------
      1          6           0        0.692239    0.362580   -0.017507
      2          8           0        1.770516   -0.137792    0.027592
      3          6           0       -0.534889   -0.429165   -0.045763
      4          6           0       -1.772063    0.120127    0.005292
      5          1           0       -0.475203   -1.486993    0.002380
      6          1           0       -1.860744    1.258814    0.039175
      7          1           0       -2.688117   -0.441260    0.117909
      8          1           0        0.548216    1.450520   -0.032334
 ---------------------------------------------------------------------

 SCF Done:  E(RB2PLYPD3) =  -191.612311431     A.U. after   13 cycles
 E2(B2PLYPD3) =    -0.2467287101D+00 E(B2PLYPD3) =    -0.19185904014061D+03

 The electronic state is 1-A.
 Alpha  occ. eigenvalues --  -19.72770 -10.71293 -10.66172 -10.64130  -1.20927
 Alpha  occ. eigenvalues --   -0.92248  -0.75277  -0.67050  -0.56673  -0.56362
 Alpha  occ. eigenvalues --   -0.50971  -0.47560  -0.46016  -0.34211  -0.33992
 Alpha virt. eigenvalues --   -0.01779   0.05684   0.07317   0.08415   0.09687
 Alpha virt. eigenvalues --    0.12285   0.14154   0.15481   0.17864   0.19342
 Alpha virt. eigenvalues --    0.19815   0.21470   0.25388   0.26334   0.28842

 Mulliken charges:
               1
     1  C    0.155767
     2  O   -0.334817
     3  C   -0.047376
     4  C   -0.130488
     5  H    0.105764
     6  H    0.070868
     7  H    0.105320
     8  H    0.074963
 Sum of Mulliken charges =   0.00000

 Dipole moment (field-independent basis, Debye):
    X=             -3.3217    Y=              0.7854    Z=              0.0539  Tot=              3.4137
 Quadrupole moment (field-independent basis, Debye-Ang):
   XX=            -27.1259   YY=            -21.8568   ZZ=            -25.2559
   XY=              1.2448   XZ=             -0.5181   YZ=             -0.0636

 Normal termination of Gaussian 09 at Wed Aug 26 10:16:59 2020.
