 Gaussian 09, Revision D.01,
 Gaussian 09:  ES64L-G09RevD.01 24-Apr-2013

 --------------------
 #p B2PLYPD3/Def2QZVP
 --------------------

 --------
 acrolein
 --------
 Symbolic Z-matrix:
 Charge =  0 Multiplicity = 1

                         Standard orientation:
 ---------------------------------------------------------------------
 Center     Atomic      Atomic             Coordinates (Angstroms)
 Number     Number       Type             X           Y           Z
 ---------------------------------------------------------------------
      1          6           0        0.686239    0.366525   -0.022358
      2          8           0        1.778349   -0.137394    0.016884
      3          6           0       -0.555930   -0.442371   -0.018526
      4          6           0       -1.759352    0.132232    0.000343
      5          1           0       -0.446317   -1.501051    0.005225
      6          1           0       -1.843778    1.223734    0.023453
      7          1           0       -2.700794   -0.430136    0.062839
      8          1           0        0.538361    1.468283    0.016656
 ---------------------------------------------------------------------

 SCF Done:  E(RB2PLYPD3) =  -191.616268863     A.U. after   12 cycles
 E2(B2PLYPD3) =    -0.2468746689D+00 E(B2PLYPD3) =    -0.19186314353148D+03

 The electronic state is 1-A.
 Alpha  occ. eigenvalues --  -19.72924 -10.71751 -10.65526 -10.64157  -1.20096
 Alpha  occ. eigenvalues --   -0.92585  -0.74933  -0.67077  -0.56485  -0.56273
 Alpha  occ. eigenvalues --   -0.50793  -0.47043  -0.46582  -0.34571  -0.33893
 Alpha virt. eigenvalues --   -0.01513   0.05730   0.07268   0.08104   0.09745
 Alpha virt. eigenvalues --    0.12399   0.14009   0.15435   0.17678   0.19673
 Alpha virt. eigenvalues --    0.19893   0.21462   0.25532   0.26393   0.28811

 Mulliken charges:
               1
     1  C    0.157457
     2  O   -0.342015
     3  C   -0.048428
     4  C   -0.130306
     5  H    0.108898
     6  H    0.078963
     7  H    0.100592
     8  H    0.074837
 Sum of Mulliken charges =   0.00000

 Dipole moment (field-independent basis, Debye):
    X=             -3.3400    Y=              0.8172    Z=              0.0235  Tot=              3.4385
 Quadrupole moment (field-independent basis, Debye-Ang):
   XX=            -27.3251   YY=            -21.7577   ZZ=            -25.2428
   XY=              1.0781   XZ=             -0.2797   YZ=             -0.0136

 Normal termination of Gaussian 09 at Wed Aug 26 18:32:36 2020.
