 Gaussian 09, Revision D.01,
 Gaussian 09:  ES64L-G09RevD.01 24-Apr-2013

 --------------------
 #p B2PLYPD3/Def2QZVP
 --------------------

 --------
 acrolein
 --------
 Symbolic Z-matrix:
 Charge =  0 Multiplicity = 1

                         Standard orientation:
 ---------------------------------------------------------------------
 Center     Atomic      Atomic             Coordinates (Angstroms)
 Number     Number       Type             X           Y           Z
 ---------------------------------------------------------------------
      1          6           0        0.672256   -0.336940   -0.009970
      2          8           0        1.812885    0.090198    0.040991
      3          6           0       -0.603055    0.474215   -0.071631
      4          6           0       -1.767475   -0.151528    0.006523
      5          1           0       -0.316073    1.651145   -0.024577
      6          1           0       -1.898276   -1.317801    0.045516
      7          1           0       -2.649449    0.401988    0.225504
      8          1           0        0.550367   -1.371403   -0.123901
 ---------------------------------------------------------------------

 SCF Done:  E(RB2PLYPD3) =  -191.592080005     A.U. after   13 cycles
 E2(B2PLYPD3) =    -0.2487454755D+00 E(B2PLYPD3) =    -0.19184082548016D+03

 The electronic state is 1-A.
 Alpha  occ. eigenvalues --  -19.72885 -10.71279 -10.66337 -10.66158  -1.18977
 Alpha  occ. eigenvalues --   -0.92516  -0.75175  -0.66173  -0.56568  -0.55009
 Alpha  occ. eigenvalues --   -0.50717  -0.46299  -0.45078  -0.35051  -0.33524
 Alpha virt. eigenvalues --   -0.01686   0.05422   0.06710   0.07734   0.09487
 Alpha virt. eigenvalues --    0.12306   0.13781   0.15279   0.16847   0.19111
 Alpha virt. eigenvalues --    0.19704   0.21640   0.24669   0.26879   0.28309

 Mulliken charges:
               1
     1  C    0.176684
     2  O   -0.355836
     3  C   -0.062424
     4  C   -0.117741
     5  H    0.099501
     6  H    0.082499
     7  H    0.105026
     8  H    0.072290
 Sum of Mulliken charges =   0.00000

 Dipole moment (field-independent basis, Debye):
    X=             -3.4627    Y=             -0.7622    Z=              0.0642  Tot=              3.5462
 Quadrupole moment (field-independent basis, Debye-Ang):
   XX=            -27.8555   YY=            -21.6399   ZZ=            -25.3694
   XY=             -0.4200   XZ=             -0.8643   YZ=              0.1056

 Normal termination of Gaussian 09 at Wed Aug 26 14:27:06 2020.
