 Gaussian 09, Revision D.01,
 Gaussian 09:  ES64L-G09RevD.01 24-Apr-2013

 --------------------
 #p B2PLYPD3/Def2QZVP
 --------------------

 --------
 acrolein
 --------
 Symbolic Z-matrix:
 Charge =  0 Multiplicity = 1

                         Standard orientation:
 ---------------------------------------------------------------------
 Center     Atomic      Atomic             Coordinates (Angstroms)
 Number     Number       Type             X           Y           Z
 ---------------------------------------------------------------------
      1          6           0        0.663801    0.347454    0.001722
      2          8           0        1.789711   -0.098883    0.016790
      3          6           0       -0.553013   -0.480915   -0.037969
      4          6           0       -1.752342    0.148175    0.003260
      5          1           0       -0.402519   -1.583990   -0.018956
      6          1           0       -1.909247    1.288344   -0.018553
      7          1           0       -2.652354   -0.419731    0.137269
      8          1           0        0.495753    1.418155   -0.036154
 ---------------------------------------------------------------------

 SCF Done:  E(RB2PLYPD3) =  -191.609954067     A.U. after   13 cycles
 E2(B2PLYPD3) =    -0.2480500973D+00 E(B2PLYPD3) =    -0.19185800416395D+03

 The electronic state is 1-A.
 Alpha  occ. eigenvalues --  -19.72555 -10.71198 -10.66511 -10.65228  -1.19299
 Alpha  occ. eigenvalues --   -0.92351  -0.75211  -0.66747  -0.56360  -0.55654
 Alpha  occ. eigenvalues --   -0.50311  -0.46794  -0.46420  -0.34352  -0.33651
 Alpha virt. eigenvalues --   -0.01899   0.05537   0.07042   0.07931   0.09590
 Alpha virt. eigenvalues --    0.12390   0.14079   0.15333   0.17342   0.19408
 Alpha virt. eigenvalues --    0.19925   0.21625   0.25026   0.26602   0.28455

 Mulliken charges:
               1
     1  C    0.161024
     2  O   -0.352726
     3  C   -0.048596
     4  C   -0.129000
     5  H    0.108710
     6  H    0.086286
     7  H    0.100346
     8  H    0.073955
 Sum of Mulliken charges =   0.00000

 Dipole moment (field-independent basis, Debye):
    X=             -3.5444    Y=              0.7230    Z=              0.0388  Tot=              3.6176
 Quadrupole moment (field-independent basis, Debye-Ang):
   XX=            -27.6440   YY=            -21.5095   ZZ=            -25.3627
   XY=              0.5813   XZ=             -0.3969   YZ=             -0.1058

 Normal termination of Gaussian 09 at Wed Aug 26 08:49:58 2020.
