 Gaussian 09, Revision D.01,
 Gaussian 09:  ES64L-G09RevD.01 24-Apr-2013

 --------------------
 #p B2PLYPD3/Def2QZVP
 --------------------

 --------
 acrolein
 --------
 Symbolic Z-matrix:
 Charge =  0 Multiplicity = 1

                         Standard orientation:
 ---------------------------------------------------------------------
 Center     Atomic      Atomic             Coordinates (Angstroms)
 Number     Number       Type             X           Y           Z
 ---------------------------------------------------------------------
      1          6           0        0.660332    0.346537    0.045133
      2          8           0        1.780204   -0.136997   -0.033508
      3          6           0       -0.559006   -0.430808    0.018952
      4          6           0       -1.730059    0.110033   -0.038587
      5          1           0       -0.454795   -1.417746   -0.008529
      6          1           0       -1.726897    1.243725   -0.189105
      7          1           0       -2.675572   -0.439190    0.160062
      8          1           0        0.388031    1.554611    0.152643
 ---------------------------------------------------------------------

 SCF Done:  E(RB2PLYPD3) =  -191.590280775     A.U. after   13 cycles
 E2(B2PLYPD3) =    -0.2489031617D+00 E(B2PLYPD3) =    -0.19183918393632D+03

 The electronic state is 1-A.
 Alpha  occ. eigenvalues --  -19.73596 -10.73054 -10.65814 -10.62705  -1.19334
 Alpha  occ. eigenvalues --   -0.94602  -0.75152  -0.66769  -0.57074  -0.54994
 Alpha  occ. eigenvalues --   -0.50739  -0.47224  -0.46275  -0.35323  -0.33896
 Alpha virt. eigenvalues --   -0.02029   0.05566   0.06912   0.08178   0.09946
 Alpha virt. eigenvalues --    0.12415   0.13143   0.15330   0.17287   0.18864
 Alpha virt. eigenvalues --    0.20052   0.21523   0.25179   0.26715   0.28828

 Mulliken charges:
               1
     1  C    0.166137
     2  O   -0.345353
     3  C   -0.024229
     4  C   -0.114345
     5  H    0.105095
     6  H    0.070812
     7  H    0.107315
     8  H    0.034568
 Sum of Mulliken charges =   0.00000

 Dipole moment (field-independent basis, Debye):
    X=             -3.4939    Y=              0.5228    Z=              0.1468  Tot=              3.5358
 Quadrupole moment (field-independent basis, Debye-Ang):
   XX=            -27.3925   YY=            -22.2932   ZZ=            -25.0862
   XY=              1.0714   XZ=             -0.0225   YZ=             -0.2445

 Normal termination of Gaussian 09 at Wed Aug 26 11:18:33 2020.
