 Gaussian 09, Revision D.01,
 Gaussian 09:  ES64L-G09RevD.01 24-Apr-2013

 --------------------
 #p B2PLYPD3/Def2QZVP
 --------------------

 --------
 acrolein
 --------
 Symbolic Z-matrix:
 Charge =  0 Multiplicity = 1

                         Standard orientation:
 ---------------------------------------------------------------------
 Center     Atomic      Atomic             Coordinates (Angstroms)
 Number     Number       Type             X           Y           Z
 ---------------------------------------------------------------------
      1          6           0       -0.675444    0.369568   -0.028182
      2          8           0       -1.792217   -0.136095    0.031373
      3          6           0        0.548166   -0.438137   -0.057073
      4          6           0        1.763188    0.122683    0.009676
      5          1           0        0.441841   -1.512771    0.049937
      6          1           0        1.857805    1.211770    0.065670
      7          1           0        2.693639   -0.439728    0.100427
      8          1           0       -0.471004    1.504810   -0.013545
 ---------------------------------------------------------------------

 SCF Done:  E(RB2PLYPD3) =  -191.611725487     A.U. after   12 cycles
 E2(B2PLYPD3) =    -0.2488873221D+00 E(B2PLYPD3) =    -0.19186061280898D+03

 The electronic state is 1-A.
 Alpha  occ. eigenvalues --  -19.73145 -10.72498 -10.65873 -10.64562  -1.18745
 Alpha  occ. eigenvalues --   -0.92833  -0.75415  -0.66455  -0.56462  -0.55809
 Alpha  occ. eigenvalues --   -0.50430  -0.46705  -0.46160  -0.34570  -0.34031
 Alpha virt. eigenvalues --   -0.02176   0.05611   0.06997   0.07907   0.09752
 Alpha virt. eigenvalues --    0.12401   0.13717   0.15306   0.17521   0.19668
 Alpha virt. eigenvalues --    0.19901   0.21510   0.25123   0.26402   0.28762

 Mulliken charges:
               1
     1  C    0.159471
     2  O   -0.352478
     3  C   -0.038793
     4  C   -0.124525
     5  H    0.107466
     6  H    0.077350
     7  H    0.102651
     8  H    0.068859
 Sum of Mulliken charges =   0.00000

 Dipole moment (field-independent basis, Debye):
    X=              3.5478    Y=              0.7964    Z=              0.0868  Tot=              3.6372
 Quadrupole moment (field-independent basis, Debye-Ang):
   XX=            -27.4050   YY=            -21.8492   ZZ=            -25.3347
   XY=             -0.9796   XZ=              0.5479   YZ=             -0.0894

 Normal termination of Gaussian 09 at Wed Aug 26 09:16:24 2020.
