 Gaussian 09, Revision D.01,
 Gaussian 09:  ES64L-G09RevD.01 24-Apr-2013

 --------------------
 #p B2PLYPD3/Def2QZVP
 --------------------

 --------
 acrolein
 --------
 Symbolic Z-matrix:
 Charge =  0 Multiplicity = 1

                         Standard orientation:
 ---------------------------------------------------------------------
 Center     Atomic      Atomic             Coordinates (Angstroms)
 Number     Number       Type             X           Y           Z
 ---------------------------------------------------------------------
      1          6           0       -0.687168   -0.365336   -0.076363
      2          8           0       -1.767303    0.097518    0.077030
      3          6           0        0.547819    0.488568   -0.054514
      4          6           0        1.763124   -0.144492    0.017995
      5          1           0        0.438819    1.630388   -0.004611
      6          1           0        1.994298   -1.323282    0.271430
      7          1           0        2.600888    0.341516    0.028538
      8          1           0       -0.638224   -1.301202   -0.234299
 ---------------------------------------------------------------------

 SCF Done:  E(RB2PLYPD3) =  -191.565536691     A.U. after   14 cycles
 E2(B2PLYPD3) =    -0.2465628337D+00 E(B2PLYPD3) =    -0.19181209952494D+03

 The electronic state is 1-A.
 Alpha  occ. eigenvalues --  -19.72136 -10.69610 -10.65842 -10.65726  -1.20899
 Alpha  occ. eigenvalues --   -0.91266  -0.76171  -0.68827  -0.57126  -0.55523
 Alpha  occ. eigenvalues --   -0.50967  -0.47043  -0.45605  -0.34001  -0.33397
 Alpha virt. eigenvalues --   -0.01517   0.05387   0.07238   0.07782   0.09408
 Alpha virt. eigenvalues --    0.12468   0.14474   0.15723   0.17380   0.18924
 Alpha virt. eigenvalues --    0.20109   0.21905   0.24690   0.26297   0.28518

 Mulliken charges:
               1
     1  C    0.169760
     2  O   -0.339676
     3  C   -0.074782
     4  C   -0.128580
     5  H    0.107585
     6  H    0.069561
     7  H    0.103092
     8  H    0.093040
 Sum of Mulliken charges =   0.00000

 Dipole moment (field-independent basis, Debye):
    X=              3.2574    Y=             -0.7903    Z=             -0.1164  Tot=              3.3540
 Quadrupole moment (field-independent basis, Debye-Ang):
   XX=            -27.3253   YY=            -21.3189   ZZ=            -25.2382
   XY=              0.8311   XZ=              0.9922   YZ=             -0.1930

 Normal termination of Gaussian 09 at Wed Aug 26 11:52:45 2020.
