 Gaussian 09, Revision D.01,
 Gaussian 09:  ES64L-G09RevD.01 24-Apr-2013

 --------------------
 #p B2PLYPD3/Def2QZVP
 --------------------

 --------
 acrolein
 --------
 Symbolic Z-matrix:
 Charge =  0 Multiplicity = 1

                         Standard orientation:
 ---------------------------------------------------------------------
 Center     Atomic      Atomic             Coordinates (Angstroms)
 Number     Number       Type             X           Y           Z
 ---------------------------------------------------------------------
      1          6           0       -0.668836    0.368056   -0.024376
      2          8           0       -1.783572   -0.136728    0.026970
      3          6           0        0.572377   -0.440727   -0.031592
      4          6           0        1.740367    0.138590    0.028456
      5          1           0        0.489732   -1.531546   -0.062728
      6          1           0        1.794812    1.168394   -0.055056
      7          1           0        2.633314   -0.384697    0.083371
      8          1           0       -0.512729    1.446154   -0.016280
 ---------------------------------------------------------------------

 SCF Done:  E(RB2PLYPD3) =  -191.612119667     A.U. after   13 cycles
 E2(B2PLYPD3) =    -0.2467745257D+00 E(B2PLYPD3) =    -0.19185889419315D+03

 The electronic state is 1-A.
 Alpha  occ. eigenvalues --  -19.72917 -10.71833 -10.64063 -10.63752  -1.18733
 Alpha  occ. eigenvalues --   -0.93763  -0.75805  -0.67463  -0.57217  -0.56765
 Alpha  occ. eigenvalues --   -0.50750  -0.47073  -0.46201  -0.34967  -0.34017
 Alpha virt. eigenvalues --   -0.01485   0.05890   0.07177   0.07958   0.09807
 Alpha virt. eigenvalues --    0.12756   0.14307   0.15317   0.17282   0.19878
 Alpha virt. eigenvalues --    0.20306   0.21971   0.25465   0.26510   0.28787

 Mulliken charges:
               1
     1  C    0.149847
     2  O   -0.353125
     3  C   -0.032595
     4  C   -0.128502
     5  H    0.101435
     6  H    0.078840
     7  H    0.100201
     8  H    0.083898
 Sum of Mulliken charges =   0.00000

 Dipole moment (field-independent basis, Debye):
    X=              3.4776    Y=              0.8676    Z=             -0.1248  Tot=              3.5864
 Quadrupole moment (field-independent basis, Debye-Ang):
   XX=            -27.5231   YY=            -21.6493   ZZ=            -25.0385
   XY=             -1.1143   XZ=              0.2114   YZ=             -0.0474

 Normal termination of Gaussian 09 at Wed Aug 26 08:29:30 2020.
