 Gaussian 09, Revision D.01,
 Gaussian 09:  ES64L-G09RevD.01 24-Apr-2013

 --------------------
 #p B2PLYPD3/Def2QZVP
 --------------------

 --------
 acrolein
 --------
 Symbolic Z-matrix:
 Charge =  0 Multiplicity = 1

                         Standard orientation:
 ---------------------------------------------------------------------
 Center     Atomic      Atomic             Coordinates (Angstroms)
 Number     Number       Type             X           Y           Z
 ---------------------------------------------------------------------
      1          6           0       -0.677348    0.359489    0.009565
      2          8           0       -1.778339   -0.130407   -0.015265
      3          6           0        0.550696   -0.439944    0.035444
      4          6           0        1.754316    0.137487   -0.009969
      5          1           0        0.430934   -1.538879   -0.030577
      6          1           0        1.823272    1.184161   -0.018006
      7          1           0        2.699155   -0.427219   -0.051367
      8          1           0       -0.492626    1.483000    0.011835
 ---------------------------------------------------------------------

 SCF Done:  E(RB2PLYPD3) =  -191.614428593     A.U. after   12 cycles
 E2(B2PLYPD3) =    -0.2473199710D+00 E(B2PLYPD3) =    -0.19186174856351D+03

 The electronic state is 1-A.
 Alpha  occ. eigenvalues --  -19.72970 -10.71904 -10.65310 -10.64523  -1.19980
 Alpha  occ. eigenvalues --   -0.92898  -0.75363  -0.66535  -0.56597  -0.56248
 Alpha  occ. eigenvalues --   -0.50589  -0.47119  -0.46608  -0.34618  -0.33894
 Alpha virt. eigenvalues --   -0.01736   0.05774   0.07012   0.08214   0.09807
 Alpha virt. eigenvalues --    0.12542   0.13896   0.15340   0.17324   0.19887
 Alpha virt. eigenvalues --    0.20040   0.21583   0.25454   0.26372   0.28772

 Mulliken charges:
               1
     1  C    0.156116
     2  O   -0.342705
     3  C   -0.035119
     4  C   -0.131974
     5  H    0.102943
     6  H    0.084043
     7  H    0.102482
     8  H    0.064215
 Sum of Mulliken charges =   0.00000

 Dipole moment (field-independent basis, Debye):
    X=              3.4280    Y=              0.7734    Z=             -0.0420  Tot=              3.5144
 Quadrupole moment (field-independent basis, Debye-Ang):
   XX=            -27.2679   YY=            -21.8546   ZZ=            -25.2481
   XY=             -0.9320   XZ=             -0.2553   YZ=              0.0775

 Normal termination of Gaussian 09 at Wed Aug 26 19:44:05 2020.
