 Gaussian 09, Revision D.01,
 Gaussian 09:  ES64L-G09RevD.01 24-Apr-2013

 --------------------
 #p B2PLYPD3/Def2QZVP
 --------------------

 --------
 acrolein
 --------
 Symbolic Z-matrix:
 Charge =  0 Multiplicity = 1

                         Standard orientation:
 ---------------------------------------------------------------------
 Center     Atomic      Atomic             Coordinates (Angstroms)
 Number     Number       Type             X           Y           Z
 ---------------------------------------------------------------------
      1          6           0        0.665512   -0.333024   -0.081428
      2          8           0        1.823080    0.104312    0.072676
      3          6           0       -0.629177    0.465674   -0.092420
      4          6           0       -1.743838   -0.169698    0.018006
      5          1           0       -0.473658    1.617806    0.013855
      6          1           0       -1.764464   -1.183655    0.084262
      7          1           0       -2.582949    0.335346    0.281647
      8          1           0        0.481446   -1.381703   -0.026113
 ---------------------------------------------------------------------

 SCF Done:  E(RB2PLYPD3) =  -191.593824461     A.U. after   13 cycles
 E2(B2PLYPD3) =    -0.2483705640D+00 E(B2PLYPD3) =    -0.19184219502521D+03

 The electronic state is 1-A.
 Alpha  occ. eigenvalues --  -19.73267 -10.72206 -10.65288 -10.63382  -1.17473
 Alpha  occ. eigenvalues --   -0.94338  -0.76009  -0.67140  -0.57345  -0.56639
 Alpha  occ. eigenvalues --   -0.50724  -0.46416  -0.45576  -0.35597  -0.33883
 Alpha virt. eigenvalues --   -0.01669   0.05903   0.06837   0.07491   0.09744
 Alpha virt. eigenvalues --    0.13090   0.14056   0.15238   0.16918   0.19320
 Alpha virt. eigenvalues --    0.20221   0.22613   0.24394   0.27094   0.28135

 Mulliken charges:
               1
     1  C    0.159333
     2  O   -0.363477
     3  C   -0.034578
     4  C   -0.113737
     5  H    0.095125
     6  H    0.079728
     7  H    0.098705
     8  H    0.078901
 Sum of Mulliken charges =   0.00000

 Dipole moment (field-independent basis, Debye):
    X=             -3.5685    Y=             -0.7934    Z=              0.0612  Tot=              3.6562
 Quadrupole moment (field-independent basis, Debye-Ang):
   XX=            -28.0972   YY=            -21.6821   ZZ=            -24.9991
   XY=             -0.7047   XZ=             -1.1640   YZ=              0.1144

 Normal termination of Gaussian 09 at Wed Aug 26 11:48:45 2020.
