 Gaussian 09, Revision D.01,
 Gaussian 09:  ES64L-G09RevD.01 24-Apr-2013

 --------------------
 #p B2PLYPD3/Def2QZVP
 --------------------

 --------
 acrolein
 --------
 Symbolic Z-matrix:
 Charge =  0 Multiplicity = 1

                         Standard orientation:
 ---------------------------------------------------------------------
 Center     Atomic      Atomic             Coordinates (Angstroms)
 Number     Number       Type             X           Y           Z
 ---------------------------------------------------------------------
      1          6           0       -0.687246   -0.353707   -0.098246
      2          8           0       -1.781069    0.099253    0.080420
      3          6           0        0.575282    0.482258   -0.040161
      4          6           0        1.761973   -0.148792    0.031945
      5          1           0        0.403879    1.645366   -0.046945
      6          1           0        1.999462   -1.329112    0.222029
      7          1           0        2.595871    0.373823   -0.000072
      8          1           0       -0.650713   -1.362654   -0.179604
 ---------------------------------------------------------------------

 SCF Done:  E(RB2PLYPD3) =  -191.580728940     A.U. after   13 cycles
 E2(B2PLYPD3) =    -0.2471279131D+00 E(B2PLYPD3) =    -0.19182785685358D+03

 The electronic state is 1-A.
 Alpha  occ. eigenvalues --  -19.72391 -10.70494 -10.65990 -10.65595  -1.20200
 Alpha  occ. eigenvalues --   -0.91691  -0.75379  -0.67326  -0.56870  -0.55253
 Alpha  occ. eigenvalues --   -0.50819  -0.46674  -0.45556  -0.34416  -0.33364
 Alpha virt. eigenvalues --   -0.01327   0.05439   0.06966   0.07759   0.09438
 Alpha virt. eigenvalues --    0.12268   0.14360   0.15517   0.17162   0.18909
 Alpha virt. eigenvalues --    0.20043   0.22025   0.24904   0.26125   0.28631

 Mulliken charges:
               1
     1  C    0.167685
     2  O   -0.342253
     3  C   -0.069903
     4  C   -0.127231
     5  H    0.103269
     6  H    0.079310
     7  H    0.104038
     8  H    0.085086
 Sum of Mulliken charges =   0.00000

 Dipole moment (field-independent basis, Debye):
    X=              3.2949    Y=             -0.7831    Z=             -0.2209  Tot=              3.3939
 Quadrupole moment (field-independent basis, Debye-Ang):
   XX=            -27.4485   YY=            -21.3300   ZZ=            -25.3304
   XY=              0.7073   XZ=              0.7994   YZ=             -0.2661

 Normal termination of Gaussian 09 at Wed Aug 26 12:01:18 2020.
