 Gaussian 09, Revision D.01,
 Gaussian 09:  ES64L-G09RevD.01 24-Apr-2013

 --------------------
 #p B2PLYPD3/Def2QZVP
 --------------------

 --------
 acrolein
 --------
 Symbolic Z-matrix:
 Charge =  0 Multiplicity = 1

                         Standard orientation:
 ---------------------------------------------------------------------
 Center     Atomic      Atomic             Coordinates (Angstroms)
 Number     Number       Type             X           Y           Z
 ---------------------------------------------------------------------
      1          6           0       -0.668152    0.343972   -0.015758
      2          8           0       -1.796819   -0.114778    0.019933
      3          6           0        0.567481   -0.462910   -0.019015
      4          6           0        1.751613    0.152032    0.006844
      5          1           0        0.449095   -1.550806   -0.003066
      6          1           0        1.824070    1.253871    0.086451
      7          1           0        2.701221   -0.427038    0.006798
      8          1           0       -0.505489    1.443636   -0.082073
 ---------------------------------------------------------------------

 SCF Done:  E(RB2PLYPD3) =  -191.614637890     A.U. after   12 cycles
 E2(B2PLYPD3) =    -0.2480435645D+00 E(B2PLYPD3) =    -0.19186268145455D+03

 The electronic state is 1-A.
 Alpha  occ. eigenvalues --  -19.72843 -10.71804 -10.66141 -10.64749  -1.19005
 Alpha  occ. eigenvalues --   -0.92894  -0.74974  -0.66693  -0.56135  -0.56052
 Alpha  occ. eigenvalues --   -0.50304  -0.46745  -0.46441  -0.34711  -0.33818
 Alpha virt. eigenvalues --   -0.01818   0.05626   0.06981   0.07966   0.09691
 Alpha virt. eigenvalues --    0.12457   0.13878   0.15327   0.17388   0.19492
 Alpha virt. eigenvalues --    0.20099   0.21334   0.25257   0.26461   0.28779

 Mulliken charges:
               1
     1  C    0.157531
     2  O   -0.352075
     3  C   -0.040691
     4  C   -0.127698
     5  H    0.106124
     6  H    0.086255
     7  H    0.100991
     8  H    0.069563
 Sum of Mulliken charges =   0.00000

 Dipole moment (field-independent basis, Debye):
    X=              3.5349    Y=              0.7274    Z=             -0.0133  Tot=              3.6090
 Quadrupole moment (field-independent basis, Debye-Ang):
   XX=            -27.6372   YY=            -21.6765   ZZ=            -25.3258
   XY=             -0.8812   XZ=              0.2577   YZ=              0.0680

 Normal termination of Gaussian 09 at Wed Aug 26 16:21:26 2020.
