 Gaussian 09, Revision D.01,
 Gaussian 09:  ES64L-G09RevD.01 24-Apr-2013

 --------------------
 #p B2PLYPD3/Def2QZVP
 --------------------

 --------
 acrolein
 --------
 Symbolic Z-matrix:
 Charge =  0 Multiplicity = 1

                         Standard orientation:
 ---------------------------------------------------------------------
 Center     Atomic      Atomic             Coordinates (Angstroms)
 Number     Number       Type             X           Y           Z
 ---------------------------------------------------------------------
      1          6           0       -0.669925    0.341914    0.017012
      2          8           0       -1.788592   -0.107241   -0.016276
      3          6           0        0.562684   -0.469574   -0.000985
      4          6           0        1.756625    0.145066   -0.018931
      5          1           0        0.421679   -1.583907    0.074511
      6          1           0        1.865492    1.279154    0.002454
      7          1           0        2.654012   -0.396692    0.012479
      8          1           0       -0.528747    1.454939    0.058194
 ---------------------------------------------------------------------

 SCF Done:  E(RB2PLYPD3) =  -191.611854807     A.U. after   12 cycles
 E2(B2PLYPD3) =    -0.2476196043D+00 E(B2PLYPD3) =    -0.19185947441162D+03

 The electronic state is 1-A.
 Alpha  occ. eigenvalues --  -19.72726 -10.71615 -10.65913 -10.65193  -1.19748
 Alpha  occ. eigenvalues --   -0.92537  -0.75237  -0.66098  -0.56660  -0.55797
 Alpha  occ. eigenvalues --   -0.50537  -0.46946  -0.46358  -0.34591  -0.33676
 Alpha virt. eigenvalues --   -0.01718   0.05681   0.06911   0.08158   0.09632
 Alpha virt. eigenvalues --    0.12410   0.14108   0.15316   0.17174   0.19563
 Alpha virt. eigenvalues --    0.19986   0.21674   0.25241   0.26422   0.28749

 Mulliken charges:
               1
     1  C    0.160164
     2  O   -0.344268
     3  C   -0.045421
     4  C   -0.126395
     5  H    0.103198
     6  H    0.083200
     7  H    0.104786
     8  H    0.064736
 Sum of Mulliken charges =   0.00000

 Dipole moment (field-independent basis, Debye):
    X=              3.4822    Y=              0.6904    Z=              0.1551  Tot=              3.5533
 Quadrupole moment (field-independent basis, Debye-Ang):
   XX=            -27.4508   YY=            -21.6707   ZZ=            -25.3416
   XY=             -0.7550   XZ=             -0.0019   YZ=             -0.0957

 Normal termination of Gaussian 09 at Wed Aug 26 15:06:46 2020.
