 Gaussian 09, Revision D.01,
 Gaussian 09:  ES64L-G09RevD.01 24-Apr-2013

 --------------------
 #p B2PLYPD3/Def2QZVP
 --------------------

 --------
 acrolein
 --------
 Symbolic Z-matrix:
 Charge =  0 Multiplicity = 1

                         Standard orientation:
 ---------------------------------------------------------------------
 Center     Atomic      Atomic             Coordinates (Angstroms)
 Number     Number       Type             X           Y           Z
 ---------------------------------------------------------------------
      1          6           0       -0.665490    0.320803    0.039193
      2          8           0       -1.782331   -0.074447   -0.072748
      3          6           0        0.551669   -0.497122    0.093053
      4          6           0        1.754881    0.129492   -0.073458
      5          1           0        0.364765   -1.576432    0.130749
      6          1           0        1.987652    1.413117    0.036697
      7          1           0        2.606851   -0.368923   -0.159224
      8          1           0       -0.546986    1.408780    0.221028
 ---------------------------------------------------------------------

 SCF Done:  E(RB2PLYPD3) =  -191.579098051     A.U. after   13 cycles
 E2(B2PLYPD3) =    -0.2482108363D+00 E(B2PLYPD3) =    -0.19182730888721D+03

 The electronic state is 1-A.
 Alpha  occ. eigenvalues --  -19.72428 -10.70943 -10.67370 -10.65525  -1.20574
 Alpha  occ. eigenvalues --   -0.92189  -0.75688  -0.66107  -0.57425  -0.54762
 Alpha  occ. eigenvalues --   -0.51087  -0.47134  -0.45245  -0.34384  -0.33276
 Alpha virt. eigenvalues --   -0.01935   0.04760   0.06865   0.08417   0.09372
 Alpha virt. eigenvalues --    0.11808   0.14128   0.15409   0.17315   0.18803
 Alpha virt. eigenvalues --    0.19926   0.21546   0.24357   0.26515   0.28345

 Mulliken charges:
               1
     1  C    0.166468
     2  O   -0.339778
     3  C   -0.056773
     4  C   -0.123092
     5  H    0.108731
     6  H    0.076699
     7  H    0.108455
     8  H    0.059290
 Sum of Mulliken charges =   0.00000

 Dipole moment (field-independent basis, Debye):
    X=              3.4957    Y=              0.4923    Z=              0.2718  Tot=              3.5407
 Quadrupole moment (field-independent basis, Debye-Ang):
   XX=            -27.2128   YY=            -21.7401   ZZ=            -25.3997
   XY=             -0.4191   XZ=             -0.6797   YZ=              0.0488

 Normal termination of Gaussian 09 at Wed Aug 26 11:38:42 2020.
