 Gaussian 09, Revision D.01,
 Gaussian 09:  ES64L-G09RevD.01 24-Apr-2013

 --------------------
 #p B2PLYPD3/Def2QZVP
 --------------------

 --------
 acrolein
 --------
 Symbolic Z-matrix:
 Charge =  0 Multiplicity = 1

                         Standard orientation:
 ---------------------------------------------------------------------
 Center     Atomic      Atomic             Coordinates (Angstroms)
 Number     Number       Type             X           Y           Z
 ---------------------------------------------------------------------
      1          6           0       -0.672695    0.352780   -0.019035
      2          8           0       -1.788872   -0.127717    0.020260
      3          6           0        0.552962   -0.443908   -0.020600
      4          6           0        1.755328    0.130058    0.016913
      5          1           0        0.471361   -1.499715   -0.044793
      6          1           0        1.856809    1.223908   -0.019137
      7          1           0        2.671240   -0.419883    0.056454
      8          1           0       -0.502011    1.483847   -0.018280
 ---------------------------------------------------------------------

 SCF Done:  E(RB2PLYPD3) =  -191.615073691     A.U. after   12 cycles
 E2(B2PLYPD3) =    -0.2475968715D+00 E(B2PLYPD3) =    -0.19186267056252D+03

 The electronic state is 1-A.
 Alpha  occ. eigenvalues --  -19.72942 -10.72051 -10.65529 -10.64174  -1.19301
 Alpha  occ. eigenvalues --   -0.93136  -0.75529  -0.66806  -0.56732  -0.56211
 Alpha  occ. eigenvalues --   -0.50567  -0.47011  -0.46586  -0.34680  -0.33919
 Alpha virt. eigenvalues --   -0.01908   0.05720   0.07150   0.08191   0.09713
 Alpha virt. eigenvalues --    0.12484   0.13997   0.15359   0.17559   0.19771
 Alpha virt. eigenvalues --    0.19954   0.21535   0.25482   0.26306   0.28774

 Mulliken charges:
               1
     1  C    0.156768
     2  O   -0.348041
     3  C   -0.036969
     4  C   -0.126839
     5  H    0.106731
     6  H    0.079891
     7  H    0.102269
     8  H    0.066190
 Sum of Mulliken charges =   0.00000

 Dipole moment (field-independent basis, Debye):
    X=              3.5351    Y=              0.7311    Z=             -0.0786  Tot=              3.6108
 Quadrupole moment (field-independent basis, Debye-Ang):
   XX=            -27.3167   YY=            -21.8341   ZZ=            -25.2260
   XY=             -0.9772   XZ=              0.1816   YZ=             -0.0079

 Normal termination of Gaussian 09 at Wed Aug 26 19:59:13 2020.
