 Gaussian 09, Revision D.01,
 Gaussian 09:  ES64L-G09RevD.01 24-Apr-2013

 --------------------
 #p B2PLYPD3/Def2QZVP
 --------------------

 --------
 acrolein
 --------
 Symbolic Z-matrix:
 Charge =  0 Multiplicity = 1

                         Standard orientation:
 ---------------------------------------------------------------------
 Center     Atomic      Atomic             Coordinates (Angstroms)
 Number     Number       Type             X           Y           Z
 ---------------------------------------------------------------------
      1          6           0       -0.662383    0.341436   -0.011337
      2          8           0       -1.791910   -0.112398    0.018535
      3          6           0        0.564382   -0.454408   -0.032299
      4          6           0        1.750188    0.150091    0.023491
      5          1           0        0.425563   -1.569643   -0.021312
      6          1           0        1.844881    1.239060   -0.035230
      7          1           0        2.674820   -0.432400    0.053985
      8          1           0       -0.523114    1.439456   -0.024858
 ---------------------------------------------------------------------

 SCF Done:  E(RB2PLYPD3) =  -191.614664360     A.U. after   12 cycles
 E2(B2PLYPD3) =    -0.2477930730D+00 E(B2PLYPD3) =    -0.19186245743258D+03

 The electronic state is 1-A.
 Alpha  occ. eigenvalues --  -19.72690 -10.71516 -10.65885 -10.64930  -1.19006
 Alpha  occ. eigenvalues --   -0.93095  -0.75413  -0.66490  -0.56453  -0.56155
 Alpha  occ. eigenvalues --   -0.50227  -0.46724  -0.46431  -0.34765  -0.33773
 Alpha virt. eigenvalues --   -0.01879   0.05690   0.06887   0.08173   0.09712
 Alpha virt. eigenvalues --    0.12491   0.13970   0.15282   0.17200   0.19797
 Alpha virt. eigenvalues --    0.19972   0.21549   0.25244   0.26482   0.28690

 Mulliken charges:
               1
     1  C    0.157204
     2  O   -0.353511
     3  C   -0.035869
     4  C   -0.128569
     5  H    0.102529
     6  H    0.088854
     7  H    0.102494
     8  H    0.066867
 Sum of Mulliken charges =   0.00000

 Dipole moment (field-independent basis, Debye):
    X=              3.5702    Y=              0.7314    Z=             -0.0641  Tot=              3.6449
 Quadrupole moment (field-independent basis, Debye-Ang):
   XX=            -27.5694   YY=            -21.6750   ZZ=            -25.2853
   XY=             -0.8312   XZ=              0.1602   YZ=             -0.0727

 Normal termination of Gaussian 09 at Wed Aug 26 20:18:20 2020.
