 Gaussian 09, Revision D.01,
 Gaussian 09:  ES64L-G09RevD.01 24-Apr-2013

 --------------------
 #p B2PLYPD3/Def2QZVP
 --------------------

 --------
 acrolein
 --------
 Symbolic Z-matrix:
 Charge =  0 Multiplicity = 1

                         Standard orientation:
 ---------------------------------------------------------------------
 Center     Atomic      Atomic             Coordinates (Angstroms)
 Number     Number       Type             X           Y           Z
 ---------------------------------------------------------------------
      1          6           0        0.658250    0.367012    0.008623
      2          8           0        1.778231   -0.145366   -0.011105
      3          6           0       -0.549815   -0.400740    0.058394
      4          6           0       -1.755744    0.104305   -0.035757
      5          1           0       -0.361521   -1.487743   -0.078587
      6          1           0       -1.786321    1.170959    0.088150
      7          1           0       -2.651632   -0.471477   -0.038101
      8          1           0        0.457484    1.527733   -0.070185
 ---------------------------------------------------------------------

 SCF Done:  E(RB2PLYPD3) =  -191.605153684     A.U. after   13 cycles
 E2(B2PLYPD3) =    -0.2489071756D+00 E(B2PLYPD3) =    -0.19185406085918D+03

 The electronic state is 1-A.
 Alpha  occ. eigenvalues --  -19.73235 -10.72464 -10.65177 -10.64073  -1.18600
 Alpha  occ. eigenvalues --   -0.94120  -0.76385  -0.65818  -0.57351  -0.55798
 Alpha  occ. eigenvalues --   -0.50827  -0.46741  -0.45470  -0.35170  -0.34105
 Alpha virt. eigenvalues --   -0.02381   0.05757   0.06855   0.08134   0.10017
 Alpha virt. eigenvalues --    0.12487   0.13455   0.14906   0.17311   0.19574
 Alpha virt. eigenvalues --    0.20201   0.21874   0.24606   0.26762   0.28872

 Mulliken charges:
               1
     1  C    0.162072
     2  O   -0.355381
     3  C   -0.022937
     4  C   -0.120729
     5  H    0.098119
     6  H    0.077339
     7  H    0.109829
     8  H    0.051687
 Sum of Mulliken charges =   0.00000

 Dipole moment (field-independent basis, Debye):
    X=             -3.5839    Y=              0.7455    Z=             -0.0195  Tot=              3.6606
 Quadrupole moment (field-independent basis, Debye-Ang):
   XX=            -27.2948   YY=            -22.1316   ZZ=            -25.1560
   XY=              1.1025   XZ=              0.0673   YZ=              0.2487

 Normal termination of Gaussian 09 at Wed Aug 26 13:35:44 2020.
