 Gaussian 09, Revision D.01,
 Gaussian 09:  ES64L-G09RevD.01 24-Apr-2013

 --------------------
 #p B2PLYPD3/Def2QZVP
 --------------------

 --------
 acrolein
 --------
 Symbolic Z-matrix:
 Charge =  0 Multiplicity = 1

                         Standard orientation:
 ---------------------------------------------------------------------
 Center     Atomic      Atomic             Coordinates (Angstroms)
 Number     Number       Type             X           Y           Z
 ---------------------------------------------------------------------
      1          6           0        0.684676   -0.362517    0.048168
      2          8           0        1.787420    0.107262   -0.058163
      3          6           0       -0.552954    0.472425    0.101820
      4          6           0       -1.793106   -0.153059   -0.068832
      5          1           0       -0.434144    1.659266   -0.030482
      6          1           0       -1.869603   -1.274826    0.002651
      7          1           0       -2.522106    0.430980   -0.072836
      8          1           0        0.494793   -1.414612    0.079030
 ---------------------------------------------------------------------

 SCF Done:  E(RB2PLYPD3) =  -191.578899091     A.U. after   13 cycles
 E2(B2PLYPD3) =    -0.2489404610D+00 E(B2PLYPD3) =    -0.19182783955226D+03

 The electronic state is 1-A.
 Alpha  occ. eigenvalues --  -19.72813 -10.71425 -10.66322 -10.65204  -1.19939
 Alpha  occ. eigenvalues --   -0.91598  -0.76531  -0.66249  -0.57170  -0.55670
 Alpha  occ. eigenvalues --   -0.50711  -0.46764  -0.46420  -0.34034  -0.33471
 Alpha virt. eigenvalues --   -0.02270   0.05830   0.06807   0.07468   0.09646
 Alpha virt. eigenvalues --    0.12447   0.13867   0.15420   0.17207   0.19480
 Alpha virt. eigenvalues --    0.19929   0.22425   0.23963   0.26481   0.28118

 Mulliken charges:
               1
     1  C    0.162208
     2  O   -0.341118
     3  C   -0.056100
     4  C   -0.146511
     5  H    0.094238
     6  H    0.090254
     7  H    0.118039
     8  H    0.078991
 Sum of Mulliken charges =   0.00000

 Dipole moment (field-independent basis, Debye):
    X=             -3.3698    Y=             -0.8162    Z=              0.1085  Tot=              3.4690
 Quadrupole moment (field-independent basis, Debye-Ang):
   XX=            -27.7939   YY=            -21.3349   ZZ=            -25.4688
   XY=             -0.8192   XZ=              0.5210   YZ=             -0.2154

 Normal termination of Gaussian 09 at Wed Aug 26 11:25:40 2020.
