 Gaussian 09, Revision D.01,
 Gaussian 09:  ES64L-G09RevD.01 24-Apr-2013

 --------------------
 #p B2PLYPD3/Def2QZVP
 --------------------

 --------
 acrolein
 --------
 Symbolic Z-matrix:
 Charge =  0 Multiplicity = 1

                         Standard orientation:
 ---------------------------------------------------------------------
 Center     Atomic      Atomic             Coordinates (Angstroms)
 Number     Number       Type             X           Y           Z
 ---------------------------------------------------------------------
      1          6           0        0.680324    0.382941    0.085924
      2          8           0        1.770377   -0.151478   -0.061564
      3          6           0       -0.538347   -0.462906    0.007484
      4          6           0       -1.725399    0.137398   -0.049777
      5          1           0       -0.532954   -1.432803    0.169680
      6          1           0       -1.760919    1.161677   -0.126944
      7          1           0       -2.783734   -0.412296    0.056610
      8          1           0        0.415116    1.550650    0.131377
 ---------------------------------------------------------------------

 SCF Done:  E(RB2PLYPD3) =  -191.585671075     A.U. after   13 cycles
 E2(B2PLYPD3) =    -0.2491338942D+00 E(B2PLYPD3) =    -0.19183480496875D+03

 The electronic state is 1-A.
 Alpha  occ. eigenvalues --  -19.73472 -10.73266 -10.65481 -10.63235  -1.19322
 Alpha  occ. eigenvalues --   -0.93164  -0.74103  -0.68153  -0.56122  -0.55626
 Alpha  occ. eigenvalues --   -0.50399  -0.46921  -0.46506  -0.34550  -0.33938
 Alpha virt. eigenvalues --   -0.01731   0.05537   0.06847   0.07366   0.09741
 Alpha virt. eigenvalues --    0.12340   0.13578   0.15111   0.18082   0.19628
 Alpha virt. eigenvalues --    0.20064   0.20928   0.24853   0.26448   0.28989

 Mulliken charges:
               1
     1  C    0.159804
     2  O   -0.340302
     3  C   -0.038939
     4  C   -0.126107
     5  H    0.112446
     6  H    0.079289
     7  H    0.085417
     8  H    0.068391
 Sum of Mulliken charges =   0.00000

 Dipole moment (field-independent basis, Debye):
    X=             -3.3201    Y=              0.8594    Z=              0.3830  Tot=              3.4508
 Quadrupole moment (field-independent basis, Debye-Ang):
   XX=            -27.4823   YY=            -21.8569   ZZ=            -25.2561
   XY=              1.0569   XZ=              0.1774   YZ=             -0.3372

 Normal termination of Gaussian 09 at Wed Aug 26 13:48:58 2020.
