 Gaussian 09, Revision D.01,
 Gaussian 09:  ES64L-G09RevD.01 24-Apr-2013

 --------------------
 #p B2PLYPD3/Def2QZVP
 --------------------

 --------
 acrolein
 --------
 Symbolic Z-matrix:
 Charge =  0 Multiplicity = 1

                         Standard orientation:
 ---------------------------------------------------------------------
 Center     Atomic      Atomic             Coordinates (Angstroms)
 Number     Number       Type             X           Y           Z
 ---------------------------------------------------------------------
      1          6           0       -0.678112    0.366853   -0.011369
      2          8           0       -1.783759   -0.130417   -0.003459
      3          6           0        0.546503   -0.438854    0.027780
      4          6           0        1.772946    0.139113   -0.018790
      5          1           0        0.390188   -1.525883    0.002160
      6          1           0        1.791358    1.203031    0.069998
      7          1           0        2.778812   -0.437216   -0.038986
      8          1           0       -0.538305    1.400731    0.008773
 ---------------------------------------------------------------------

 SCF Done:  E(RB2PLYPD3) =  -191.607979399     A.U. after   13 cycles
 E2(B2PLYPD3) =    -0.2478289546D+00 E(B2PLYPD3) =    -0.19185580835369D+03

 The electronic state is 1-A.
 Alpha  occ. eigenvalues --  -19.72705 -10.70999 -10.66456 -10.64739  -1.19438
 Alpha  occ. eigenvalues --   -0.92372  -0.75404  -0.67766  -0.56654  -0.55621
 Alpha  occ. eigenvalues --   -0.50383  -0.46754  -0.46387  -0.34217  -0.34025
 Alpha virt. eigenvalues --   -0.02068   0.05560   0.07222   0.08007   0.09732
 Alpha virt. eigenvalues --    0.12328   0.13934   0.15342   0.17601   0.19799
 Alpha virt. eigenvalues --    0.19946   0.21082   0.25166   0.26648   0.29127

 Mulliken charges:
               1
     1  C    0.158108
     2  O   -0.353341
     3  C   -0.042442
     4  C   -0.136971
     5  H    0.106428
     6  H    0.083611
     7  H    0.103423
     8  H    0.081185
 Sum of Mulliken charges =   0.00000

 Dipole moment (field-independent basis, Debye):
    X=              3.4439    Y=              0.8790    Z=              0.0222  Tot=              3.5544
 Quadrupole moment (field-independent basis, Debye-Ang):
   XX=            -27.3704   YY=            -21.7523   ZZ=            -25.3203
   XY=             -1.1076   XZ=             -0.0201   YZ=              0.1302

 Normal termination of Gaussian 09 at Wed Aug 26 09:04:16 2020.
