 Gaussian 09, Revision D.01,
 Gaussian 09:  ES64L-G09RevD.01 24-Apr-2013

 --------------------
 #p B2PLYPD3/Def2QZVP
 --------------------

 --------
 acrolein
 --------
 Symbolic Z-matrix:
 Charge =  0 Multiplicity = 1

                         Standard orientation:
 ---------------------------------------------------------------------
 Center     Atomic      Atomic             Coordinates (Angstroms)
 Number     Number       Type             X           Y           Z
 ---------------------------------------------------------------------
      1          6           0       -0.670238    0.379399   -0.014120
      2          8           0       -1.756905   -0.171048   -0.008611
      3          6           0        0.548632   -0.400415   -0.001399
      4          6           0        1.753830    0.125191   -0.039889
      5          1           0        0.523595   -1.448332    0.114009
      6          1           0        1.741487    1.170213    0.003815
      7          1           0        2.611098   -0.474303    0.109868
      8          1           0       -0.614285    1.495758    0.173643
 ---------------------------------------------------------------------

 SCF Done:  E(RB2PLYPD3) =  -191.605586991     A.U. after   12 cycles
 E2(B2PLYPD3) =    -0.2471555148D+00 E(B2PLYPD3) =    -0.19185274250561D+03

 The electronic state is 1-A.
 Alpha  occ. eigenvalues --  -19.72815 -10.71914 -10.64122 -10.63387  -1.19290
 Alpha  occ. eigenvalues --   -0.93893  -0.75670  -0.67130  -0.57966  -0.56201
 Alpha  occ. eigenvalues --   -0.50609  -0.47349  -0.45896  -0.34787  -0.34042
 Alpha virt. eigenvalues --   -0.01847   0.05952   0.06804   0.08300   0.09939
 Alpha virt. eigenvalues --    0.12447   0.14133   0.15329   0.17664   0.19278
 Alpha virt. eigenvalues --    0.20064   0.22032   0.25344   0.26551   0.28937

 Mulliken charges:
               1
     1  C    0.146453
     2  O   -0.345123
     3  C   -0.033019
     4  C   -0.122439
     5  H    0.101155
     6  H    0.074602
     7  H    0.102123
     8  H    0.076247
 Sum of Mulliken charges =   0.00000

 Dipole moment (field-independent basis, Debye):
    X=              3.3325    Y=              0.8746    Z=              0.2722  Tot=              3.4561
 Quadrupole moment (field-independent basis, Debye-Ang):
   XX=            -27.5070   YY=            -21.7625   ZZ=            -25.0150
   XY=             -1.7660   XZ=              0.2979   YZ=             -0.1202

 Normal termination of Gaussian 09 at Wed Aug 26 13:10:30 2020.
