 Gaussian 09, Revision D.01,
 Gaussian 09:  ES64L-G09RevD.01 24-Apr-2013

 --------------------
 #p B2PLYPD3/Def2QZVP
 --------------------

 --------
 acrolein
 --------
 Symbolic Z-matrix:
 Charge =  0 Multiplicity = 1

                         Standard orientation:
 ---------------------------------------------------------------------
 Center     Atomic      Atomic             Coordinates (Angstroms)
 Number     Number       Type             X           Y           Z
 ---------------------------------------------------------------------
      1          6           0        0.680296    0.346784   -0.010325
      2          8           0        1.788353   -0.107859    0.028304
      3          6           0       -0.570329   -0.479756   -0.047588
      4          6           0       -1.751962    0.156111    0.035297
      5          1           0       -0.489101   -1.558040   -0.060887
      6          1           0       -1.879637    1.313218   -0.064891
      7          1           0       -2.638263   -0.406936    0.102089
      8          1           0        0.552151    1.375791   -0.067049
 ---------------------------------------------------------------------

 SCF Done:  E(RB2PLYPD3) =  -191.607387674     A.U. after   12 cycles
 E2(B2PLYPD3) =    -0.2466507714D+00 E(B2PLYPD3) =    -0.19185403844501D+03

 The electronic state is 1-A.
 Alpha  occ. eigenvalues --  -19.72543 -10.70838 -10.65916 -10.64700  -1.20108
 Alpha  occ. eigenvalues --   -0.92263  -0.75014  -0.67542  -0.56353  -0.56276
 Alpha  occ. eigenvalues --   -0.50694  -0.47077  -0.46484  -0.34423  -0.33649
 Alpha virt. eigenvalues --   -0.01336   0.05637   0.07165   0.07973   0.09558
 Alpha virt. eigenvalues --    0.12452   0.14258   0.15391   0.17655   0.19391
 Alpha virt. eigenvalues --    0.19978   0.21545   0.24972   0.26577   0.28417

 Mulliken charges:
               1
     1  C    0.160907
     2  O   -0.343023
     3  C   -0.059646
     4  C   -0.130467
     5  H    0.106711
     6  H    0.082027
     7  H    0.100043
     8  H    0.083447
 Sum of Mulliken charges =   0.00000

 Dipole moment (field-independent basis, Debye):
    X=             -3.3863    Y=              0.7609    Z=             -0.1193  Tot=              3.4728
 Quadrupole moment (field-independent basis, Debye-Ang):
   XX=            -27.6409   YY=            -21.4461   ZZ=            -25.2561
   XY=              0.9195   XZ=             -0.2653   YZ=             -0.1070

 Normal termination of Gaussian 09 at Wed Aug 26 08:16:22 2020.
