 Gaussian 09, Revision D.01,
 Gaussian 09:  ES64L-G09RevD.01 24-Apr-2013

 --------------------
 #p B2PLYPD3/Def2QZVP
 --------------------

 --------
 acrolein
 --------
 Symbolic Z-matrix:
 Charge =  0 Multiplicity = 1

                         Standard orientation:
 ---------------------------------------------------------------------
 Center     Atomic      Atomic             Coordinates (Angstroms)
 Number     Number       Type             X           Y           Z
 ---------------------------------------------------------------------
      1          6           0        0.668169   -0.356403   -0.098709
      2          8           0        1.805518    0.119834    0.070832
      3          6           0       -0.594980    0.463411   -0.008625
      4          6           0       -1.756031   -0.168585    0.012193
      5          1           0       -0.451819    1.527464   -0.110735
      6          1           0       -1.700841   -1.113618    0.278173
      7          1           0       -2.686217    0.357032    0.008281
      8          1           0        0.491787   -1.360089   -0.171529
 ---------------------------------------------------------------------

 SCF Done:  E(RB2PLYPD3) =  -191.594715419     A.U. after   14 cycles
 E2(B2PLYPD3) =    -0.2481138041D+00 E(B2PLYPD3) =    -0.19184282922286D+03

 The electronic state is 1-A.
 Alpha  occ. eigenvalues --  -19.73136 -10.71617 -10.64469 -10.63875  -1.17634
 Alpha  occ. eigenvalues --   -0.93706  -0.76195  -0.68722  -0.57604  -0.56138
 Alpha  occ. eigenvalues --   -0.50671  -0.47657  -0.45525  -0.34761  -0.33976
 Alpha virt. eigenvalues --   -0.02119   0.05950   0.06976   0.07537   0.09791
 Alpha virt. eigenvalues --    0.13003   0.14127   0.14962   0.17132   0.19442
 Alpha virt. eigenvalues --    0.20817   0.22048   0.23910   0.26770   0.28388

 Mulliken charges:
               1
     1  C    0.155128
     2  O   -0.362976
     3  C   -0.037185
     4  C   -0.136195
     5  H    0.101975
     6  H    0.086511
     7  H    0.099079
     8  H    0.093663
 Sum of Mulliken charges =   0.00000

 Dipole moment (field-independent basis, Debye):
    X=             -3.4781    Y=             -0.8519    Z=             -0.1982  Tot=              3.5864
 Quadrupole moment (field-independent basis, Debye-Ang):
   XX=            -27.9230   YY=            -21.6882   ZZ=            -24.9761
   XY=             -1.0577   XZ=             -0.7024   YZ=             -0.3814

 Normal termination of Gaussian 09 at Wed Aug 26 14:16:26 2020.
