 Gaussian 09, Revision D.01,
 Gaussian 09:  ES64L-G09RevD.01 24-Apr-2013

 --------------------
 #p B2PLYPD3/Def2QZVP
 --------------------

 --------
 acrolein
 --------
 Symbolic Z-matrix:
 Charge =  0 Multiplicity = 1

                         Standard orientation:
 ---------------------------------------------------------------------
 Center     Atomic      Atomic             Coordinates (Angstroms)
 Number     Number       Type             X           Y           Z
 ---------------------------------------------------------------------
      1          6           0        0.670998    0.340749   -0.022242
      2          8           0        1.786699   -0.109890    0.022689
      3          6           0       -0.560174   -0.457783   -0.024284
      4          6           0       -1.759713    0.149155    0.020924
      5          1           0       -0.407331   -1.586054   -0.045758
      6          1           0       -1.818375    1.247480   -0.040632
      7          1           0       -2.690922   -0.414100    0.068026
      8          1           0        0.516367    1.439065   -0.009537
 ---------------------------------------------------------------------

 SCF Done:  E(RB2PLYPD3) =  -191.613808117     A.U. after   12 cycles
 E2(B2PLYPD3) =    -0.2475942924D+00 E(B2PLYPD3) =    -0.19186140240903D+03

 The electronic state is 1-A.
 Alpha  occ. eigenvalues --  -19.72747 -10.71436 -10.66056 -10.65173  -1.19878
 Alpha  occ. eigenvalues --   -0.92607  -0.75262  -0.66254  -0.56394  -0.56047
 Alpha  occ. eigenvalues --   -0.50490  -0.47041  -0.46401  -0.34538  -0.33757
 Alpha virt. eigenvalues --   -0.01821   0.05721   0.06897   0.08237   0.09718
 Alpha virt. eigenvalues --    0.12473   0.13982   0.15337   0.17123   0.19747
 Alpha virt. eigenvalues --    0.20011   0.21467   0.25245   0.26521   0.28846

 Mulliken charges:
               1
     1  C    0.159871
     2  O   -0.345042
     3  C   -0.037838
     4  C   -0.132191
     5  H    0.099712
     6  H    0.086763
     7  H    0.106484
     8  H    0.062241
 Sum of Mulliken charges =   0.00000

 Dipole moment (field-independent basis, Debye):
    X=             -3.4752    Y=              0.7102    Z=             -0.0929  Tot=              3.5483
 Quadrupole moment (field-independent basis, Debye-Ang):
   XX=            -27.4207   YY=            -21.7593   ZZ=            -25.3316
   XY=              0.8244   XZ=             -0.1946   YZ=             -0.0369

 Normal termination of Gaussian 09 at Wed Aug 26 19:12:58 2020.
