 Gaussian 09, Revision D.01,
 Gaussian 09:  ES64L-G09RevD.01 24-Apr-2013

 --------------------
 #p B2PLYPD3/Def2QZVP
 --------------------

 --------
 acrolein
 --------
 Symbolic Z-matrix:
 Charge =  0 Multiplicity = 1

                         Standard orientation:
 ---------------------------------------------------------------------
 Center     Atomic      Atomic             Coordinates (Angstroms)
 Number     Number       Type             X           Y           Z
 ---------------------------------------------------------------------
      1          6           0       -0.657776    0.354379   -0.059787
      2          8           0       -1.804140   -0.131380    0.061105
      3          6           0        0.597909   -0.452226   -0.074055
      4          6           0        1.742328    0.161642    0.053118
      5          1           0        0.537215   -1.538300   -0.108534
      6          1           0        1.842236    1.142319   -0.083188
      7          1           0        2.523611   -0.402196    0.218125
      8          1           0       -0.564708    1.466441   -0.030898
 ---------------------------------------------------------------------

 SCF Done:  E(RB2PLYPD3) =  -191.594301346     A.U. after   14 cycles
 E2(B2PLYPD3) =    -0.2480138861D+00 E(B2PLYPD3) =    -0.19184231523204D+03

 The electronic state is 1-A.
 Alpha  occ. eigenvalues --  -19.72793 -10.72366 -10.64539 -10.62908  -1.17062
 Alpha  occ. eigenvalues --   -0.94373  -0.76271  -0.67483  -0.58291  -0.56384
 Alpha  occ. eigenvalues --   -0.49864  -0.48511  -0.45277  -0.34889  -0.33758
 Alpha virt. eigenvalues --   -0.01789   0.05940   0.07003   0.07473   0.09766
 Alpha virt. eigenvalues --    0.12766   0.14224   0.15256   0.17038   0.19767
 Alpha virt. eigenvalues --    0.20864   0.22382   0.24485   0.26512   0.28248

 Mulliken charges:
               1
     1  C    0.147959
     2  O   -0.365788
     3  C   -0.030055
     4  C   -0.126816
     5  H    0.101755
     6  H    0.092659
     7  H    0.098339
     8  H    0.081947
 Sum of Mulliken charges =   0.00000

 Dipole moment (field-independent basis, Debye):
    X=              3.6708    Y=              0.8240    Z=             -0.2012  Tot=              3.7675
 Quadrupole moment (field-independent basis, Debye-Ang):
   XX=            -27.9003   YY=            -21.4391   ZZ=            -24.9827
   XY=             -1.1145   XZ=              0.5953   YZ=             -0.1046

 Normal termination of Gaussian 09 at Wed Aug 26 11:19:04 2020.
