 Gaussian 09, Revision D.01,
 Gaussian 09:  ES64L-G09RevD.01 24-Apr-2013

 --------------------
 #p B2PLYPD3/Def2QZVP
 --------------------

 --------
 acrolein
 --------
 Symbolic Z-matrix:
 Charge =  0 Multiplicity = 1

                         Standard orientation:
 ---------------------------------------------------------------------
 Center     Atomic      Atomic             Coordinates (Angstroms)
 Number     Number       Type             X           Y           Z
 ---------------------------------------------------------------------
      1          6           0        0.674336    0.346053   -0.031372
      2          8           0        1.780534   -0.121889    0.038020
      3          6           0       -0.534809   -0.440088   -0.034127
      4          6           0       -1.762989    0.129702    0.004390
      5          1           0       -0.444202   -1.505057   -0.084547
      6          1           0       -1.834541    1.216373    0.019081
      7          1           0       -2.676793   -0.442424    0.171983
      8          1           0        0.452038    1.492215   -0.044020
 ---------------------------------------------------------------------

 SCF Done:  E(RB2PLYPD3) =  -191.611744730     A.U. after   13 cycles
 E2(B2PLYPD3) =    -0.2480162421D+00 E(B2PLYPD3) =    -0.19185976097200D+03

 The electronic state is 1-A.
 Alpha  occ. eigenvalues --  -19.73008 -10.71952 -10.66101 -10.64360  -1.20144
 Alpha  occ. eigenvalues --   -0.92885  -0.75689  -0.66409  -0.56562  -0.56034
 Alpha  occ. eigenvalues --   -0.50532  -0.47517  -0.46743  -0.34394  -0.33845
 Alpha virt. eigenvalues --   -0.02245   0.05708   0.07055   0.08380   0.09789
 Alpha virt. eigenvalues --    0.12505   0.13745   0.15291   0.17601   0.19646
 Alpha virt. eigenvalues --    0.19799   0.21591   0.25340   0.26364   0.28724

 Mulliken charges:
               1
     1  C    0.157911
     2  O   -0.340889
     3  C   -0.028227
     4  C   -0.129995
     5  H    0.104300
     6  H    0.081211
     7  H    0.104961
     8  H    0.050727
 Sum of Mulliken charges =   0.00000

 Dipole moment (field-independent basis, Debye):
    X=             -3.5049    Y=              0.6449    Z=             -0.0384  Tot=              3.5640
 Quadrupole moment (field-independent basis, Debye-Ang):
   XX=            -27.2165   YY=            -22.0067   ZZ=            -25.2553
   XY=              0.8889   XZ=             -0.6026   YZ=              0.0156

 Normal termination of Gaussian 09 at Wed Aug 26 09:15:44 2020.
