 Gaussian 09, Revision D.01,
 Gaussian 09:  ES64L-G09RevD.01 24-Apr-2013

 --------------------
 #p B2PLYPD3/Def2QZVP
 --------------------

 --------
 acrolein
 --------
 Symbolic Z-matrix:
 Charge =  0 Multiplicity = 1

                         Standard orientation:
 ---------------------------------------------------------------------
 Center     Atomic      Atomic             Coordinates (Angstroms)
 Number     Number       Type             X           Y           Z
 ---------------------------------------------------------------------
      1          6           0        0.678200    0.347486   -0.029012
      2          8           0        1.787298   -0.121140    0.024268
      3          6           0       -0.565494   -0.451474   -0.026206
      4          6           0       -1.753701    0.142964    0.005268
      5          1           0       -0.486309   -1.503633   -0.003318
      6          1           0       -1.839088    1.240379    0.030552
      7          1           0       -2.631914   -0.426025    0.078870
      8          1           0        0.504898    1.424547   -0.000551
 ---------------------------------------------------------------------

 SCF Done:  E(RB2PLYPD3) =  -191.615931342     A.U. after   12 cycles
 E2(B2PLYPD3) =    -0.2464649527D+00 E(B2PLYPD3) =    -0.19186239629437D+03

 The electronic state is 1-A.
 Alpha  occ. eigenvalues --  -19.72850 -10.71442 -10.65076 -10.63957  -1.19854
 Alpha  occ. eigenvalues --   -0.93096  -0.75512  -0.67381  -0.56834  -0.56449
 Alpha  occ. eigenvalues --   -0.50844  -0.47199  -0.46915  -0.34730  -0.33848
 Alpha virt. eigenvalues --   -0.01541   0.05815   0.07310   0.08196   0.09733
 Alpha virt. eigenvalues --    0.12677   0.14048   0.15384   0.17731   0.19664
 Alpha virt. eigenvalues --    0.19931   0.21728   0.25461   0.26585   0.28626

 Mulliken charges:
               1
     1  C    0.155658
     2  O   -0.344815
     3  C   -0.041648
     4  C   -0.131606
     5  H    0.104650
     6  H    0.081977
     7  H    0.102354
     8  H    0.073431
 Sum of Mulliken charges =   0.00000

 Dipole moment (field-independent basis, Debye):
    X=             -3.4307    Y=              0.7476    Z=              0.0059  Tot=              3.5113
 Quadrupole moment (field-independent basis, Debye-Ang):
   XX=            -27.4908   YY=            -21.6989   ZZ=            -25.1315
   XY=              0.9897   XZ=             -0.3617   YZ=             -0.0145

 Normal termination of Gaussian 09 at Wed Aug 26 10:55:23 2020.
