 Gaussian 09, Revision D.01,
 Gaussian 09:  ES64L-G09RevD.01 24-Apr-2013

 --------------------
 #p B2PLYPD3/Def2QZVP
 --------------------

 --------
 acrolein
 --------
 Symbolic Z-matrix:
 Charge =  0 Multiplicity = 1

                         Standard orientation:
 ---------------------------------------------------------------------
 Center     Atomic      Atomic             Coordinates (Angstroms)
 Number     Number       Type             X           Y           Z
 ---------------------------------------------------------------------
      1          6           0       -0.676421    0.356233   -0.012637
      2          8           0       -1.786617   -0.128349    0.011320
      3          6           0        0.565624   -0.437077   -0.020959
      4          6           0        1.758224    0.131287   -0.002358
      5          1           0        0.442174   -1.503383    0.022000
      6          1           0        1.861852    1.211482    0.015963
      7          1           0        2.622659   -0.431264    0.067580
      8          1           0       -0.518310    1.447305    0.019627
 ---------------------------------------------------------------------

 SCF Done:  E(RB2PLYPD3) =  -191.615838362     A.U. after   12 cycles
 E2(B2PLYPD3) =    -0.2465990220D+00 E(B2PLYPD3) =    -0.19186243738398D+03

 The electronic state is 1-A.
 Alpha  occ. eigenvalues --  -19.72909 -10.71606 -10.64712 -10.64056  -1.19520
 Alpha  occ. eigenvalues --   -0.93268  -0.75857  -0.67079  -0.57022  -0.56533
 Alpha  occ. eigenvalues --   -0.50946  -0.46982  -0.46721  -0.34850  -0.33892
 Alpha virt. eigenvalues --   -0.01643   0.05832   0.07290   0.08261   0.09778
 Alpha virt. eigenvalues --    0.12650   0.14028   0.15382   0.17532   0.19726
 Alpha virt. eigenvalues --    0.19929   0.22014   0.25543   0.26546   0.28592

 Mulliken charges:
               1
     1  C    0.157643
     2  O   -0.348690
     3  C   -0.040075
     4  C   -0.130262
     5  H    0.103819
     6  H    0.081647
     7  H    0.103751
     8  H    0.072166
 Sum of Mulliken charges =   0.00000

 Dipole moment (field-independent basis, Debye):
    X=              3.4523    Y=              0.7842    Z=              0.0609  Tot=              3.5408
 Quadrupole moment (field-independent basis, Debye-Ang):
   XX=            -27.4173   YY=            -21.7509   ZZ=            -25.1093
   XY=             -0.9652   XZ=              0.2640   YZ=             -0.0524

 Normal termination of Gaussian 09 at Wed Aug 26 16:11:42 2020.
