 Gaussian 09, Revision D.01,
 Gaussian 09:  ES64L-G09RevD.01 24-Apr-2013

 --------------------
 #p B2PLYPD3/Def2QZVP
 --------------------

 --------
 acrolein
 --------
 Symbolic Z-matrix:
 Charge =  0 Multiplicity = 1

                         Standard orientation:
 ---------------------------------------------------------------------
 Center     Atomic      Atomic             Coordinates (Angstroms)
 Number     Number       Type             X           Y           Z
 ---------------------------------------------------------------------
      1          6           0       -0.660139    0.348030   -0.047513
      2          8           0       -1.798140   -0.112492    0.037852
      3          6           0        0.577569   -0.459655   -0.045534
      4          6           0        1.749087    0.151812    0.032798
      5          1           0        0.433518   -1.599141   -0.016207
      6          1           0        1.852152    1.282204   -0.024126
      7          1           0        2.677311   -0.417488    0.085659
      8          1           0       -0.576964    1.393235    0.013352
 ---------------------------------------------------------------------

 SCF Done:  E(RB2PLYPD3) =  -191.607295542     A.U. after   13 cycles
 E2(B2PLYPD3) =    -0.2482596093D+00 E(B2PLYPD3) =    -0.19185555515158D+03

 The electronic state is 1-A.
 Alpha  occ. eigenvalues --  -19.72559 -10.71209 -10.66089 -10.65299  -1.18199
 Alpha  occ. eigenvalues --   -0.92991  -0.75278  -0.66863  -0.56391  -0.55994
 Alpha  occ. eigenvalues --   -0.50078  -0.46046  -0.45926  -0.34863  -0.33803
 Alpha virt. eigenvalues --   -0.01788   0.05589   0.06818   0.07799   0.09617
 Alpha virt. eigenvalues --    0.12361   0.14096   0.15260   0.17221   0.19456
 Alpha virt. eigenvalues --    0.20004   0.21503   0.24958   0.26686   0.28984

 Mulliken charges:
               1
     1  C    0.159319
     2  O   -0.361379
     3  C   -0.044919
     4  C   -0.124259
     5  H    0.103293
     6  H    0.084718
     7  H    0.102396
     8  H    0.080830
 Sum of Mulliken charges =   0.00000

 Dipole moment (field-independent basis, Debye):
    X=              3.5860    Y=              0.8068    Z=             -0.0950  Tot=              3.6768
 Quadrupole moment (field-independent basis, Debye-Ang):
   XX=            -27.7749   YY=            -21.4848   ZZ=            -25.3233
   XY=             -0.9316   XZ=              0.3325   YZ=             -0.0721

 Normal termination of Gaussian 09 at Wed Aug 26 08:48:09 2020.
