 Gaussian 09, Revision D.01,
 Gaussian 09:  ES64L-G09RevD.01 24-Apr-2013

 --------------------
 #p B2PLYPD3/Def2QZVP
 --------------------

 --------
 acrolein
 --------
 Symbolic Z-matrix:
 Charge =  0 Multiplicity = 1

                         Standard orientation:
 ---------------------------------------------------------------------
 Center     Atomic      Atomic             Coordinates (Angstroms)
 Number     Number       Type             X           Y           Z
 ---------------------------------------------------------------------
      1          6           0        0.685464    0.357554    0.002414
      2          8           0        1.792290   -0.127704   -0.014094
      3          6           0       -0.548792   -0.434565    0.000993
      4          6           0       -1.756480    0.132400   -0.007276
      5          1           0       -0.413103   -1.516415    0.060465
      6          1           0       -1.863569    1.195780   -0.086542
      7          1           0       -2.790794   -0.455260    0.027832
      8          1           0        0.447994    1.465186    0.134206
 ---------------------------------------------------------------------

 SCF Done:  E(RB2PLYPD3) =  -191.606806174     A.U. after   13 cycles
 E2(B2PLYPD3) =    -0.2482258708D+00 E(B2PLYPD3) =    -0.19185503204499D+03

 The electronic state is 1-A.
 Alpha  occ. eigenvalues --  -19.73254 -10.72133 -10.66494 -10.64480  -1.19925
 Alpha  occ. eigenvalues --   -0.92787  -0.75012  -0.66538  -0.56517  -0.55467
 Alpha  occ. eigenvalues --   -0.50510  -0.47033  -0.45896  -0.34748  -0.33949
 Alpha virt. eigenvalues --   -0.01911   0.05447   0.06970   0.08117   0.09705
 Alpha virt. eigenvalues --    0.12286   0.13776   0.15336   0.17510   0.19474
 Alpha virt. eigenvalues --    0.20096   0.21088   0.25132   0.26651   0.28500

 Mulliken charges:
               1
     1  C    0.161373
     2  O   -0.343195
     3  C   -0.035878
     4  C   -0.130965
     5  H    0.105979
     6  H    0.084265
     7  H    0.095944
     8  H    0.062476
 Sum of Mulliken charges =   0.00000

 Dipole moment (field-independent basis, Debye):
    X=             -3.4388    Y=              0.7654    Z=              0.0774  Tot=              3.5238
 Quadrupole moment (field-independent basis, Debye-Ang):
   XX=            -27.2457   YY=            -22.0454   ZZ=            -25.3347
   XY=              0.7599   XZ=              0.1068   YZ=             -0.1550

 Normal termination of Gaussian 09 at Wed Aug 26 08:38:45 2020.
