 Gaussian 09, Revision D.01,
 Gaussian 09:  ES64L-G09RevD.01 24-Apr-2013

 --------------------
 #p B2PLYPD3/Def2QZVP
 --------------------

 --------
 acrolein
 --------
 Symbolic Z-matrix:
 Charge =  0 Multiplicity = 1

                         Standard orientation:
 ---------------------------------------------------------------------
 Center     Atomic      Atomic             Coordinates (Angstroms)
 Number     Number       Type             X           Y           Z
 ---------------------------------------------------------------------
      1          6           0       -0.670307    0.345590    0.029767
      2          8           0       -1.776323   -0.120724   -0.037042
      3          6           0        0.548204   -0.434915    0.064187
      4          6           0        1.756894    0.139273   -0.018112
      5          1           0        0.407365   -1.562705   -0.043100
      6          1           0        1.826144    1.178746   -0.075374
      7          1           0        2.725306   -0.394344   -0.089599
      8          1           0       -0.556975    1.444406    0.049358
 ---------------------------------------------------------------------

 SCF Done:  E(RB2PLYPD3) =  -191.611416993     A.U. after   12 cycles
 E2(B2PLYPD3) =    -0.2471150131D+00 E(B2PLYPD3) =    -0.19185853200637D+03

 The electronic state is 1-A.
 Alpha  occ. eigenvalues --  -19.72610 -10.71216 -10.65643 -10.64972  -1.19997
 Alpha  occ. eigenvalues --   -0.92974  -0.75791  -0.66592  -0.57170  -0.56084
 Alpha  occ. eigenvalues --   -0.50515  -0.47179  -0.46131  -0.34622  -0.33800
 Alpha virt. eigenvalues --   -0.01956   0.05749   0.06972   0.08434   0.09748
 Alpha virt. eigenvalues --    0.12498   0.14032   0.15394   0.17264   0.19746
 Alpha virt. eigenvalues --    0.20110   0.21506   0.25246   0.26388   0.28990

 Mulliken charges:
               1
     1  C    0.153688
     2  O   -0.345297
     3  C   -0.035332
     4  C   -0.123754
     5  H    0.100196
     6  H    0.083515
     7  H    0.102480
     8  H    0.064504
 Sum of Mulliken charges =   0.00000

 Dipole moment (field-independent basis, Debye):
    X=              3.5017    Y=              0.7886    Z=             -0.0534  Tot=              3.5898
 Quadrupole moment (field-independent basis, Debye-Ang):
   XX=            -27.0767   YY=            -21.9349   ZZ=            -25.2138
   XY=             -0.8857   XZ=             -0.5634   YZ=              0.0721

 Normal termination of Gaussian 09 at Wed Aug 26 08:35:53 2020.
