 Gaussian 09, Revision D.01,
 Gaussian 09:  ES64L-G09RevD.01 24-Apr-2013

 --------------------
 #p B2PLYPD3/Def2QZVP
 --------------------

 --------
 acrolein
 --------
 Symbolic Z-matrix:
 Charge =  0 Multiplicity = 1

                         Standard orientation:
 ---------------------------------------------------------------------
 Center     Atomic      Atomic             Coordinates (Angstroms)
 Number     Number       Type             X           Y           Z
 ---------------------------------------------------------------------
      1          6           0       -0.677021    0.327002    0.021302
      2          8           0       -1.810606   -0.084761   -0.031093
      3          6           0        0.566321   -0.496140    0.059482
      4          6           0        1.783827    0.161498   -0.048461
      5          1           0        0.346736   -1.620378    0.072930
      6          1           0        1.915461    1.289051    0.208375
      7          1           0        2.700036   -0.405669   -0.183014
      8          1           0       -0.516150    1.460924   -0.043484
 ---------------------------------------------------------------------

 SCF Done:  E(RB2PLYPD3) =  -191.597724795     A.U. after   14 cycles
 E2(B2PLYPD3) =    -0.2499226270D+00 E(B2PLYPD3) =    -0.19184764742167D+03

 The electronic state is 1-A.
 Alpha  occ. eigenvalues --  -19.72812 -10.71929 -10.67553 -10.66521  -1.19655
 Alpha  occ. eigenvalues --   -0.91372  -0.74783  -0.65376  -0.56080  -0.54856
 Alpha  occ. eigenvalues --   -0.50110  -0.47160  -0.46294  -0.33861  -0.33401
 Alpha virt. eigenvalues --   -0.02499   0.05407   0.06843   0.07589   0.09562
 Alpha virt. eigenvalues --    0.12176   0.13886   0.15324   0.16766   0.19539
 Alpha virt. eigenvalues --    0.20172   0.21202   0.23771   0.26600   0.28014

 Mulliken charges:
               1
     1  C    0.167058
     2  O   -0.343661
     3  C   -0.052401
     4  C   -0.128731
     5  H    0.106107
     6  H    0.096033
     7  H    0.104126
     8  H    0.051469
 Sum of Mulliken charges =   0.00000

 Dipole moment (field-independent basis, Debye):
    X=              3.5475    Y=              0.5793    Z=              0.1564  Tot=              3.5979
 Quadrupole moment (field-independent basis, Debye-Ang):
   XX=            -27.5222   YY=            -21.7846   ZZ=            -25.5594
   XY=             -0.4141   XZ=             -0.2308   YZ=              0.2798

 Normal termination of Gaussian 09 at Wed Aug 26 13:26:47 2020.
