 Gaussian 09, Revision D.01,
 Gaussian 09:  ES64L-G09RevD.01 24-Apr-2013

 --------------------
 #p B2PLYPD3/Def2QZVP
 --------------------

 --------
 acrolein
 --------
 Symbolic Z-matrix:
 Charge =  0 Multiplicity = 1

                         Standard orientation:
 ---------------------------------------------------------------------
 Center     Atomic      Atomic             Coordinates (Angstroms)
 Number     Number       Type             X           Y           Z
 ---------------------------------------------------------------------
      1          6           0       -0.674954    0.336049    0.026900
      2          8           0       -1.802996   -0.101695   -0.040409
      3          6           0        0.571732   -0.478505    0.031857
      4          6           0        1.762536    0.167973   -0.040362
      5          1           0        0.443937   -1.583489    0.089521
      6          1           0        1.865174    1.232604   -0.057161
      7          1           0        2.663587   -0.418702    0.000507
      8          1           0       -0.504621    1.430050    0.180031
 ---------------------------------------------------------------------

 SCF Done:  E(RB2PLYPD3) =  -191.613049823     A.U. after   13 cycles
 E2(B2PLYPD3) =    -0.2480215519D+00 E(B2PLYPD3) =    -0.19186107137507D+03

 The electronic state is 1-A.
 Alpha  occ. eigenvalues --  -19.72861 -10.71791 -10.65721 -10.65386  -1.19391
 Alpha  occ. eigenvalues --   -0.92354  -0.75263  -0.66564  -0.56338  -0.56067
 Alpha  occ. eigenvalues --   -0.50365  -0.47507  -0.46375  -0.34399  -0.33638
 Alpha virt. eigenvalues --   -0.01894   0.05792   0.06857   0.07968   0.09650
 Alpha virt. eigenvalues --    0.12619   0.13989   0.15339   0.17253   0.19455
 Alpha virt. eigenvalues --    0.20170   0.21608   0.24903   0.26593   0.28367

 Mulliken charges:
               1
     1  C    0.157946
     2  O   -0.346686
     3  C   -0.044951
     4  C   -0.132916
     5  H    0.105159
     6  H    0.093046
     7  H    0.100686
     8  H    0.067717
 Sum of Mulliken charges =   0.00000

 Dipole moment (field-independent basis, Debye):
    X=              3.5081    Y=              0.6913    Z=              0.2103  Tot=              3.5818
 Quadrupole moment (field-independent basis, Debye-Ang):
   XX=            -27.6488   YY=            -21.6076   ZZ=            -25.3565
   XY=             -0.6447   XZ=             -0.2565   YZ=             -0.1291

 Normal termination of Gaussian 09 at Wed Aug 26 20:46:22 2020.
