 Gaussian 09, Revision D.01,
 Gaussian 09:  ES64L-G09RevD.01 24-Apr-2013

 --------------------
 #p B2PLYPD3/Def2QZVP
 --------------------

 --------
 acrolein
 --------
 Symbolic Z-matrix:
 Charge =  0 Multiplicity = 1

                         Standard orientation:
 ---------------------------------------------------------------------
 Center     Atomic      Atomic             Coordinates (Angstroms)
 Number     Number       Type             X           Y           Z
 ---------------------------------------------------------------------
      1          6           0       -0.626063    0.296665   -0.093248
      2          8           0       -1.805964   -0.084374    0.064473
      3          6           0        0.570869   -0.481728   -0.001539
      4          6           0        1.714782    0.169211    0.007877
      5          1           0        0.555113   -1.551627   -0.067427
      6          1           0        1.789191    1.305979    0.254624
      7          1           0        2.695374   -0.342918   -0.003834
      8          1           0       -0.549501    1.358667   -0.177686
 ---------------------------------------------------------------------

 SCF Done:  E(RB2PLYPD3) =  -191.599806762     A.U. after   14 cycles
 E2(B2PLYPD3) =    -0.2492326022D+00 E(B2PLYPD3) =    -0.19184903936379D+03

 The electronic state is 1-A.
 Alpha  occ. eigenvalues --  -19.72260 -10.71128 -10.66758 -10.64565  -1.16906
 Alpha  occ. eigenvalues --   -0.94417  -0.75586  -0.67368  -0.56726  -0.56385
 Alpha  occ. eigenvalues --   -0.49505  -0.46488  -0.45470  -0.34933  -0.33647
 Alpha virt. eigenvalues --   -0.02478   0.05390   0.06836   0.07633   0.09547
 Alpha virt. eigenvalues --    0.12601   0.14472   0.14929   0.17410   0.19276
 Alpha virt. eigenvalues --    0.20314   0.21187   0.24302   0.26231   0.28855

 Mulliken charges:
               1
     1  C    0.147825
     2  O   -0.370757
     3  C   -0.025963
     4  C   -0.108267
     5  H    0.104940
     6  H    0.081947
     7  H    0.093004
     8  H    0.077270
 Sum of Mulliken charges =   0.00000

 Dipole moment (field-independent basis, Debye):
    X=              3.8990    Y=              0.6167    Z=             -0.1844  Tot=              3.9518
 Quadrupole moment (field-independent basis, Debye-Ang):
   XX=            -27.8702   YY=            -21.6402   ZZ=            -25.1471
   XY=             -0.9010   XZ=              0.6411   YZ=              0.3708

 Normal termination of Gaussian 09 at Wed Aug 26 12:12:03 2020.
