 Gaussian 09, Revision D.01,
 Gaussian 09:  ES64L-G09RevD.01 24-Apr-2013

 --------------------
 #p B2PLYPD3/Def2QZVP
 --------------------

 --------
 acrolein
 --------
 Symbolic Z-matrix:
 Charge =  0 Multiplicity = 1

                         Standard orientation:
 ---------------------------------------------------------------------
 Center     Atomic      Atomic             Coordinates (Angstroms)
 Number     Number       Type             X           Y           Z
 ---------------------------------------------------------------------
      1          6           0        0.665057    0.319849    0.046635
      2          8           0        1.809656   -0.106713   -0.072107
      3          6           0       -0.593395   -0.449644    0.033797
      4          6           0       -1.741281    0.157305   -0.036762
      5          1           0       -0.502784   -1.452469    0.187669
      6          1           0       -1.782714    1.270695   -0.206351
      7          1           0       -2.704673   -0.427872   -0.044379
      8          1           0        0.530640    1.298296    0.377900
 ---------------------------------------------------------------------

 SCF Done:  E(RB2PLYPD3) =  -191.602552589     A.U. after   13 cycles
 E2(B2PLYPD3) =    -0.2471838047D+00 E(B2PLYPD3) =    -0.19184973639381D+03

 The electronic state is 1-A.
 Alpha  occ. eigenvalues --  -19.72936 -10.71146 -10.65836 -10.63451  -1.18533
 Alpha  occ. eigenvalues --   -0.94035  -0.75560  -0.68077  -0.56890  -0.56112
 Alpha  occ. eigenvalues --   -0.51187  -0.46735  -0.45620  -0.35463  -0.33760
 Alpha virt. eigenvalues --   -0.01645   0.05639   0.07073   0.07820   0.09554
 Alpha virt. eigenvalues --    0.12733   0.13906   0.15004   0.18005   0.18351
 Alpha virt. eigenvalues --    0.20337   0.21421   0.24435   0.27518   0.28984

 Mulliken charges:
               1
     1  C    0.151933
     2  O   -0.355948
     3  C   -0.046177
     4  C   -0.119964
     5  H    0.108366
     6  H    0.080459
     7  H    0.097435
     8  H    0.083895
 Sum of Mulliken charges =   0.00000

 Dipole moment (field-independent basis, Debye):
    X=             -3.5328    Y=              0.6944    Z=              0.3252  Tot=              3.6151
 Quadrupole moment (field-independent basis, Debye-Ang):
   XX=            -27.8237   YY=            -21.8546   ZZ=            -24.9767
   XY=              0.9763   XZ=              0.6999   YZ=             -0.3620

 Normal termination of Gaussian 09 at Wed Aug 26 14:36:43 2020.
