 Gaussian 09, Revision D.01,
 Gaussian 09:  ES64L-G09RevD.01 24-Apr-2013

 --------------------
 #p B2PLYPD3/Def2QZVP
 --------------------

 --------
 acrolein
 --------
 Symbolic Z-matrix:
 Charge =  0 Multiplicity = 1

                         Standard orientation:
 ---------------------------------------------------------------------
 Center     Atomic      Atomic             Coordinates (Angstroms)
 Number     Number       Type             X           Y           Z
 ---------------------------------------------------------------------
      1          6           0       -0.666306    0.331559    0.016577
      2          8           0       -1.789787   -0.106123   -0.008196
      3          6           0        0.568683   -0.457325   -0.006484
      4          6           0        1.752341    0.156768   -0.005294
      5          1           0        0.432103   -1.543046    0.015976
      6          1           0        1.825342    1.211423   -0.034471
      7          1           0        2.641724   -0.418890    0.035185
      8          1           0       -0.509181    1.413486    0.020092
 ---------------------------------------------------------------------

 SCF Done:  E(RB2PLYPD3) =  -191.616324393     A.U. after   12 cycles
 E2(B2PLYPD3) =    -0.2465981587D+00 E(B2PLYPD3) =    -0.19186292255163D+03

 The electronic state is 1-A.
 Alpha  occ. eigenvalues --  -19.72679 -10.71162 -10.65105 -10.64503  -1.19679
 Alpha  occ. eigenvalues --   -0.93263  -0.75832  -0.67092  -0.56857  -0.56578
 Alpha  occ. eigenvalues --   -0.50590  -0.47459  -0.46857  -0.34761  -0.33676
 Alpha virt. eigenvalues --   -0.01737   0.05852   0.07172   0.08349   0.09774
 Alpha virt. eigenvalues --    0.12755   0.14005   0.15318   0.17372   0.19904
 Alpha virt. eigenvalues --    0.20035   0.21806   0.25429   0.26557   0.28634

 Mulliken charges:
               1
     1  C    0.155042
     2  O   -0.348637
     3  C   -0.032261
     4  C   -0.135125
     5  H    0.101612
     6  H    0.091774
     7  H    0.103988
     8  H    0.063607
 Sum of Mulliken charges =   0.00000

 Dipole moment (field-independent basis, Debye):
    X=              3.5195    Y=              0.6985    Z=              0.0596  Tot=              3.5886
 Quadrupole moment (field-independent basis, Debye-Ang):
   XX=            -27.4895   YY=            -21.7241   ZZ=            -25.1381
   XY=             -0.7739   XZ=              0.0061   YZ=             -0.0868

 Normal termination of Gaussian 09 at Wed Aug 26 15:54:52 2020.
