 Gaussian 09, Revision D.01,
 Gaussian 09:  ES64L-G09RevD.01 24-Apr-2013

 --------------------
 #p B2PLYPD3/Def2QZVP
 --------------------

 --------
 acrolein
 --------
 Symbolic Z-matrix:
 Charge =  0 Multiplicity = 1

                         Standard orientation:
 ---------------------------------------------------------------------
 Center     Atomic      Atomic             Coordinates (Angstroms)
 Number     Number       Type             X           Y           Z
 ---------------------------------------------------------------------
      1          6           0       -0.691605    0.400624   -0.089526
      2          8           0       -1.792260   -0.167877    0.075195
      3          6           0        0.557886   -0.446440   -0.037037
      4          6           0        1.736663    0.131224    0.013142
      5          1           0        0.533494   -1.422575   -0.084392
      6          1           0        1.804245    1.181945    0.328315
      7          1           0        2.812510   -0.472099    0.023265
      8          1           0       -0.429834    1.543302   -0.188227
 ---------------------------------------------------------------------

 SCF Done:  E(RB2PLYPD3) =  -191.577183087     A.U. after   14 cycles
 E2(B2PLYPD3) =    -0.2507384847D+00 E(B2PLYPD3) =    -0.19182792157134D+03

 The electronic state is 1-A.
 Alpha  occ. eigenvalues --  -19.73794 -10.73872 -10.66228 -10.63322  -1.17907
 Alpha  occ. eigenvalues --   -0.93151  -0.73740  -0.67922  -0.55569  -0.55276
 Alpha  occ. eigenvalues --   -0.50425  -0.46181  -0.45361  -0.34816  -0.34042
 Alpha virt. eigenvalues --   -0.02048   0.05152   0.06772   0.07144   0.09695
 Alpha virt. eigenvalues --    0.11971   0.13204   0.15259   0.17735   0.19282
 Alpha virt. eigenvalues --    0.20296   0.20632   0.24009   0.26304   0.28288

 Mulliken charges:
               1
     1  C    0.166427
     2  O   -0.351647
     3  C   -0.053753
     4  C   -0.117686
     5  H    0.115910
     6  H    0.074480
     7  H    0.078747
     8  H    0.087521
 Sum of Mulliken charges =   0.00000

 Dipole moment (field-independent basis, Debye):
    X=              3.3000    Y=              0.9295    Z=             -0.1287  Tot=              3.4308
 Quadrupole moment (field-independent basis, Debye-Ang):
   XX=            -27.9539   YY=            -21.7979   ZZ=            -25.3129
   XY=             -1.2966   XZ=              0.8263   YZ=              0.3373

 Normal termination of Gaussian 09 at Wed Aug 26 14:12:00 2020.
