 Gaussian 09, Revision D.01,
 Gaussian 09:  ES64L-G09RevD.01 24-Apr-2013

 --------------------
 #p B2PLYPD3/Def2QZVP
 --------------------

 --------
 acrolein
 --------
 Symbolic Z-matrix:
 Charge =  0 Multiplicity = 1

                         Standard orientation:
 ---------------------------------------------------------------------
 Center     Atomic      Atomic             Coordinates (Angstroms)
 Number     Number       Type             X           Y           Z
 ---------------------------------------------------------------------
      1          6           0        0.666816    0.323589    0.028630
      2          8           0        1.813394   -0.092884   -0.025801
      3          6           0       -0.574323   -0.487946    0.018965
      4          6           0       -1.731913    0.143685   -0.032166
      5          1           0       -0.559470   -1.500509    0.091470
      6          1           0       -2.018039    1.341018    0.065822
      7          1           0       -2.554814   -0.416799   -0.064619
      8          1           0        0.461690    1.443389    0.021163
 ---------------------------------------------------------------------

 SCF Done:  E(RB2PLYPD3) =  -191.589693958     A.U. after   12 cycles
 E2(B2PLYPD3) =    -0.2480450375D+00 E(B2PLYPD3) =    -0.19183773899599D+03

 The electronic state is 1-A.
 Alpha  occ. eigenvalues --  -19.72879 -10.72078 -10.65810 -10.64087  -1.18785
 Alpha  occ. eigenvalues --   -0.93756  -0.75570  -0.66924  -0.57225  -0.55490
 Alpha  occ. eigenvalues --   -0.50583  -0.46731  -0.46024  -0.35078  -0.33649
 Alpha virt. eigenvalues --   -0.01658   0.05341   0.07096   0.07954   0.09273
 Alpha virt. eigenvalues --    0.12375   0.14067   0.15221   0.17823   0.19248
 Alpha virt. eigenvalues --    0.20039   0.21613   0.24986   0.26684   0.27845

 Mulliken charges:
               1
     1  C    0.161550
     2  O   -0.349344
     3  C   -0.051206
     4  C   -0.113302
     5  H    0.106017
     6  H    0.082928
     7  H    0.095140
     8  H    0.068216
 Sum of Mulliken charges =   0.00000

 Dipole moment (field-independent basis, Debye):
    X=             -3.6870    Y=              0.5686    Z=              0.1846  Tot=              3.7351
 Quadrupole moment (field-independent basis, Debye-Ang):
   XX=            -27.5667   YY=            -21.6376   ZZ=            -25.2070
   XY=              0.5983   XZ=              0.0863   YZ=             -0.0026

 Normal termination of Gaussian 09 at Wed Aug 26 11:34:01 2020.
