 Gaussian 09, Revision D.01,
 Gaussian 09:  ES64L-G09RevD.01 24-Apr-2013

 --------------------
 #p B2PLYPD3/Def2QZVP
 --------------------

 --------
 acrolein
 --------
 Symbolic Z-matrix:
 Charge =  0 Multiplicity = 1

                         Standard orientation:
 ---------------------------------------------------------------------
 Center     Atomic      Atomic             Coordinates (Angstroms)
 Number     Number       Type             X           Y           Z
 ---------------------------------------------------------------------
      1          6           0       -0.669296    0.344902    0.010638
      2          8           0       -1.790159   -0.110956   -0.015169
      3          6           0        0.558402   -0.461295    0.024824
      4          6           0        1.752701    0.153389   -0.006675
      5          1           0        0.444114   -1.576962   -0.016351
      6          1           0        1.846263    1.249498   -0.042763
      7          1           0        2.693523   -0.426605   -0.030342
      8          1           0       -0.513474    1.419751    0.038088
 ---------------------------------------------------------------------

 SCF Done:  E(RB2PLYPD3) =  -191.614506244     A.U. after   12 cycles
 E2(B2PLYPD3) =    -0.2476120603D+00 E(B2PLYPD3) =    -0.19186211830395D+03

 The electronic state is 1-A.
 Alpha  occ. eigenvalues --  -19.72665 -10.71311 -10.66131 -10.65004  -1.19440
 Alpha  occ. eigenvalues --   -0.92660  -0.75208  -0.66768  -0.56476  -0.55935
 Alpha  occ. eigenvalues --   -0.50265  -0.46758  -0.46549  -0.34540  -0.33811
 Alpha virt. eigenvalues --   -0.01810   0.05658   0.06947   0.08122   0.09665
 Alpha virt. eigenvalues --    0.12499   0.14024   0.15341   0.17348   0.19642
 Alpha virt. eigenvalues --    0.20015   0.21408   0.25325   0.26481   0.28713

 Mulliken charges:
               1
     1  C    0.156324
     2  O   -0.349603
     3  C   -0.039846
     4  C   -0.130865
     5  H    0.103259
     6  H    0.086777
     7  H    0.101235
     8  H    0.072719
 Sum of Mulliken charges =   0.00000

 Dipole moment (field-independent basis, Debye):
    X=              3.5166    Y=              0.7548    Z=             -0.0196  Tot=              3.5967
 Quadrupole moment (field-independent basis, Debye-Ang):
   XX=            -27.5571   YY=            -21.6265   ZZ=            -25.3226
   XY=             -0.8360   XZ=             -0.2364   YZ=              0.0166

 Normal termination of Gaussian 09 at Wed Aug 26 15:15:53 2020.
