 Gaussian 09, Revision D.01,
 Gaussian 09:  ES64L-G09RevD.01 24-Apr-2013

 --------------------
 #p B2PLYPD3/Def2QZVP
 --------------------

 --------
 acrolein
 --------
 Symbolic Z-matrix:
 Charge =  0 Multiplicity = 1

                         Standard orientation:
 ---------------------------------------------------------------------
 Center     Atomic      Atomic             Coordinates (Angstroms)
 Number     Number       Type             X           Y           Z
 ---------------------------------------------------------------------
      1          6           0        0.651115    0.354808    0.078879
      2          8           0        1.783899   -0.140901   -0.048544
      3          6           0       -0.534425   -0.395149    0.002240
      4          6           0       -1.763772    0.122041   -0.050641
      5          1           0       -0.483705   -1.526416    0.093865
      6          1           0       -1.793783    1.103625   -0.106096
      7          1           0       -2.645309   -0.416569    0.127475
      8          1           0        0.534097    1.476365    0.090236
 ---------------------------------------------------------------------

 SCF Done:  E(RB2PLYPD3) =  -191.595370214     A.U. after   13 cycles
 E2(B2PLYPD3) =    -0.2490693598D+00 E(B2PLYPD3) =    -0.19184443957403D+03

 The electronic state is 1-A.
 Alpha  occ. eigenvalues --  -19.72809 -10.71831 -10.64586 -10.64407  -1.17730
 Alpha  occ. eigenvalues --   -0.94264  -0.77534  -0.66755  -0.57597  -0.57032
 Alpha  occ. eigenvalues --   -0.50626  -0.46406  -0.45731  -0.34625  -0.34021
 Alpha virt. eigenvalues --   -0.03135   0.05807   0.06765   0.08364   0.09868
 Alpha virt. eigenvalues --    0.12625   0.14403   0.15281   0.16988   0.19490
 Alpha virt. eigenvalues --    0.20250   0.22256   0.25354   0.26207   0.29460

 Mulliken charges:
               1
     1  C    0.140906
     2  O   -0.359868
     3  C   -0.006741
     4  C   -0.122448
     5  H    0.091161
     6  H    0.080921
     7  H    0.107366
     8  H    0.068703
 Sum of Mulliken charges =   0.00000

 Dipole moment (field-independent basis, Debye):
    X=             -3.7421    Y=              0.8518    Z=              0.3232  Tot=              3.8514
 Quadrupole moment (field-independent basis, Debye-Ang):
   XX=            -27.2703   YY=            -21.9373   ZZ=            -25.0615
   XY=              1.2433   XZ=             -0.0149   YZ=             -0.2725

 Normal termination of Gaussian 09 at Wed Aug 26 12:29:54 2020.
