 Gaussian 09, Revision D.01,
 Gaussian 09:  ES64L-G09RevD.01 24-Apr-2013

 --------------------
 #p B2PLYPD3/Def2QZVP
 --------------------

 --------
 acrolein
 --------
 Symbolic Z-matrix:
 Charge =  0 Multiplicity = 1

                         Standard orientation:
 ---------------------------------------------------------------------
 Center     Atomic      Atomic             Coordinates (Angstroms)
 Number     Number       Type             X           Y           Z
 ---------------------------------------------------------------------
      1          6           0       -0.631507   -0.305778    0.056522
      2          8           0       -1.812237    0.066603   -0.062562
      3          6           0        0.567238    0.470284    0.026402
      4          6           0        1.757321   -0.160310   -0.006651
      5          1           0        0.444249    1.587442    0.134671
      6          1           0        1.821233   -1.314192   -0.108562
      7          1           0        2.608440    0.362986   -0.180015
      8          1           0       -0.534335   -1.194234    0.196757
 ---------------------------------------------------------------------

 SCF Done:  E(RB2PLYPD3) =  -191.567653479     A.U. after   13 cycles
 E2(B2PLYPD3) =    -0.2484542299D+00 E(B2PLYPD3) =    -0.19181610770935D+03

 The electronic state is 1-A.
 Alpha  occ. eigenvalues --  -19.72125 -10.69069 -10.66384 -10.65304  -1.17242
 Alpha  occ. eigenvalues --   -0.93896  -0.78010  -0.69302  -0.56960  -0.56851
 Alpha  occ. eigenvalues --   -0.50068  -0.47096  -0.45273  -0.34665  -0.33818
 Alpha virt. eigenvalues --   -0.02797   0.05484   0.07051   0.08005   0.09457
 Alpha virt. eigenvalues --    0.12763   0.14024   0.15088   0.17478   0.19304
 Alpha virt. eigenvalues --    0.19916   0.21913   0.24458   0.27459   0.28743

 Mulliken charges:
               1
     1  C    0.147618
     2  O   -0.377739
     3  C   -0.025352
     4  C   -0.121630
     5  H    0.100314
     6  H    0.078819
     7  H    0.107119
     8  H    0.090851
 Sum of Mulliken charges =   0.00000

 Dipole moment (field-independent basis, Debye):
    X=              3.9013    Y=             -0.6819    Z=              0.1794  Tot=              3.9645
 Quadrupole moment (field-independent basis, Debye-Ang):
   XX=            -27.9543   YY=            -21.5069   ZZ=            -25.0326
   XY=              0.6341   XZ=             -0.9058   YZ=              0.1806

 Normal termination of Gaussian 09 at Wed Aug 26 11:08:57 2020.
