 Gaussian 09, Revision D.01,
 Gaussian 09:  ES64L-G09RevD.01 24-Apr-2013

 --------------------
 #p B2PLYPD3/Def2QZVP
 --------------------

 --------
 acrolein
 --------
 Symbolic Z-matrix:
 Charge =  0 Multiplicity = 1

                         Standard orientation:
 ---------------------------------------------------------------------
 Center     Atomic      Atomic             Coordinates (Angstroms)
 Number     Number       Type             X           Y           Z
 ---------------------------------------------------------------------
      1          6           0       -0.686577    0.357378    0.022454
      2          8           0       -1.780734   -0.121171   -0.024385
      3          6           0        0.563726   -0.464694    0.011531
      4          6           0        1.755878    0.143491   -0.006895
      5          1           0        0.450676   -1.523673    0.062282
      6          1           0        1.861253    1.241820   -0.039853
      7          1           0        2.673101   -0.393379   -0.052859
      8          1           0       -0.537322    1.427548    0.062971
 ---------------------------------------------------------------------

 SCF Done:  E(RB2PLYPD3) =  -191.616147018     A.U. after   12 cycles
 E2(B2PLYPD3) =    -0.2461850301D+00 E(B2PLYPD3) =    -0.19186233204797D+03

 The electronic state is 1-A.
 Alpha  occ. eigenvalues --  -19.72779 -10.71305 -10.65268 -10.64333  -1.20473
 Alpha  occ. eigenvalues --   -0.92371  -0.75013  -0.67450  -0.56646  -0.56366
 Alpha  occ. eigenvalues --   -0.51019  -0.47219  -0.46805  -0.34497  -0.33737
 Alpha virt. eigenvalues --   -0.01278   0.05798   0.07409   0.08043   0.09673
 Alpha virt. eigenvalues --    0.12567   0.14189   0.15400   0.17687   0.19647
 Alpha virt. eigenvalues --    0.19955   0.21595   0.25405   0.26545   0.28661

 Mulliken charges:
               1
     1  C    0.157129
     2  O   -0.339162
     3  C   -0.054208
     4  C   -0.130892
     5  H    0.109032
     6  H    0.079628
     7  H    0.099269
     8  H    0.079204
 Sum of Mulliken charges =   0.00000

 Dipole moment (field-independent basis, Debye):
    X=              3.3171    Y=              0.7939    Z=              0.0788  Tot=              3.4117
 Quadrupole moment (field-independent basis, Debye-Ang):
   XX=            -27.3595   YY=            -21.6535   ZZ=            -25.2005
   XY=             -0.8939   XZ=             -0.2847   YZ=             -0.0846

 Normal termination of Gaussian 09 at Wed Aug 26 08:53:54 2020.
