 Gaussian 09, Revision D.01,
 Gaussian 09:  ES64L-G09RevD.01 24-Apr-2013

 --------------------
 #p B2PLYPD3/Def2QZVP
 --------------------

 --------
 acrolein
 --------
 Symbolic Z-matrix:
 Charge =  0 Multiplicity = 1

                         Standard orientation:
 ---------------------------------------------------------------------
 Center     Atomic      Atomic             Coordinates (Angstroms)
 Number     Number       Type             X           Y           Z
 ---------------------------------------------------------------------
      1          6           0        0.667763    0.354798    0.010289
      2          8           0        1.783380   -0.128709   -0.011110
      3          6           0       -0.545287   -0.440908    0.031299
      4          6           0       -1.754824    0.126583   -0.016964
      5          1           0       -0.445099   -1.494920   -0.035677
      6          1           0       -1.835436    1.239163    0.018320
      7          1           0       -2.697483   -0.433240   -0.024911
      8          1           0        0.505065    1.475831   -0.016593
 ---------------------------------------------------------------------

 SCF Done:  E(RB2PLYPD3) =  -191.614135091     A.U. after   13 cycles
 E2(B2PLYPD3) =    -0.2478725954D+00 E(B2PLYPD3) =    -0.19186200768629D+03

 The electronic state is 1-A.
 Alpha  occ. eigenvalues --  -19.72829 -10.71813 -10.66121 -10.64153  -1.19255
 Alpha  occ. eigenvalues --   -0.93101  -0.75409  -0.66822  -0.56516  -0.56134
 Alpha  occ. eigenvalues --   -0.50440  -0.46829  -0.46485  -0.34645  -0.33931
 Alpha virt. eigenvalues --   -0.02022   0.05637   0.07121   0.08193   0.09744
 Alpha virt. eigenvalues --    0.12361   0.13884   0.15299   0.17666   0.19646
 Alpha virt. eigenvalues --    0.19906   0.21385   0.25318   0.26431   0.28978

 Mulliken charges:
               1
     1  C    0.155998
     2  O   -0.350487
     3  C   -0.037434
     4  C   -0.125146
     5  H    0.108667
     6  H    0.078189
     7  H    0.103197
     8  H    0.067015
 Sum of Mulliken charges =   0.00000

 Dipole moment (field-independent basis, Debye):
    X=             -3.5454    Y=              0.7404    Z=             -0.0114  Tot=              3.6219
 Quadrupole moment (field-independent basis, Debye-Ang):
   XX=            -27.3235   YY=            -21.8428   ZZ=            -25.2625
   XY=              1.0322   XZ=              0.1132   YZ=              0.1001

 Normal termination of Gaussian 09 at Wed Aug 26 09:12:09 2020.
