 Gaussian 09, Revision D.01,
 Gaussian 09:  ES64L-G09RevD.01 24-Apr-2013

 --------------------
 #p B2PLYPD3/Def2QZVP
 --------------------

 --------
 acrolein
 --------
 Symbolic Z-matrix:
 Charge =  0 Multiplicity = 1

                         Standard orientation:
 ---------------------------------------------------------------------
 Center     Atomic      Atomic             Coordinates (Angstroms)
 Number     Number       Type             X           Y           Z
 ---------------------------------------------------------------------
      1          6           0        0.648748    0.325169    0.036441
      2          8           0        1.820910   -0.083537   -0.057602
      3          6           0       -0.580205   -0.466547    0.022765
      4          6           0       -1.735652    0.141501   -0.069605
      5          1           0       -0.353175   -1.648112    0.211577
      6          1           0       -1.853793    1.230909   -0.095561
      7          1           0       -2.697239   -0.372768    0.062250
      8          1           0        0.339576    1.457530    0.344943
 ---------------------------------------------------------------------

 SCF Done:  E(RB2PLYPD3) =  -191.588203890     A.U. after   13 cycles
 E2(B2PLYPD3) =    -0.2511951699D+00 E(B2PLYPD3) =    -0.19183939905967D+03

 The electronic state is 1-A.
 Alpha  occ. eigenvalues --  -19.73641 -10.73235 -10.66046 -10.65895  -1.17836
 Alpha  occ. eigenvalues --   -0.93906  -0.75721  -0.64560  -0.56776  -0.54990
 Alpha  occ. eigenvalues --   -0.50404  -0.46166  -0.44720  -0.35535  -0.33706
 Alpha virt. eigenvalues --   -0.02397   0.05304   0.05905   0.07931   0.09620
 Alpha virt. eigenvalues --    0.12623   0.13753   0.14936   0.16300   0.18902
 Alpha virt. eigenvalues --    0.19995   0.21898   0.24529   0.26687   0.28547

 Mulliken charges:
               1
     1  C    0.170211
     2  O   -0.355174
     3  C   -0.023506
     4  C   -0.114016
     5  H    0.096136
     6  H    0.083399
     7  H    0.100728
     8  H    0.042222
 Sum of Mulliken charges =   0.00000

 Dipole moment (field-independent basis, Debye):
    X=             -3.7190    Y=              0.5526    Z=              0.4146  Tot=              3.7827
 Quadrupole moment (field-independent basis, Debye-Ang):
   XX=            -27.6382   YY=            -22.1796   ZZ=            -25.3721
   XY=              0.0405   XZ=              0.1451   YZ=             -0.3325

 Normal termination of Gaussian 09 at Wed Aug 26 12:41:52 2020.
