 Gaussian 09, Revision D.01,
 Gaussian 09:  ES64L-G09RevD.01 24-Apr-2013

 --------------------
 #p B2PLYPD3/Def2QZVP
 --------------------

 --------
 acrolein
 --------
 Symbolic Z-matrix:
 Charge =  0 Multiplicity = 1

                         Standard orientation:
 ---------------------------------------------------------------------
 Center     Atomic      Atomic             Coordinates (Angstroms)
 Number     Number       Type             X           Y           Z
 ---------------------------------------------------------------------
      1          6           0        0.682061    0.356270    0.000424
      2          8           0        1.783228   -0.133063    0.002580
      3          6           0       -0.548606   -0.447637   -0.020700
      4          6           0       -1.755149    0.135982    0.002076
      5          1           0       -0.488903   -1.456758    0.044061
      6          1           0       -1.834597    1.218673   -0.005155
      7          1           0       -2.705044   -0.441629    0.030393
      8          1           0        0.492884    1.476530    0.019263
 ---------------------------------------------------------------------

 SCF Done:  E(RB2PLYPD3) =  -191.611814476     A.U. after   13 cycles
 E2(B2PLYPD3) =    -0.2471400328D+00 E(B2PLYPD3) =    -0.19185895450874D+03

 The electronic state is 1-A.
 Alpha  occ. eigenvalues --  -19.72973 -10.71943 -10.65767 -10.63637  -1.20000
 Alpha  occ. eigenvalues --   -0.92914  -0.75011  -0.67560  -0.56488  -0.56264
 Alpha  occ. eigenvalues --   -0.50582  -0.47318  -0.46971  -0.34527  -0.33899
 Alpha virt. eigenvalues --   -0.01719   0.05700   0.07299   0.08135   0.09735
 Alpha virt. eigenvalues --    0.12479   0.13806   0.15373   0.18002   0.19742
 Alpha virt. eigenvalues --    0.19917   0.21221   0.25434   0.26368   0.28802

 Mulliken charges:
               1
     1  C    0.153776
     2  O   -0.341929
     3  C   -0.041270
     4  C   -0.129887
     5  H    0.111200
     6  H    0.081311
     7  H    0.098102
     8  H    0.068698
 Sum of Mulliken charges =   0.00000

 Dipole moment (field-independent basis, Debye):
    X=             -3.4272    Y=              0.7519    Z=              0.0664  Tot=              3.5094
 Quadrupole moment (field-independent basis, Debye-Ang):
   XX=            -27.3042   YY=            -21.8382   ZZ=            -25.2166
   XY=              1.0514   XZ=             -0.1158   YZ=             -0.0898

 Normal termination of Gaussian 09 at Wed Aug 26 11:06:51 2020.
