 Gaussian 09, Revision D.01,
 Gaussian 09:  ES64L-G09RevD.01 24-Apr-2013

 --------------------
 #p B2PLYPD3/Def2QZVP
 --------------------

 --------
 acrolein
 --------
 Symbolic Z-matrix:
 Charge =  0 Multiplicity = 1

                         Standard orientation:
 ---------------------------------------------------------------------
 Center     Atomic      Atomic             Coordinates (Angstroms)
 Number     Number       Type             X           Y           Z
 ---------------------------------------------------------------------
      1          6           0        0.676607    0.345513   -0.016399
      2          8           0        1.786942   -0.114295    0.018915
      3          6           0       -0.564469   -0.458227   -0.021794
      4          6           0       -1.764926    0.146530    0.016834
      5          1           0       -0.445173   -1.564662   -0.048308
      6          1           0       -1.856728    1.238765   -0.047031
      7          1           0       -2.613635   -0.405585    0.078384
      8          1           0        0.536723    1.442946   -0.006210
 ---------------------------------------------------------------------

 SCF Done:  E(RB2PLYPD3) =  -191.612797296     A.U. after   13 cycles
 E2(B2PLYPD3) =    -0.2468612263D+00 E(B2PLYPD3) =    -0.19185965852273D+03

 The electronic state is 1-A.
 Alpha  occ. eigenvalues --  -19.72734 -10.71457 -10.65060 -10.64893  -1.19977
 Alpha  occ. eigenvalues --   -0.92647  -0.75730  -0.66559  -0.56905  -0.56364
 Alpha  occ. eigenvalues --   -0.50743  -0.47283  -0.46767  -0.34470  -0.33716
 Alpha virt. eigenvalues --   -0.01692   0.05856   0.07115   0.08193   0.09711
 Alpha virt. eigenvalues --    0.12600   0.14153   0.15386   0.17241   0.19735
 Alpha virt. eigenvalues --    0.20028   0.21993   0.25262   0.26421   0.28640

 Mulliken charges:
               1
     1  C    0.157878
     2  O   -0.342784
     3  C   -0.044120
     4  C   -0.133366
     5  H    0.100917
     6  H    0.086650
     7  H    0.106716
     8  H    0.068109
 Sum of Mulliken charges =   0.00000

 Dipole moment (field-independent basis, Debye):
    X=             -3.4430    Y=              0.7289    Z=             -0.0760  Tot=              3.5201
 Quadrupole moment (field-independent basis, Debye-Ang):
   XX=            -27.4290   YY=            -21.6579   ZZ=            -25.2270
   XY=              0.8797   XZ=             -0.1865   YZ=             -0.0444

 Normal termination of Gaussian 09 at Wed Aug 26 20:16:11 2020.
