 Gaussian 09, Revision D.01,
 Gaussian 09:  ES64L-G09RevD.01 24-Apr-2013

 --------------------
 #p B2PLYPD3/Def2QZVP
 --------------------

 --------
 acrolein
 --------
 Symbolic Z-matrix:
 Charge =  0 Multiplicity = 1

                         Standard orientation:
 ---------------------------------------------------------------------
 Center     Atomic      Atomic             Coordinates (Angstroms)
 Number     Number       Type             X           Y           Z
 ---------------------------------------------------------------------
      1          6           0       -0.671316    0.359590   -0.040002
      2          8           0       -1.776476   -0.138465    0.033936
      3          6           0        0.540457   -0.441184   -0.021457
      4          6           0        1.747017    0.129473    0.002346
      5          1           0        0.478837   -1.427106   -0.032752
      6          1           0        1.797694    1.218460    0.102701
      7          1           0        2.699181   -0.467956    0.064340
      8          1           0       -0.460848    1.497043   -0.051095
 ---------------------------------------------------------------------

 SCF Done:  E(RB2PLYPD3) =  -191.605033883     A.U. after   13 cycles
 E2(B2PLYPD3) =    -0.2478333009D+00 E(B2PLYPD3) =    -0.19185286718441D+03

 The electronic state is 1-A.
 Alpha  occ. eigenvalues --  -19.73026 -10.72130 -10.65967 -10.63189  -1.19493
 Alpha  occ. eigenvalues --   -0.93413  -0.75086  -0.67776  -0.56447  -0.56030
 Alpha  occ. eigenvalues --   -0.50372  -0.47281  -0.46914  -0.34612  -0.33976
 Alpha virt. eigenvalues --   -0.01932   0.05616   0.07225   0.08098   0.09806
 Alpha virt. eigenvalues --    0.12469   0.13556   0.15338   0.18067   0.19608
 Alpha virt. eigenvalues --    0.19907   0.21199   0.25465   0.26280   0.28917

 Mulliken charges:
               1
     1  C    0.156316
     2  O   -0.347675
     3  C   -0.035924
     4  C   -0.125644
     5  H    0.112426
     6  H    0.079107
     7  H    0.097617
     8  H    0.063778
 Sum of Mulliken charges =   0.00000

 Dipole moment (field-independent basis, Debye):
    X=              3.4677    Y=              0.7191    Z=             -0.0249  Tot=              3.5416
 Quadrupole moment (field-independent basis, Debye-Ang):
   XX=            -27.4123   YY=            -21.8652   ZZ=            -25.1902
   XY=             -1.1441   XZ=              0.4541   YZ=              0.1057

 Normal termination of Gaussian 09 at Wed Aug 26 09:56:47 2020.
