 Gaussian 09, Revision D.01,
 Gaussian 09:  ES64L-G09RevD.01 24-Apr-2013

 --------------------
 #p B2PLYPD3/Def2QZVP
 --------------------

 --------
 acrolein
 --------
 Symbolic Z-matrix:
 Charge =  0 Multiplicity = 1

                         Standard orientation:
 ---------------------------------------------------------------------
 Center     Atomic      Atomic             Coordinates (Angstroms)
 Number     Number       Type             X           Y           Z
 ---------------------------------------------------------------------
      1          6           0       -0.667870    0.341097   -0.000522
      2          8           0       -1.789799   -0.108956    0.012141
      3          6           0        0.572264   -0.467764   -0.015549
      4          6           0        1.747240    0.156319    0.003546
      5          1           0        0.442620   -1.538807   -0.036395
      6          1           0        1.825987    1.227935    0.005742
      7          1           0        2.672216   -0.390790    0.061851
      8          1           0       -0.532237    1.395398   -0.053175
 ---------------------------------------------------------------------

 SCF Done:  E(RB2PLYPD3) =  -191.616155298     A.U. after   12 cycles
 E2(B2PLYPD3) =    -0.2465181188D+00 E(B2PLYPD3) =    -0.19186267341711D+03

 The electronic state is 1-A.
 Alpha  occ. eigenvalues --  -19.72607 -10.71037 -10.65265 -10.64449  -1.19481
 Alpha  occ. eigenvalues --   -0.93043  -0.75417  -0.67661  -0.56813  -0.56413
 Alpha  occ. eigenvalues --   -0.50676  -0.47262  -0.46610  -0.34748  -0.33698
 Alpha virt. eigenvalues --   -0.01528   0.05788   0.07294   0.08095   0.09703
 Alpha virt. eigenvalues --    0.12686   0.14159   0.15332   0.17516   0.19829
 Alpha virt. eigenvalues --    0.19998   0.21607   0.25408   0.26581   0.28759

 Mulliken charges:
               1
     1  C    0.154008
     2  O   -0.351002
     3  C   -0.041847
     4  C   -0.131360
     5  H    0.107501
     6  H    0.086933
     7  H    0.099612
     8  H    0.076153
 Sum of Mulliken charges =   0.00000

 Dipole moment (field-independent basis, Debye):
    X=              3.4867    Y=              0.7610    Z=             -0.0205  Tot=              3.5688
 Quadrupole moment (field-independent basis, Debye-Ang):
   XX=            -27.5468   YY=            -21.6228   ZZ=            -25.1478
   XY=             -0.8117   XZ=              0.2156   YZ=              0.0005

 Normal termination of Gaussian 09 at Wed Aug 26 15:47:41 2020.
