 Gaussian 09, Revision D.01,
 Gaussian 09:  ES64L-G09RevD.01 24-Apr-2013

 --------------------
 #p B2PLYPD3/Def2QZVP
 --------------------

 --------
 acrolein
 --------
 Symbolic Z-matrix:
 Charge =  0 Multiplicity = 1

                         Standard orientation:
 ---------------------------------------------------------------------
 Center     Atomic      Atomic             Coordinates (Angstroms)
 Number     Number       Type             X           Y           Z
 ---------------------------------------------------------------------
      1          6           0        0.675645    0.353467    0.024292
      2          8           0        1.792545   -0.122124   -0.022870
      3          6           0       -0.574157   -0.461406    0.004977
      4          6           0       -1.746385    0.148024   -0.019604
      5          1           0       -0.484399   -1.511467    0.076067
      6          1           0       -1.845193    1.259373   -0.023334
      7          1           0       -2.650093   -0.433285    0.000550
      8          1           0        0.508703    1.421867    0.071684
 ---------------------------------------------------------------------

 SCF Done:  E(RB2PLYPD3) =  -191.615087584     A.U. after   12 cycles
 E2(B2PLYPD3) =    -0.2469411686D+00 E(B2PLYPD3) =    -0.19186202875251D+03

 The electronic state is 1-A.
 Alpha  occ. eigenvalues --  -19.72871 -10.71592 -10.65336 -10.64039  -1.19257
 Alpha  occ. eigenvalues --   -0.93058  -0.75071  -0.67447  -0.56540  -0.56240
 Alpha  occ. eigenvalues --   -0.50735  -0.47017  -0.46433  -0.34836  -0.33838
 Alpha virt. eigenvalues --   -0.01410   0.05725   0.07212   0.07962   0.09684
 Alpha virt. eigenvalues --    0.12580   0.13972   0.15317   0.17753   0.19492
 Alpha virt. eigenvalues --    0.19994   0.21583   0.25430   0.26652   0.28619

 Mulliken charges:
               1
     1  C    0.155550
     2  O   -0.349437
     3  C   -0.046846
     4  C   -0.129346
     5  H    0.107558
     6  H    0.082904
     7  H    0.098988
     8  H    0.080629
 Sum of Mulliken charges =   0.00000

 Dipole moment (field-independent basis, Debye):
    X=             -3.4412    Y=              0.7863    Z=              0.1574  Tot=              3.5334
 Quadrupole moment (field-independent basis, Debye-Ang):
   XX=            -27.6953   YY=            -21.5718   ZZ=            -25.1893
   XY=              0.9696   XZ=              0.0969   YZ=             -0.1066

 Normal termination of Gaussian 09 at Wed Aug 26 19:40:25 2020.
