 Gaussian 09, Revision D.01,
 Gaussian 09:  ES64L-G09RevD.01 24-Apr-2013

 --------------------
 #p B2PLYPD3/Def2QZVP
 --------------------

 --------
 acrolein
 --------
 Symbolic Z-matrix:
 Charge =  0 Multiplicity = 1

                         Standard orientation:
 ---------------------------------------------------------------------
 Center     Atomic      Atomic             Coordinates (Angstroms)
 Number     Number       Type             X           Y           Z
 ---------------------------------------------------------------------
      1          6           0       -0.676073    0.345723    0.020008
      2          8           0       -1.783904   -0.113450   -0.024065
      3          6           0        0.559170   -0.471421    0.014264
      4          6           0        1.751306    0.151216   -0.007999
      5          1           0        0.438386   -1.523570    0.053171
      6          1           0        1.873947    1.243442   -0.049209
      7          1           0        2.684391   -0.415352   -0.043756
      8          1           0       -0.531911    1.449967    0.074679
 ---------------------------------------------------------------------

 SCF Done:  E(RB2PLYPD3) =  -191.615861105     A.U. after   12 cycles
 E2(B2PLYPD3) =    -0.2468823417D+00 E(B2PLYPD3) =    -0.19186274344646D+03

 The electronic state is 1-A.
 Alpha  occ. eigenvalues --  -19.72692 -10.71472 -10.65863 -10.64504  -1.20107
 Alpha  occ. eigenvalues --   -0.92506  -0.74920  -0.67093  -0.56500  -0.56175
 Alpha  occ. eigenvalues --   -0.50624  -0.47182  -0.46915  -0.34500  -0.33629
 Alpha virt. eigenvalues --   -0.01545   0.05720   0.07256   0.08091   0.09669
 Alpha virt. eigenvalues --    0.12486   0.14042   0.15361   0.17624   0.19648
 Alpha virt. eigenvalues --    0.19998   0.21432   0.25286   0.26431   0.28614

 Mulliken charges:
               1
     1  C    0.156177
     2  O   -0.342752
     3  C   -0.048975
     4  C   -0.129420
     5  H    0.111523
     6  H    0.087454
     7  H    0.096763
     8  H    0.069231
 Sum of Mulliken charges =   0.00000

 Dipole moment (field-independent basis, Debye):
    X=              3.4217    Y=              0.7230    Z=              0.0692  Tot=              3.4979
 Quadrupole moment (field-independent basis, Debye-Ang):
   XX=            -27.4147   YY=            -21.6670   ZZ=            -25.2657
   XY=             -0.7676   XZ=             -0.2832   YZ=             -0.0863

 Normal termination of Gaussian 09 at Wed Aug 26 19:22:16 2020.
