 Gaussian 09, Revision D.01,
 Gaussian 09:  ES64L-G09RevD.01 24-Apr-2013

 --------------------
 #p B2PLYPD3/Def2QZVP
 --------------------

 --------
 acrolein
 --------
 Symbolic Z-matrix:
 Charge =  0 Multiplicity = 1

                         Standard orientation:
 ---------------------------------------------------------------------
 Center     Atomic      Atomic             Coordinates (Angstroms)
 Number     Number       Type             X           Y           Z
 ---------------------------------------------------------------------
      1          6           0        0.667810    0.346852    0.005369
      2          8           0        1.781840   -0.125491   -0.011385
      3          6           0       -0.560919   -0.435026    0.021995
      4          6           0       -1.751551    0.143774   -0.004466
      5          1           0       -0.444634   -1.518208   -0.013415
      6          1           0       -1.768176    1.177579   -0.035903
      7          1           0       -2.681296   -0.420286   -0.030389
      8          1           0        0.507350    1.431246    0.033397
 ---------------------------------------------------------------------

 SCF Done:  E(RB2PLYPD3) =  -191.615141192     A.U. after   12 cycles
 E2(B2PLYPD3) =    -0.2466826479D+00 E(B2PLYPD3) =    -0.19186182384000D+03

 The electronic state is 1-A.
 Alpha  occ. eigenvalues --  -19.72802 -10.71368 -10.64909 -10.64087  -1.19556
 Alpha  occ. eigenvalues --   -0.93584  -0.75840  -0.67265  -0.57010  -0.56531
 Alpha  occ. eigenvalues --   -0.50717  -0.47016  -0.46854  -0.34837  -0.33923
 Alpha virt. eigenvalues --   -0.01761   0.05842   0.07148   0.08384   0.09843
 Alpha virt. eigenvalues --    0.12705   0.13957   0.15341   0.17427   0.19856
 Alpha virt. eigenvalues --    0.20182   0.21633   0.25672   0.26427   0.28994

 Mulliken charges:
               1
     1  C    0.150765
     2  O   -0.349519
     3  C   -0.025737
     4  C   -0.135026
     5  H    0.100409
     6  H    0.085151
     7  H    0.106105
     8  H    0.067854
 Sum of Mulliken charges =   0.00000

 Dipole moment (field-independent basis, Debye):
    X=             -3.4944    Y=              0.7663    Z=             -0.0285  Tot=              3.5775
 Quadrupole moment (field-independent basis, Debye-Ang):
   XX=            -27.3613   YY=            -21.8445   ZZ=            -25.1002
   XY=              1.0503   XZ=              0.2028   YZ=              0.0184

 Normal termination of Gaussian 09 at Wed Aug 26 10:44:12 2020.
