 Gaussian 09, Revision D.01,
 Gaussian 09:  ES64L-G09RevD.01 24-Apr-2013

 --------------------
 #p B2PLYPD3/Def2QZVP
 --------------------

 --------
 acrolein
 --------
 Symbolic Z-matrix:
 Charge =  0 Multiplicity = 1

                         Standard orientation:
 ---------------------------------------------------------------------
 Center     Atomic      Atomic             Coordinates (Angstroms)
 Number     Number       Type             X           Y           Z
 ---------------------------------------------------------------------
      1          6           0       -0.693001    0.391037   -0.058981
      2          8           0       -1.787612   -0.167040    0.054444
      3          6           0        0.586585   -0.440254   -0.061629
      4          6           0        1.744219    0.123228    0.024819
      5          1           0        0.453154   -1.444756    0.007343
      6          1           0        1.731519    1.147562    0.199553
      7          1           0        2.682540   -0.444695    0.037408
      8          1           0       -0.393134    1.634143   -0.105109
 ---------------------------------------------------------------------

 SCF Done:  E(RB2PLYPD3) =  -191.586643932     A.U. after   13 cycles
 E2(B2PLYPD3) =    -0.2495892807D+00 E(B2PLYPD3) =    -0.19183623321235D+03

 The electronic state is 1-A.
 Alpha  occ. eigenvalues --  -19.74212 -10.74418 -10.64059 -10.63300  -1.19015
 Alpha  occ. eigenvalues --   -0.93742  -0.74178  -0.66674  -0.56881  -0.54911
 Alpha  occ. eigenvalues --   -0.50817  -0.47330  -0.46308  -0.35311  -0.33802
 Alpha virt. eigenvalues --   -0.01479   0.05483   0.06927   0.07453   0.10020
 Alpha virt. eigenvalues --    0.12351   0.12814   0.15316   0.17219   0.19412
 Alpha virt. eigenvalues --    0.20274   0.21391   0.25206   0.26341   0.28417

 Mulliken charges:
               1
     1  C    0.168366
     2  O   -0.341273
     3  C   -0.039788
     4  C   -0.120825
     5  H    0.108276
     6  H    0.076634
     7  H    0.100740
     8  H    0.047870
 Sum of Mulliken charges =   0.00000

 Dipole moment (field-independent basis, Debye):
    X=              3.2746    Y=              0.7168    Z=             -0.0016  Tot=              3.3521
 Quadrupole moment (field-independent basis, Debye-Ang):
   XX=            -27.5418   YY=            -22.0689   ZZ=            -25.2248
   XY=             -1.1395   XZ=              0.6200   YZ=              0.1160

 Normal termination of Gaussian 09 at Wed Aug 26 13:42:23 2020.
