 Gaussian 09, Revision D.01,
 Gaussian 09:  ES64L-G09RevD.01 24-Apr-2013

 --------------------
 #p B2PLYPD3/Def2QZVP
 --------------------

 --------
 acrolein
 --------
 Symbolic Z-matrix:
 Charge =  0 Multiplicity = 1

                         Standard orientation:
 ---------------------------------------------------------------------
 Center     Atomic      Atomic             Coordinates (Angstroms)
 Number     Number       Type             X           Y           Z
 ---------------------------------------------------------------------
      1          6           0        0.675509    0.360565    0.011856
      2          8           0        1.789205   -0.131394   -0.023057
      3          6           0       -0.570412   -0.440864    0.018876
      4          6           0       -1.756625    0.133293   -0.011199
      5          1           0       -0.435258   -1.527538    0.059548
      6          1           0       -1.817367    1.205683   -0.054031
      7          1           0       -2.657322   -0.413675   -0.039542
      8          1           0        0.505472    1.468721    0.101280
 ---------------------------------------------------------------------

 SCF Done:  E(RB2PLYPD3) =  -191.615566599     A.U. after   12 cycles
 E2(B2PLYPD3) =    -0.2472960514D+00 E(B2PLYPD3) =    -0.19186286265043D+03

 The electronic state is 1-A.
 Alpha  occ. eigenvalues --  -19.73076 -10.72074 -10.64781 -10.64333  -1.19224
 Alpha  occ. eigenvalues --   -0.93227  -0.75504  -0.66675  -0.56875  -0.56261
 Alpha  occ. eigenvalues --   -0.50881  -0.46839  -0.46389  -0.34920  -0.33927
 Alpha virt. eigenvalues --   -0.01637   0.05820   0.07115   0.08075   0.09792
 Alpha virt. eigenvalues --    0.12598   0.13968   0.15342   0.17293   0.19633
 Alpha virt. eigenvalues --    0.20103   0.21804   0.25499   0.26519   0.28777

 Mulliken charges:
               1
     1  C    0.158444
     2  O   -0.349140
     3  C   -0.038522
     4  C   -0.129678
     5  H    0.102877
     6  H    0.080334
     7  H    0.104938
     8  H    0.070747
 Sum of Mulliken charges =   0.00000

 Dipole moment (field-independent basis, Debye):
    X=             -3.4494    Y=              0.7874    Z=              0.0703  Tot=              3.5388
 Quadrupole moment (field-independent basis, Debye-Ang):
   XX=            -27.4514   YY=            -21.7871   ZZ=            -25.1835
   XY=              0.9872   XZ=              0.2707   YZ=             -0.0737

 Normal termination of Gaussian 09 at Wed Aug 26 19:13:16 2020.
