 Gaussian 09, Revision D.01,
 Gaussian 09:  ES64L-G09RevD.01 24-Apr-2013

 --------------------
 #p B2PLYPD3/Def2QZVP
 --------------------

 --------
 acrolein
 --------
 Symbolic Z-matrix:
 Charge =  0 Multiplicity = 1

                         Standard orientation:
 ---------------------------------------------------------------------
 Center     Atomic      Atomic             Coordinates (Angstroms)
 Number     Number       Type             X           Y           Z
 ---------------------------------------------------------------------
      1          6           0        0.702545    0.400254   -0.030476
      2          8           0        1.736774   -0.169708    0.018231
      3          6           0       -0.545615   -0.430909   -0.044716
      4          6           0       -1.726672    0.128438    0.038430
      5          1           0       -0.529205   -1.474620    0.080353
      6          1           0       -1.753120    1.167991   -0.014376
      7          1           0       -2.772221   -0.368326   -0.041529
      8          1           0        0.578806    1.445923    0.050279
 ---------------------------------------------------------------------

 SCF Done:  E(RB2PLYPD3) =  -191.601072686     A.U. after   12 cycles
 E2(B2PLYPD3) =    -0.2452392363D+00 E(B2PLYPD3) =    -0.19184631192256D+03

 The electronic state is 1-A.
 Alpha  occ. eigenvalues --  -19.72867 -10.71314 -10.64358 -10.63134  -1.21596
 Alpha  occ. eigenvalues --   -0.92777  -0.74314  -0.68255  -0.57843  -0.55837
 Alpha  occ. eigenvalues --   -0.50921  -0.47890  -0.45487  -0.34825  -0.33771
 Alpha virt. eigenvalues --   -0.00626   0.05837   0.07408   0.07861   0.09795
 Alpha virt. eigenvalues --    0.12299   0.14312   0.15376   0.18166   0.19297
 Alpha virt. eigenvalues --    0.20133   0.21394   0.25392   0.26635   0.28889

 Mulliken charges:
               1
     1  C    0.149512
     2  O   -0.324337
     3  C   -0.063034
     4  C   -0.119096
     5  H    0.109137
     6  H    0.062644
     7  H    0.088921
     8  H    0.096253
 Sum of Mulliken charges =   0.00000

 Dipole moment (field-independent basis, Debye):
    X=             -2.9753    Y=              1.0448    Z=             -0.0342  Tot=              3.1536
 Quadrupole moment (field-independent basis, Debye-Ang):
   XX=            -27.0957   YY=            -21.7557   ZZ=            -25.0420
   XY=              1.4885   XZ=              0.0036   YZ=             -0.1259

 Normal termination of Gaussian 09 at Wed Aug 26 13:20:37 2020.
