 Gaussian 09, Revision D.01,
 Gaussian 09:  ES64L-G09RevD.01 24-Apr-2013

 --------------------
 #p B2PLYPD3/Def2QZVP
 --------------------

 --------
 acrolein
 --------
 Symbolic Z-matrix:
 Charge =  0 Multiplicity = 1

                         Standard orientation:
 ---------------------------------------------------------------------
 Center     Atomic      Atomic             Coordinates (Angstroms)
 Number     Number       Type             X           Y           Z
 ---------------------------------------------------------------------
      1          6           0        0.658301    0.334408    0.021193
      2          8           0        1.770715   -0.141630   -0.025836
      3          6           0       -0.519421   -0.404984   -0.027713
      4          6           0       -1.756286    0.126606    0.006347
      5          1           0       -0.528161   -1.468696    0.208275
      6          1           0       -1.692876    1.119808   -0.081456
      7          1           0       -2.697429   -0.429088   -0.062737
      8          1           0        0.457184    1.574844    0.143653
 ---------------------------------------------------------------------

 SCF Done:  E(RB2PLYPD3) =  -191.585150310     A.U. after   13 cycles
 E2(B2PLYPD3) =    -0.2495517465D+00 E(B2PLYPD3) =    -0.19183470205608D+03

 The electronic state is 1-A.
 Alpha  occ. eigenvalues --  -19.73226 -10.72647 -10.65349 -10.64081  -1.19909
 Alpha  occ. eigenvalues --   -0.94436  -0.76860  -0.65969  -0.57303  -0.56035
 Alpha  occ. eigenvalues --   -0.50951  -0.47975  -0.45299  -0.34834  -0.33761
 Alpha virt. eigenvalues --   -0.02875   0.05845   0.06290   0.08486   0.09907
 Alpha virt. eigenvalues --    0.12576   0.13386   0.14543   0.17663   0.19299
 Alpha virt. eigenvalues --    0.20595   0.21429   0.24729   0.26465   0.29455

 Mulliken charges:
               1
     1  C    0.144464
     2  O   -0.334534
     3  C   -0.004790
     4  C   -0.115139
     5  H    0.093551
     6  H    0.077616
     7  H    0.112324
     8  H    0.026507
 Sum of Mulliken charges =   0.00000

 Dipole moment (field-independent basis, Debye):
    X=             -3.6738    Y=              0.5432    Z=              0.1772  Tot=              3.7180
 Quadrupole moment (field-independent basis, Debye-Ang):
   XX=            -26.7293   YY=            -22.5668   ZZ=            -25.1204
   XY=              1.3336   XZ=              0.2214   YZ=             -0.3122

 Normal termination of Gaussian 09 at Wed Aug 26 14:11:38 2020.
