 Gaussian 09, Revision D.01,
 Gaussian 09:  ES64L-G09RevD.01 24-Apr-2013

 --------------------
 #p B2PLYPD3/Def2QZVP
 --------------------

 --------
 acrolein
 --------
 Symbolic Z-matrix:
 Charge =  0 Multiplicity = 1

                         Standard orientation:
 ---------------------------------------------------------------------
 Center     Atomic      Atomic             Coordinates (Angstroms)
 Number     Number       Type             X           Y           Z
 ---------------------------------------------------------------------
      1          6           0       -0.665108    0.312351    0.006905
      2          8           0       -1.818125   -0.091058    0.032960
      3          6           0        0.579243   -0.439679   -0.066906
      4          6           0        1.766558    0.144834    0.006584
      5          1           0        0.426641   -1.608900   -0.059820
      6          1           0        1.833091    1.255168    0.010601
      7          1           0        2.627890   -0.419819    0.236046
      8          1           0       -0.426775    1.396980   -0.130001
 ---------------------------------------------------------------------

 SCF Done:  E(RB2PLYPD3) =  -191.602807749     A.U. after   13 cycles
 E2(B2PLYPD3) =    -0.2488908551D+00 E(B2PLYPD3) =    -0.19185169860451D+03

 The electronic state is 1-A.
 Alpha  occ. eigenvalues --  -19.73218 -10.71910 -10.65967 -10.65421  -1.18938
 Alpha  occ. eigenvalues --   -0.93641  -0.76383  -0.65518  -0.57004  -0.55669
 Alpha  occ. eigenvalues --   -0.50927  -0.46854  -0.45574  -0.35160  -0.33668
 Alpha virt. eigenvalues --   -0.02503   0.05718   0.06622   0.08250   0.09691
 Alpha virt. eigenvalues --    0.12625   0.13845   0.15200   0.16981   0.19396
 Alpha virt. eigenvalues --    0.19754   0.21927   0.24916   0.26618   0.28175

 Mulliken charges:
               1
     1  C    0.169835
     2  O   -0.350663
     3  C   -0.026289
     4  C   -0.120616
     5  H    0.085842
     6  H    0.082072
     7  H    0.111595
     8  H    0.048224
 Sum of Mulliken charges =   0.00000

 Dipole moment (field-independent basis, Debye):
    X=              3.6699    Y=              0.6144    Z=              0.0607  Tot=              3.7215
 Quadrupole moment (field-independent basis, Debye-Ang):
   XX=            -27.5945   YY=            -22.1058   ZZ=            -25.2116
   XY=             -0.5721   XZ=              0.7612   YZ=             -0.1216

 Normal termination of Gaussian 09 at Wed Aug 26 10:51:59 2020.
