 Gaussian 09, Revision D.01,
 Gaussian 09:  ES64L-G09RevD.01 24-Apr-2013

 --------------------
 #p B2PLYPD3/Def2QZVP
 --------------------

 --------
 acrolein
 --------
 Symbolic Z-matrix:
 Charge =  0 Multiplicity = 1

                         Standard orientation:
 ---------------------------------------------------------------------
 Center     Atomic      Atomic             Coordinates (Angstroms)
 Number     Number       Type             X           Y           Z
 ---------------------------------------------------------------------
      1          6           0       -0.667464    0.335887    0.022749
      2          8           0       -1.792375   -0.107203   -0.024296
      3          6           0        0.556103   -0.454899    0.006970
      4          6           0        1.755913    0.147593   -0.006001
      5          1           0        0.429026   -1.554646    0.067085
      6          1           0        1.887955    1.248138   -0.050449
      7          1           0        2.699373   -0.424766   -0.040553
      8          1           0       -0.544666    1.417418    0.075977
 ---------------------------------------------------------------------

 SCF Done:  E(RB2PLYPD3) =  -191.614420172     A.U. after   13 cycles
 E2(B2PLYPD3) =    -0.2474687897D+00 E(B2PLYPD3) =    -0.19186188896208D+03

 The electronic state is 1-A.
 Alpha  occ. eigenvalues --  -19.72565 -10.71148 -10.66334 -10.64943  -1.19427
 Alpha  occ. eigenvalues --   -0.92800  -0.75459  -0.66777  -0.56727  -0.55946
 Alpha  occ. eigenvalues --   -0.50325  -0.46845  -0.46383  -0.34624  -0.33728
 Alpha virt. eigenvalues --   -0.01957   0.05625   0.07032   0.08307   0.09621
 Alpha virt. eigenvalues --    0.12429   0.14101   0.15285   0.17469   0.19579
 Alpha virt. eigenvalues --    0.19988   0.21425   0.25281   0.26482   0.28690

 Mulliken charges:
               1
     1  C    0.155952
     2  O   -0.350428
     3  C   -0.038805
     4  C   -0.127282
     5  H    0.104707
     6  H    0.086924
     7  H    0.100006
     8  H    0.068927
 Sum of Mulliken charges =   0.00000

 Dipole moment (field-independent basis, Debye):
    X=              3.5698    Y=              0.7288    Z=              0.0890  Tot=              3.6445
 Quadrupole moment (field-independent basis, Debye-Ang):
   XX=            -27.3963   YY=            -21.7300   ZZ=            -25.2847
   XY=             -0.7625   XZ=             -0.2739   YZ=             -0.1151

 Normal termination of Gaussian 09 at Wed Aug 26 09:28:04 2020.
