 Gaussian 09, Revision D.01,
 Gaussian 09:  ES64L-G09RevD.01 24-Apr-2013

 --------------------
 #p B2PLYPD3/Def2QZVP
 --------------------

 --------
 acrolein
 --------
 Symbolic Z-matrix:
 Charge =  0 Multiplicity = 1

                         Standard orientation:
 ---------------------------------------------------------------------
 Center     Atomic      Atomic             Coordinates (Angstroms)
 Number     Number       Type             X           Y           Z
 ---------------------------------------------------------------------
      1          6           0        0.660823    0.347884    0.009974
      2          8           0        1.787783   -0.127745   -0.018189
      3          6           0       -0.568143   -0.441626    0.004398
      4          6           0       -1.740849    0.138936   -0.007203
      5          1           0       -0.481316   -1.478475    0.065094
      6          1           0       -1.755545    1.195762   -0.077265
      7          1           0       -2.650485   -0.413200   -0.000534
      8          1           0        0.474100    1.446712    0.115200
 ---------------------------------------------------------------------

 SCF Done:  E(RB2PLYPD3) =  -191.613598394     A.U. after   12 cycles
 E2(B2PLYPD3) =    -0.2470642989D+00 E(B2PLYPD3) =    -0.19186066269326D+03

 The electronic state is 1-A.
 Alpha  occ. eigenvalues --  -19.72966 -10.71872 -10.64625 -10.63467  -1.18812
 Alpha  occ. eigenvalues --   -0.94107  -0.75767  -0.67541  -0.57165  -0.56349
 Alpha  occ. eigenvalues --   -0.50712  -0.47370  -0.46443  -0.35108  -0.33960
 Alpha virt. eigenvalues --   -0.01726   0.05854   0.07181   0.08146   0.09837
 Alpha virt. eigenvalues --    0.12781   0.13901   0.15253   0.17611   0.19617
 Alpha virt. eigenvalues --    0.20291   0.21631   0.25407   0.26699   0.28989

 Mulliken charges:
               1
     1  C    0.150195
     2  O   -0.353987
     3  C   -0.026159
     4  C   -0.129195
     5  H    0.104759
     6  H    0.081575
     7  H    0.103463
     8  H    0.069349
 Sum of Mulliken charges =   0.00000

 Dipole moment (field-independent basis, Debye):
    X=             -3.5490    Y=              0.7329    Z=              0.0849  Tot=              3.6249
 Quadrupole moment (field-independent basis, Debye-Ang):
   XX=            -27.5246   YY=            -21.8282   ZZ=            -25.0359
   XY=              1.0855   XZ=              0.1682   YZ=             -0.1326

 Normal termination of Gaussian 09 at Wed Aug 26 08:55:28 2020.
