 Gaussian 09, Revision D.01,
 Gaussian 09:  ES64L-G09RevD.01 24-Apr-2013

 --------------------
 #p B2PLYPD3/Def2QZVP
 --------------------

 --------
 acrolein
 --------
 Symbolic Z-matrix:
 Charge =  0 Multiplicity = 1

                         Standard orientation:
 ---------------------------------------------------------------------
 Center     Atomic      Atomic             Coordinates (Angstroms)
 Number     Number       Type             X           Y           Z
 ---------------------------------------------------------------------
      1          6           0        0.669234    0.349091   -0.020312
      2          8           0        1.772102   -0.137295    0.024461
      3          6           0       -0.551184   -0.423412   -0.045352
      4          6           0       -1.744447    0.142053    0.004438
      5          1           0       -0.460671   -1.464747    0.037167
      6          1           0       -1.775993    1.150772    0.054571
      7          1           0       -2.716772   -0.449614    0.091478
      8          1           0        0.535000    1.455559   -0.011553
 ---------------------------------------------------------------------

 SCF Done:  E(RB2PLYPD3) =  -191.608970069     A.U. after   12 cycles
 E2(B2PLYPD3) =    -0.2464920727D+00 E(B2PLYPD3) =    -0.19185546214182D+03

 The electronic state is 1-A.
 Alpha  occ. eigenvalues --  -19.72736 -10.71390 -10.65105 -10.63528  -1.19826
 Alpha  occ. eigenvalues --   -0.93815  -0.75678  -0.67685  -0.57361  -0.56147
 Alpha  occ. eigenvalues --   -0.50435  -0.47369  -0.46908  -0.34870  -0.33889
 Alpha virt. eigenvalues --   -0.01750   0.05738   0.07175   0.08481   0.09863
 Alpha virt. eigenvalues --    0.12549   0.13854   0.15343   0.17770   0.19793
 Alpha virt. eigenvalues --    0.20261   0.21393   0.25559   0.26325   0.29015

 Mulliken charges:
               1
     1  C    0.145727
     2  O   -0.347244
     3  C   -0.025553
     4  C   -0.130751
     5  H    0.105899
     6  H    0.086403
     7  H    0.099873
     8  H    0.065646
 Sum of Mulliken charges =   0.00000

 Dipole moment (field-independent basis, Debye):
    X=             -3.4632    Y=              0.7796    Z=              0.0807  Tot=              3.5508
 Quadrupole moment (field-independent basis, Debye-Ang):
   XX=            -27.2509   YY=            -21.9174   ZZ=            -25.0496
   XY=              1.1648   XZ=             -0.4592   YZ=             -0.0648

 Normal termination of Gaussian 09 at Wed Aug 26 08:05:00 2020.
