 Gaussian 09, Revision D.01,
 Gaussian 09:  ES64L-G09RevD.01 24-Apr-2013

 --------------------
 #p B2PLYPD3/Def2QZVP
 --------------------

 --------
 acrolein
 --------
 Symbolic Z-matrix:
 Charge =  0 Multiplicity = 1

                         Standard orientation:
 ---------------------------------------------------------------------
 Center     Atomic      Atomic             Coordinates (Angstroms)
 Number     Number       Type             X           Y           Z
 ---------------------------------------------------------------------
      1          6           0        0.667168    0.342401    0.022056
      2          8           0        1.796554   -0.108611   -0.020392
      3          6           0       -0.565972   -0.460194    0.013460
      4          6           0       -1.757099    0.152336   -0.018435
      5          1           0       -0.427903   -1.551388    0.052690
      6          1           0       -1.858672    1.245926    0.015628
      7          1           0       -2.673614   -0.431561   -0.034956
      8          1           0        0.523172    1.398649    0.027290
 ---------------------------------------------------------------------

 SCF Done:  E(RB2PLYPD3) =  -191.614938688     A.U. after   12 cycles
 E2(B2PLYPD3) =    -0.2474545341D+00 E(B2PLYPD3) =    -0.19186239322185D+03

 The electronic state is 1-A.
 Alpha  occ. eigenvalues --  -19.72641 -10.71129 -10.65920 -10.64812  -1.19012
 Alpha  occ. eigenvalues --   -0.92853  -0.75545  -0.67248  -0.56531  -0.56171
 Alpha  occ. eigenvalues --   -0.50400  -0.46992  -0.46376  -0.34601  -0.33802
 Alpha virt. eigenvalues --   -0.01873   0.05676   0.07120   0.08108   0.09674
 Alpha virt. eigenvalues --    0.12553   0.14000   0.15313   0.17479   0.19637
 Alpha virt. eigenvalues --    0.20011   0.21571   0.25303   0.26618   0.28687

 Mulliken charges:
               1
     1  C    0.157012
     2  O   -0.355360
     3  C   -0.039912
     4  C   -0.132645
     5  H    0.104916
     6  H    0.088725
     7  H    0.102120
     8  H    0.075144
 Sum of Mulliken charges =   0.00000

 Dipole moment (field-independent basis, Debye):
    X=             -3.5579    Y=              0.7629    Z=              0.1118  Tot=              3.6405
 Quadrupole moment (field-independent basis, Debye-Ang):
   XX=            -27.6203   YY=            -21.6060   ZZ=            -25.2579
   XY=              0.8033   XZ=              0.1301   YZ=             -0.0208

 Normal termination of Gaussian 09 at Wed Aug 26 20:31:26 2020.
