 Gaussian 09, Revision D.01,
 Gaussian 09:  ES64L-G09RevD.01 24-Apr-2013

 --------------------
 #p B2PLYPD3/Def2QZVP
 --------------------

 --------
 acrolein
 --------
 Symbolic Z-matrix:
 Charge =  0 Multiplicity = 1

                         Standard orientation:
 ---------------------------------------------------------------------
 Center     Atomic      Atomic             Coordinates (Angstroms)
 Number     Number       Type             X           Y           Z
 ---------------------------------------------------------------------
      1          6           0       -0.674942    0.344183    0.030386
      2          8           0       -1.770283   -0.131537   -0.039733
      3          6           0        0.548650   -0.449723    0.025037
      4          6           0        1.759034    0.132654   -0.046043
      5          1           0        0.449925   -1.443603    0.104325
      6          1           0        1.796480    1.215705   -0.081525
      7          1           0        2.653916   -0.415820    0.059911
      8          1           0       -0.534515    1.533325    0.178872
 ---------------------------------------------------------------------

 SCF Done:  E(RB2PLYPD3) =  -191.605903451     A.U. after   13 cycles
 E2(B2PLYPD3) =    -0.2470627710D+00 E(B2PLYPD3) =    -0.19185296622149D+03

 The electronic state is 1-A.
 Alpha  occ. eigenvalues --  -19.73011 -10.72215 -10.65311 -10.63662  -1.20619
 Alpha  occ. eigenvalues --   -0.93105  -0.75484  -0.66832  -0.57125  -0.56037
 Alpha  occ. eigenvalues --   -0.50798  -0.48031  -0.47144  -0.34524  -0.33638
 Alpha virt. eigenvalues --   -0.01825   0.05883   0.07049   0.08396   0.09853
 Alpha virt. eigenvalues --    0.12477   0.13793   0.15411   0.17619   0.19373
 Alpha virt. eigenvalues --    0.20109   0.21645   0.25152   0.26469   0.29103

 Mulliken charges:
               1
     1  C    0.157274
     2  O   -0.333801
     3  C   -0.041312
     4  C   -0.125370
     5  H    0.110301
     6  H    0.083296
     7  H    0.103042
     8  H    0.046571
 Sum of Mulliken charges =   0.00000

 Dipole moment (field-independent basis, Debye):
    X=              3.3765    Y=              0.6077    Z=              0.2458  Tot=              3.4396
 Quadrupole moment (field-independent basis, Debye-Ang):
   XX=            -27.1331   YY=            -22.0059   ZZ=            -25.1670
   XY=             -1.0200   XZ=             -0.0950   YZ=             -0.2112

 Normal termination of Gaussian 09 at Wed Aug 26 08:40:48 2020.
