 Gaussian 09, Revision D.01,
 Gaussian 09:  ES64L-G09RevD.01 24-Apr-2013

 --------------------
 #p B2PLYPD3/Def2QZVP
 --------------------

 --------
 acrolein
 --------
 Symbolic Z-matrix:
 Charge =  0 Multiplicity = 1

                         Standard orientation:
 ---------------------------------------------------------------------
 Center     Atomic      Atomic             Coordinates (Angstroms)
 Number     Number       Type             X           Y           Z
 ---------------------------------------------------------------------
      1          6           0        0.710408    0.391741   -0.060585
      2          8           0        1.766846   -0.171738    0.039894
      3          6           0       -0.554771   -0.440038   -0.005242
      4          6           0       -1.740742    0.134235   -0.012800
      5          1           0       -0.535074   -1.449101   -0.027564
      6          1           0       -1.887436    1.181045    0.199558
      7          1           0       -2.765859   -0.454418    0.025212
      8          1           0        0.564229    1.580747   -0.044595
 ---------------------------------------------------------------------

 SCF Done:  E(RB2PLYPD3) =  -191.594743500     A.U. after   13 cycles
 E2(B2PLYPD3) =    -0.2477477574D+00 E(B2PLYPD3) =    -0.19184249125779D+03

 The electronic state is 1-A.
 Alpha  occ. eigenvalues --  -19.73451 -10.73164 -10.65393 -10.63598  -1.20648
 Alpha  occ. eigenvalues --   -0.92499  -0.73443  -0.67083  -0.56435  -0.55767
 Alpha  occ. eigenvalues --   -0.50642  -0.47342  -0.45735  -0.34726  -0.33768
 Alpha virt. eigenvalues --   -0.01189   0.05534   0.07104   0.07523   0.09682
 Alpha virt. eigenvalues --    0.11994   0.13721   0.15350   0.18013   0.19621
 Alpha virt. eigenvalues --    0.20078   0.21058   0.24900   0.26026   0.27978

 Mulliken charges:
               1
     1  C    0.167895
     2  O   -0.326784
     3  C   -0.066762
     4  C   -0.114907
     5  H    0.114509
     6  H    0.076276
     7  H    0.076544
     8  H    0.073229
 Sum of Mulliken charges =   0.00000

 Dipole moment (field-independent basis, Debye):
    X=             -3.0701    Y=              0.8920    Z=             -0.0024  Tot=              3.1970
 Quadrupole moment (field-independent basis, Debye-Ang):
   XX=            -27.3605   YY=            -21.8223   ZZ=            -25.2852
   XY=              1.2664   XZ=             -0.5549   YZ=              0.2433

 Normal termination of Gaussian 09 at Wed Aug 26 14:22:25 2020.
