 Gaussian 09, Revision D.01,
 Gaussian 09:  ES64L-G09RevD.01 24-Apr-2013

 --------------------
 #p B2PLYPD3/Def2QZVP
 --------------------

 --------
 acrolein
 --------
 Symbolic Z-matrix:
 Charge =  0 Multiplicity = 1

                         Standard orientation:
 ---------------------------------------------------------------------
 Center     Atomic      Atomic             Coordinates (Angstroms)
 Number     Number       Type             X           Y           Z
 ---------------------------------------------------------------------
      1          6           0        0.663772    0.339422    0.009970
      2          8           0        1.796825   -0.115128   -0.006116
      3          6           0       -0.559049   -0.451212    0.000866
      4          6           0       -1.750222    0.142659   -0.012728
      5          1           0       -0.452768   -1.520886   -0.007356
      6          1           0       -1.840722    1.230963   -0.045612
      7          1           0       -2.716808   -0.416429    0.070513
      8          1           0        0.508697    1.442161    0.042731
 ---------------------------------------------------------------------

 SCF Done:  E(RB2PLYPD3) =  -191.614789515     A.U. after   13 cycles
 E2(B2PLYPD3) =    -0.2478631021D+00 E(B2PLYPD3) =    -0.19186265261733D+03

 The electronic state is 1-A.
 Alpha  occ. eigenvalues --  -19.72776 -10.71666 -10.66147 -10.64434  -1.18865
 Alpha  occ. eigenvalues --   -0.93286  -0.75406  -0.66990  -0.56527  -0.56110
 Alpha  occ. eigenvalues --   -0.50305  -0.46782  -0.46446  -0.34787  -0.33854
 Alpha virt. eigenvalues --   -0.02039   0.05610   0.07083   0.08209   0.09681
 Alpha virt. eigenvalues --    0.12440   0.14002   0.15322   0.17517   0.19618
 Alpha virt. eigenvalues --    0.20006   0.21366   0.25427   0.26391   0.28850

 Mulliken charges:
               1
     1  C    0.154348
     2  O   -0.354500
     3  C   -0.033151
     4  C   -0.125313
     5  H    0.106995
     6  H    0.084442
     7  H    0.099657
     8  H    0.067522
 Sum of Mulliken charges =   0.00000

 Dipole moment (field-independent basis, Debye):
    X=             -3.6143    Y=              0.7267    Z=              0.0546  Tot=              3.6871
 Quadrupole moment (field-independent basis, Debye-Ang):
   XX=            -27.4493   YY=            -21.8103   ZZ=            -25.2469
   XY=              0.8572   XZ=             -0.0717   YZ=             -0.0644

 Normal termination of Gaussian 09 at Wed Aug 26 19:22:47 2020.
