 Gaussian 09, Revision D.01,
 Gaussian 09:  ES64L-G09RevD.01 24-Apr-2013

 --------------------
 #p B2PLYPD3/Def2QZVP
 --------------------

 --------
 acrolein
 --------
 Symbolic Z-matrix:
 Charge =  0 Multiplicity = 1

                         Standard orientation:
 ---------------------------------------------------------------------
 Center     Atomic      Atomic             Coordinates (Angstroms)
 Number     Number       Type             X           Y           Z
 ---------------------------------------------------------------------
      1          6           0        0.676802    0.339311   -0.017225
      2          8           0        1.790311   -0.113251    0.012096
      3          6           0       -0.559619   -0.467356   -0.012917
      4          6           0       -1.751089    0.150807   -0.004850
      5          1           0       -0.483180   -1.514455    0.011389
      6          1           0       -1.871795    1.247569    0.022263
      7          1           0       -2.681782   -0.414536    0.059893
      8          1           0        0.517701    1.450856    0.019641
 ---------------------------------------------------------------------

 SCF Done:  E(RB2PLYPD3) =  -191.615389802     A.U. after   12 cycles
 E2(B2PLYPD3) =    -0.2470123172D+00 E(B2PLYPD3) =    -0.19186240211915D+03

 The electronic state is 1-A.
 Alpha  occ. eigenvalues --  -19.72774 -10.71644 -10.65869 -10.64352  -1.19995
 Alpha  occ. eigenvalues --   -0.92731  -0.75005  -0.67094  -0.56452  -0.56302
 Alpha  occ. eigenvalues --   -0.50536  -0.47150  -0.46972  -0.34586  -0.33699
 Alpha virt. eigenvalues --   -0.01655   0.05712   0.07218   0.08160   0.09642
 Alpha virt. eigenvalues --    0.12524   0.14067   0.15372   0.17709   0.19684
 Alpha virt. eigenvalues --    0.19951   0.21388   0.25321   0.26389   0.28556

 Mulliken charges:
               1
     1  C    0.155887
     2  O   -0.342023
     3  C   -0.045096
     4  C   -0.127096
     5  H    0.109489
     6  H    0.085510
     7  H    0.096674
     8  H    0.066655
 Sum of Mulliken charges =   0.00000

 Dipole moment (field-independent basis, Debye):
    X=             -3.4693    Y=              0.6969    Z=              0.0415  Tot=              3.5388
 Quadrupole moment (field-independent basis, Debye-Ang):
   XX=            -27.3983   YY=            -21.7306   ZZ=            -25.2499
   XY=              0.8250   XZ=             -0.2489   YZ=             -0.0148

 Normal termination of Gaussian 09 at Wed Aug 26 19:42:26 2020.
