 Gaussian 09, Revision D.01,
 Gaussian 09:  ES64L-G09RevD.01 24-Apr-2013

 --------------------
 #p B2PLYPD3/Def2QZVP
 --------------------

 --------
 acrolein
 --------
 Symbolic Z-matrix:
 Charge =  0 Multiplicity = 1

                         Standard orientation:
 ---------------------------------------------------------------------
 Center     Atomic      Atomic             Coordinates (Angstroms)
 Number     Number       Type             X           Y           Z
 ---------------------------------------------------------------------
      1          6           0       -0.695367    0.368398    0.038403
      2          8           0       -1.772641   -0.140456   -0.022371
      3          6           0        0.560251   -0.439495    0.017704
      4          6           0        1.749550    0.137920   -0.012013
      5          1           0        0.467345   -1.468565   -0.010669
      6          1           0        1.811551    1.173588   -0.030586
      7          1           0        2.747693   -0.403514   -0.016352
      8          1           0       -0.532065    1.421208   -0.027982
 ---------------------------------------------------------------------

 SCF Done:  E(RB2PLYPD3) =  -191.610566516     A.U. after   12 cycles
 E2(B2PLYPD3) =    -0.2456085271D+00 E(B2PLYPD3) =    -0.19185617504331D+03

 The electronic state is 1-A.
 Alpha  occ. eigenvalues --  -19.72955 -10.71298 -10.64874 -10.63462  -1.20767
 Alpha  occ. eigenvalues --   -0.92840  -0.74980  -0.68296  -0.57218  -0.56120
 Alpha  occ. eigenvalues --   -0.51161  -0.47399  -0.46730  -0.34723  -0.33844
 Alpha virt. eigenvalues --   -0.01149   0.05784   0.07541   0.08091   0.09764
 Alpha virt. eigenvalues --    0.12537   0.14186   0.15474   0.17989   0.19802
 Alpha virt. eigenvalues --    0.20000   0.21311   0.25710   0.26535   0.28798

 Mulliken charges:
               1
     1  C    0.152313
     2  O   -0.337081
     3  C   -0.048380
     4  C   -0.134248
     5  H    0.110703
     6  H    0.079144
     7  H    0.094488
     8  H    0.083062
 Sum of Mulliken charges =   0.00000

 Dipole moment (field-independent basis, Debye):
    X=              3.2242    Y=              0.8887    Z=              0.0359  Tot=              3.3446
 Quadrupole moment (field-independent basis, Debye-Ang):
   XX=            -27.1955   YY=            -21.8164   ZZ=            -25.0777
   XY=             -1.0787   XZ=             -0.1931   YZ=             -0.0137

 Normal termination of Gaussian 09 at Wed Aug 26 09:04:15 2020.
