 Gaussian 09, Revision D.01,
 Gaussian 09:  ES64L-G09RevD.01 24-Apr-2013

 --------------------
 #p B2PLYPD3/Def2QZVP
 --------------------

 --------
 acrolein
 --------
 Symbolic Z-matrix:
 Charge =  0 Multiplicity = 1

                         Standard orientation:
 ---------------------------------------------------------------------
 Center     Atomic      Atomic             Coordinates (Angstroms)
 Number     Number       Type             X           Y           Z
 ---------------------------------------------------------------------
      1          6           0        0.673802    0.330094   -0.001560
      2          8           0        1.803347   -0.098413    0.008251
      3          6           0       -0.558059   -0.474533   -0.041403
      4          6           0       -1.762853    0.144255   -0.002202
      5          1           0       -0.473259   -1.505238    0.081553
      6          1           0       -1.933032    1.280546    0.013095
      7          1           0       -2.606486   -0.426105    0.085347
      8          1           0        0.468666    1.439207    0.024988
 ---------------------------------------------------------------------

 SCF Done:  E(RB2PLYPD3) =  -191.607722804     A.U. after   12 cycles
 E2(B2PLYPD3) =    -0.2476690170D+00 E(B2PLYPD3) =    -0.19185539182068D+03

 The electronic state is 1-A.
 Alpha  occ. eigenvalues --  -19.72835 -10.71691 -10.65996 -10.64485  -1.19597
 Alpha  occ. eigenvalues --   -0.92789  -0.75790  -0.66904  -0.56841  -0.55841
 Alpha  occ. eigenvalues --   -0.50593  -0.47567  -0.46675  -0.34482  -0.33665
 Alpha virt. eigenvalues --   -0.02048   0.05663   0.07245   0.08103   0.09586
 Alpha virt. eigenvalues --    0.12565   0.13876   0.15290   0.17835   0.19374
 Alpha virt. eigenvalues --    0.19980   0.21766   0.24889   0.26676   0.28319

 Mulliken charges:
               1
     1  C    0.159175
     2  O   -0.345453
     3  C   -0.046373
     4  C   -0.125401
     5  H    0.107739
     6  H    0.086598
     7  H    0.101702
     8  H    0.062012
 Sum of Mulliken charges =   0.00000

 Dipole moment (field-independent basis, Debye):
    X=             -3.5946    Y=              0.6319    Z=              0.1537  Tot=              3.6529
 Quadrupole moment (field-independent basis, Debye-Ang):
   XX=            -27.4398   YY=            -21.7485   ZZ=            -25.2517
   XY=              0.6128   XZ=             -0.3389   YZ=             -0.1667

 Normal termination of Gaussian 09 at Wed Aug 26 09:02:33 2020.
