 Gaussian 09, Revision D.01,
 Gaussian 09:  ES64L-G09RevD.01 24-Apr-2013

 --------------------
 #p B2PLYPD3/Def2QZVP
 --------------------

 --------
 acrolein
 --------
 Symbolic Z-matrix:
 Charge =  0 Multiplicity = 1

                         Standard orientation:
 ---------------------------------------------------------------------
 Center     Atomic      Atomic             Coordinates (Angstroms)
 Number     Number       Type             X           Y           Z
 ---------------------------------------------------------------------
      1          6           0       -0.659647    0.326036    0.031201
      2          8           0       -1.790099   -0.098531   -0.025961
      3          6           0        0.569460   -0.466080   -0.000544
      4          6           0        1.744160    0.158720   -0.026715
      5          1           0        0.461484   -1.540850    0.110083
      6          1           0        1.842992    1.252180    0.021775
      7          1           0        2.669580   -0.378542   -0.008528
      8          1           0       -0.577099    1.343404    0.060702
 ---------------------------------------------------------------------

 SCF Done:  E(RB2PLYPD3) =  -191.610543816     A.U. after   12 cycles
 E2(B2PLYPD3) =    -0.2462924995D+00 E(B2PLYPD3) =    -0.19185683631543D+03

 The electronic state is 1-A.
 Alpha  occ. eigenvalues --  -19.72274 -10.70273 -10.65599 -10.64531  -1.19352
 Alpha  occ. eigenvalues --   -0.93246  -0.75798  -0.68058  -0.57180  -0.56472
 Alpha  occ. eigenvalues --   -0.50531  -0.47219  -0.46354  -0.34766  -0.33645
 Alpha virt. eigenvalues --   -0.01681   0.05732   0.07212   0.08320   0.09619
 Alpha virt. eigenvalues --    0.12681   0.14268   0.15274   0.17676   0.19762
 Alpha virt. eigenvalues --    0.20006   0.21561   0.25311   0.26569   0.29005

 Mulliken charges:
               1
     1  C    0.152816
     2  O   -0.353300
     3  C   -0.037093
     4  C   -0.126654
     5  H    0.104694
     6  H    0.085337
     7  H    0.099175
     8  H    0.075025
 Sum of Mulliken charges =   0.00000

 Dipole moment (field-independent basis, Debye):
    X=              3.5778    Y=              0.7497    Z=              0.2302  Tot=              3.6627
 Quadrupole moment (field-independent basis, Debye-Ang):
   XX=            -27.4929   YY=            -21.6241   ZZ=            -25.0865
   XY=             -0.8203   XZ=             -0.0500   YZ=             -0.1136

 Normal termination of Gaussian 09 at Wed Aug 26 08:46:41 2020.
