 Gaussian 09, Revision D.01,
 Gaussian 09:  ES64L-G09RevD.01 24-Apr-2013

 --------------------
 #p B2PLYPD3/Def2QZVP
 --------------------

 --------
 acrolein
 --------
 Symbolic Z-matrix:
 Charge =  0 Multiplicity = 1

                         Standard orientation:
 ---------------------------------------------------------------------
 Center     Atomic      Atomic             Coordinates (Angstroms)
 Number     Number       Type             X           Y           Z
 ---------------------------------------------------------------------
      1          6           0       -0.671368    0.350091   -0.084542
      2          8           0       -1.811887   -0.097162    0.057932
      3          6           0        0.591514   -0.500368   -0.013460
      4          6           0        1.758681    0.159572    0.019886
      5          1           0        0.510382   -1.636276   -0.057390
      6          1           0        1.980771    1.372650    0.145285
      7          1           0        2.523524   -0.387069    0.009518
      8          1           0       -0.592546    1.372215   -0.092173
 ---------------------------------------------------------------------

 SCF Done:  E(RB2PLYPD3) =  -191.570642438     A.U. after   13 cycles
 E2(B2PLYPD3) =    -0.2488433500D+00 E(B2PLYPD3) =    -0.19181948578814D+03

 The electronic state is 1-A.
 Alpha  occ. eigenvalues --  -19.72568 -10.71297 -10.65881 -10.65297  -1.17989
 Alpha  occ. eigenvalues --   -0.92530  -0.75892  -0.67185  -0.56622  -0.55571
 Alpha  occ. eigenvalues --   -0.50066  -0.46333  -0.45534  -0.34548  -0.33597
 Alpha virt. eigenvalues --   -0.01650   0.05306   0.06868   0.07214   0.09336
 Alpha virt. eigenvalues --    0.12190   0.14410   0.15260   0.17306   0.18990
 Alpha virt. eigenvalues --    0.20079   0.22331   0.24715   0.26018   0.28251

 Mulliken charges:
               1
     1  C    0.164036
     2  O   -0.358001
     3  C   -0.064440
     4  C   -0.133447
     5  H    0.101730
     6  H    0.086056
     7  H    0.108937
     8  H    0.095129
 Sum of Mulliken charges =   0.00000

 Dipole moment (field-independent basis, Debye):
    X=              3.5577    Y=              0.7703    Z=             -0.1907  Tot=              3.6451
 Quadrupole moment (field-independent basis, Debye-Ang):
   XX=            -28.0273   YY=            -21.0335   ZZ=            -25.3757
   XY=             -0.7992   XZ=              0.5255   YZ=              0.2298

 Normal termination of Gaussian 09 at Wed Aug 26 11:19:13 2020.
