 Gaussian 09, Revision D.01,
 Gaussian 09:  ES64L-G09RevD.01 24-Apr-2013

 --------------------
 #p B2PLYPD3/Def2QZVP
 --------------------

 --------
 acrolein
 --------
 Symbolic Z-matrix:
 Charge =  0 Multiplicity = 1

                         Standard orientation:
 ---------------------------------------------------------------------
 Center     Atomic      Atomic             Coordinates (Angstroms)
 Number     Number       Type             X           Y           Z
 ---------------------------------------------------------------------
      1          6           0        0.667912    0.340203   -0.052105
      2          8           0        1.765406   -0.136309    0.057825
      3          6           0       -0.511148   -0.435684   -0.065055
      4          6           0       -1.748565    0.161482    0.059011
      5          1           0       -0.503299   -1.470849   -0.118604
      6          1           0       -1.717789    1.085485   -0.117818
      7          1           0       -2.899608   -0.421154    0.150132
      8          1           0        0.548257    1.500984   -0.027417
 ---------------------------------------------------------------------

 SCF Done:  E(RB2PLYPD3) =  -191.562744945     A.U. after   14 cycles
 E2(B2PLYPD3) =    -0.2491584704D+00 E(B2PLYPD3) =    -0.19181190341575D+03

 The electronic state is 1-A.
 Alpha  occ. eigenvalues --  -19.72572 -10.71674 -10.66732 -10.64327  -1.20156
 Alpha  occ. eigenvalues --   -0.93504  -0.75896  -0.67705  -0.57468  -0.55046
 Alpha  occ. eigenvalues --   -0.48989  -0.47976  -0.46796  -0.33881  -0.33826
 Alpha virt. eigenvalues --   -0.02661   0.04960   0.06868   0.08259   0.09592
 Alpha virt. eigenvalues --    0.11865   0.14096   0.15172   0.17485   0.19662
 Alpha virt. eigenvalues --    0.20075   0.21637   0.24257   0.25770   0.28780

 Mulliken charges:
               1
     1  C    0.138701
     2  O   -0.339608
     3  C   -0.015832
     4  C   -0.149045
     5  H    0.109787
     6  H    0.105005
     7  H    0.097232
     8  H    0.053760
 Sum of Mulliken charges =   0.00000

 Dipole moment (field-independent basis, Debye):
    X=             -3.5436    Y=              0.6964    Z=             -0.2712  Tot=              3.6216
 Quadrupole moment (field-independent basis, Debye-Ang):
   XX=            -26.8419   YY=            -22.1578   ZZ=            -25.2735
   XY=              1.3168   XZ=             -0.4092   YZ=             -0.0706

 Normal termination of Gaussian 09 at Wed Aug 26 14:21:20 2020.
