 Gaussian 09, Revision D.01,
 Gaussian 09:  ES64L-G09RevD.01 24-Apr-2013

 --------------------
 #p B2PLYPD3/Def2QZVP
 --------------------

 --------
 acrolein
 --------
 Symbolic Z-matrix:
 Charge =  0 Multiplicity = 1

                         Standard orientation:
 ---------------------------------------------------------------------
 Center     Atomic      Atomic             Coordinates (Angstroms)
 Number     Number       Type             X           Y           Z
 ---------------------------------------------------------------------
      1          6           0        0.648357    0.358358    0.033060
      2          8           0        1.770897   -0.135870   -0.062817
      3          6           0       -0.547807   -0.415090    0.096391
      4          6           0       -1.736581    0.123526   -0.075426
      5          1           0       -0.420116   -1.446273    0.104265
      6          1           0       -1.829170    1.201923    0.026981
      7          1           0       -2.662567   -0.472348   -0.111367
      8          1           0        0.560862    1.402894    0.158507
 ---------------------------------------------------------------------

 SCF Done:  E(RB2PLYPD3) =  -191.608888462     A.U. after   13 cycles
 E2(B2PLYPD3) =    -0.2473419671D+00 E(B2PLYPD3) =    -0.19185623042947D+03

 The electronic state is 1-A.
 Alpha  occ. eigenvalues --  -19.72443 -10.70790 -10.65649 -10.63417  -1.18252
 Alpha  occ. eigenvalues --   -0.94135  -0.76253  -0.68167  -0.57149  -0.56498
 Alpha  occ. eigenvalues --   -0.50381  -0.47180  -0.45895  -0.34836  -0.33978
 Alpha virt. eigenvalues --   -0.02139   0.05667   0.07155   0.08348   0.09812
 Alpha virt. eigenvalues --    0.12454   0.13914   0.15223   0.17896   0.19408
 Alpha virt. eigenvalues --    0.20067   0.21679   0.24764   0.26556   0.28800

 Mulliken charges:
               1
     1  C    0.154991
     2  O   -0.366552
     3  C   -0.036396
     4  C   -0.118497
     5  H    0.109746
     6  H    0.080402
     7  H    0.097541
     8  H    0.078764
 Sum of Mulliken charges =   0.00000

 Dipole moment (field-independent basis, Debye):
    X=             -3.6218    Y=              0.8292    Z=              0.2579  Tot=              3.7244
 Quadrupole moment (field-independent basis, Debye-Ang):
   XX=            -27.4682   YY=            -21.7480   ZZ=            -25.0136
   XY=              1.1866   XZ=              0.5133   YZ=              0.0918

 Normal termination of Gaussian 09 at Wed Aug 26 12:10:40 2020.
