 Gaussian 09, Revision D.01,
 Gaussian 09:  ES64L-G09RevD.01 24-Apr-2013

 --------------------
 #p B2PLYPD3/Def2QZVP
 --------------------

 --------
 acrolein
 --------
 Symbolic Z-matrix:
 Charge =  0 Multiplicity = 1

                         Standard orientation:
 ---------------------------------------------------------------------
 Center     Atomic      Atomic             Coordinates (Angstroms)
 Number     Number       Type             X           Y           Z
 ---------------------------------------------------------------------
      1          6           0       -0.659521   -0.340808    0.067552
      2          8           0       -1.811114    0.087710   -0.063008
      3          6           0        0.601466    0.495780    0.029285
      4          6           0        1.749984   -0.163893   -0.050773
      5          1           0        0.425339    1.627850    0.182852
      6          1           0        1.993424   -1.308019    0.028756
      7          1           0        2.509376    0.386122   -0.110892
      8          1           0       -0.590806   -1.354110    0.126962
 ---------------------------------------------------------------------

 SCF Done:  E(RB2PLYPD3) =  -191.574734929     A.U. after   13 cycles
 E2(B2PLYPD3) =    -0.2482654810D+00 E(B2PLYPD3) =    -0.19182300041046D+03

 The electronic state is 1-A.
 Alpha  occ. eigenvalues --  -19.72411 -10.70868 -10.65877 -10.64713  -1.17727
 Alpha  occ. eigenvalues --   -0.93134  -0.76305  -0.67332  -0.56823  -0.56042
 Alpha  occ. eigenvalues --   -0.50276  -0.46889  -0.45156  -0.34781  -0.33434
 Alpha virt. eigenvalues --   -0.01534   0.05511   0.06641   0.07709   0.09381
 Alpha virt. eigenvalues --    0.12395   0.14205   0.15160   0.17316   0.19378
 Alpha virt. eigenvalues --    0.20103   0.22334   0.24778   0.26412   0.28186

 Mulliken charges:
               1
     1  C    0.156147
     2  O   -0.364349
     3  C   -0.052769
     4  C   -0.131202
     5  H    0.104965
     6  H    0.091984
     7  H    0.106691
     8  H    0.088534
 Sum of Mulliken charges =   0.00000

 Dipole moment (field-independent basis, Debye):
    X=              3.6500    Y=             -0.7616    Z=              0.3737  Tot=              3.7473
 Quadrupole moment (field-independent basis, Debye-Ang):
   XX=            -27.9325   YY=            -21.1698   ZZ=            -25.2146
   XY=              0.4864   XZ=             -0.4374   YZ=              0.1270

 Normal termination of Gaussian 09 at Wed Aug 26 12:06:00 2020.
