 Gaussian 09, Revision D.01,
 Gaussian 09:  ES64L-G09RevD.01 24-Apr-2013

 --------------------
 #p B2PLYPD3/Def2QZVP
 --------------------

 --------
 acrolein
 --------
 Symbolic Z-matrix:
 Charge =  0 Multiplicity = 1

                         Standard orientation:
 ---------------------------------------------------------------------
 Center     Atomic      Atomic             Coordinates (Angstroms)
 Number     Number       Type             X           Y           Z
 ---------------------------------------------------------------------
      1          6           0       -0.652535   -0.325103   -0.053196
      2          8           0       -1.791944    0.090426    0.056121
      3          6           0        0.567291    0.457510   -0.067763
      4          6           0        1.747022   -0.175024    0.026552
      5          1           0        0.417641    1.681799   -0.071717
      6          1           0        1.833879   -1.193982   -0.071384
      7          1           0        2.683637    0.382048    0.263697
      8          1           0       -0.570272   -1.337573   -0.003118
 ---------------------------------------------------------------------

 SCF Done:  E(RB2PLYPD3) =  -191.592133696     A.U. after   14 cycles
 E2(B2PLYPD3) =    -0.2480015612D+00 E(B2PLYPD3) =    -0.19184013525762D+03

 The electronic state is 1-A.
 Alpha  occ. eigenvalues --  -19.72221 -10.70325 -10.66152 -10.65808  -1.18796
 Alpha  occ. eigenvalues --   -0.93228  -0.76165  -0.67244  -0.57734  -0.55586
 Alpha  occ. eigenvalues --   -0.49797  -0.46706  -0.45790  -0.34492  -0.33661
 Alpha virt. eigenvalues --   -0.02142   0.05682   0.06441   0.08131   0.09594
 Alpha virt. eigenvalues --    0.12533   0.14314   0.15255   0.16759   0.19519
 Alpha virt. eigenvalues --    0.20373   0.21681   0.24683   0.26756   0.28835

 Mulliken charges:
               1
     1  C    0.153164
     2  O   -0.358986
     3  C   -0.026452
     4  C   -0.130984
     5  H    0.093132
     6  H    0.096743
     7  H    0.102142
     8  H    0.071240
 Sum of Mulliken charges =   0.00000

 Dipole moment (field-independent basis, Debye):
    X=              3.6634    Y=             -0.7937    Z=             -0.0922  Tot=              3.7495
 Quadrupole moment (field-independent basis, Debye-Ang):
   XX=            -27.6354   YY=            -21.5945   ZZ=            -25.1912
   XY=              0.6563   XZ=              0.7644   YZ=              0.1357

 Normal termination of Gaussian 09 at Wed Aug 26 14:04:18 2020.
