 Gaussian 09, Revision D.01,
 Gaussian 09:  ES64L-G09RevD.01 24-Apr-2013

 --------------------
 #p B2PLYPD3/Def2QZVP
 --------------------

 --------
 acrolein
 --------
 Symbolic Z-matrix:
 Charge =  0 Multiplicity = 1

                         Standard orientation:
 ---------------------------------------------------------------------
 Center     Atomic      Atomic             Coordinates (Angstroms)
 Number     Number       Type             X           Y           Z
 ---------------------------------------------------------------------
      1          6           0       -0.669920    0.355884   -0.020332
      2          8           0       -1.791506   -0.134412    0.031552
      3          6           0        0.557816   -0.442545   -0.025967
      4          6           0        1.747383    0.129368    0.002807
      5          1           0        0.483708   -1.438904   -0.075422
      6          1           0        1.808351    1.237480    0.066247
      7          1           0        2.715065   -0.442300    0.110333
      8          1           0       -0.486750    1.462782   -0.092623
 ---------------------------------------------------------------------

 SCF Done:  E(RB2PLYPD3) =  -191.607704903     A.U. after   13 cycles
 E2(B2PLYPD3) =    -0.2478749246D+00 E(B2PLYPD3) =    -0.19185557982786D+03

 The electronic state is 1-A.
 Alpha  occ. eigenvalues --  -19.73025 -10.72080 -10.66011 -10.63365  -1.18793
 Alpha  occ. eigenvalues --   -0.93580  -0.75085  -0.67821  -0.56395  -0.56145
 Alpha  occ. eigenvalues --   -0.50568  -0.46877  -0.46336  -0.34917  -0.34012
 Alpha virt. eigenvalues --   -0.01880   0.05572   0.07267   0.08011   0.09711
 Alpha virt. eigenvalues --    0.12400   0.13740   0.15278   0.18061   0.19487
 Alpha virt. eigenvalues --    0.19803   0.21259   0.25448   0.26388   0.28939

 Mulliken charges:
               1
     1  C    0.152666
     2  O   -0.353884
     3  C   -0.036919
     4  C   -0.120731
     5  H    0.112457
     6  H    0.074824
     7  H    0.097465
     8  H    0.074122
 Sum of Mulliken charges =   0.00000

 Dipole moment (field-independent basis, Debye):
    X=              3.5249    Y=              0.7597    Z=             -0.0440  Tot=              3.6061
 Quadrupole moment (field-independent basis, Debye-Ang):
   XX=            -27.5186   YY=            -21.8433   ZZ=            -25.1729
   XY=             -1.1201   XZ=              0.4914   YZ=              0.0695

 Normal termination of Gaussian 09 at Wed Aug 26 08:56:45 2020.
