 Gaussian 09, Revision D.01,
 Gaussian 09:  ES64L-G09RevD.01 24-Apr-2013

 --------------------
 #p B2PLYPD3/Def2QZVP
 --------------------

 --------
 acrolein
 --------
 Symbolic Z-matrix:
 Charge =  0 Multiplicity = 1

                         Standard orientation:
 ---------------------------------------------------------------------
 Center     Atomic      Atomic             Coordinates (Angstroms)
 Number     Number       Type             X           Y           Z
 ---------------------------------------------------------------------
      1          6           0        0.665006    0.291835   -0.083169
      2          8           0        1.785306   -0.087342    0.074683
      3          6           0       -0.555466   -0.478192   -0.080558
      4          6           0       -1.748989    0.168588    0.016771
      5          1           0       -0.449112   -1.498464   -0.006146
      6          1           0       -1.769409    1.211842    0.064231
      7          1           0       -2.733263   -0.363400    0.256495
      8          1           0        0.506024    1.455371   -0.030315
 ---------------------------------------------------------------------

 SCF Done:  E(RB2PLYPD3) =  -191.603187049     A.U. after   13 cycles
 E2(B2PLYPD3) =    -0.2476649904D+00 E(B2PLYPD3) =    -0.19185085203898D+03

 The electronic state is 1-A.
 Alpha  occ. eigenvalues --  -19.72735 -10.71615 -10.66583 -10.64527  -1.20550
 Alpha  occ. eigenvalues --   -0.93235  -0.75578  -0.66939  -0.56547  -0.56272
 Alpha  occ. eigenvalues --   -0.50220  -0.47927  -0.47468  -0.34584  -0.33280
 Alpha virt. eigenvalues --   -0.02276   0.05697   0.07154   0.08404   0.09689
 Alpha virt. eigenvalues --    0.12557   0.13935   0.15284   0.17683   0.19509
 Alpha virt. eigenvalues --    0.20197   0.21286   0.24476   0.26547   0.28780

 Mulliken charges:
               1
     1  C    0.158047
     2  O   -0.336209
     3  C   -0.026279
     4  C   -0.119922
     5  H    0.106594
     6  H    0.093430
     7  H    0.096520
     8  H    0.027820
 Sum of Mulliken charges =   0.00000

 Dipole moment (field-independent basis, Debye):
    X=             -3.5479    Y=              0.4686    Z=              0.0124  Tot=              3.5787
 Quadrupole moment (field-independent basis, Debye-Ang):
   XX=            -27.1216   YY=            -22.1770   ZZ=            -25.1765
   XY=              0.5858   XZ=             -1.0965   YZ=             -0.0259

 Normal termination of Gaussian 09 at Wed Aug 26 13:12:29 2020.
