 Gaussian 09, Revision D.01,
 Gaussian 09:  ES64L-G09RevD.01 24-Apr-2013

 --------------------
 #p B2PLYPD3/Def2QZVP
 --------------------

 --------
 acrolein
 --------
 Symbolic Z-matrix:
 Charge =  0 Multiplicity = 1

                         Standard orientation:
 ---------------------------------------------------------------------
 Center     Atomic      Atomic             Coordinates (Angstroms)
 Number     Number       Type             X           Y           Z
 ---------------------------------------------------------------------
      1          6           0        0.685592    0.343872   -0.060978
      2          8           0        1.800098   -0.094987    0.075675
      3          6           0       -0.554923   -0.490639   -0.085657
      4          6           0       -1.794175    0.156710    0.050639
      5          1           0       -0.365133   -1.652282   -0.161976
      6          1           0       -1.932137    1.277219   -0.121712
      7          1           0       -2.638560   -0.417244    0.318429
      8          1           0        0.516082    1.492542   -0.064166
 ---------------------------------------------------------------------

 SCF Done:  E(RB2PLYPD3) =  -191.593516826     A.U. after   14 cycles
 E2(B2PLYPD3) =    -0.2503432124D+00 E(B2PLYPD3) =    -0.19184386003795D+03

 The electronic state is 1-A.
 Alpha  occ. eigenvalues --  -19.72860 -10.72207 -10.67161 -10.66896  -1.19811
 Alpha  occ. eigenvalues --   -0.90883  -0.74942  -0.65021  -0.55969  -0.55036
 Alpha  occ. eigenvalues --   -0.50026  -0.47596  -0.46165  -0.33707  -0.33101
 Alpha virt. eigenvalues --   -0.02488   0.05527   0.06612   0.07533   0.09475
 Alpha virt. eigenvalues --    0.12037   0.13850   0.15383   0.16800   0.19443
 Alpha virt. eigenvalues --    0.20012   0.21478   0.24119   0.26388   0.28312

 Mulliken charges:
               1
     1  C    0.165683
     2  O   -0.340529
     3  C   -0.052887
     4  C   -0.138169
     5  H    0.104559
     6  H    0.097533
     7  H    0.109096
     8  H    0.054715
 Sum of Mulliken charges =   0.00000

 Dipole moment (field-independent basis, Debye):
    X=             -3.4839    Y=              0.6425    Z=             -0.2133  Tot=              3.5491
 Quadrupole moment (field-independent basis, Debye-Ang):
   XX=            -27.5720   YY=            -21.6507   ZZ=            -25.5914
   XY=              0.4729   XZ=             -0.8977   YZ=             -0.1484

 Normal termination of Gaussian 09 at Wed Aug 26 11:26:38 2020.
