 Gaussian 09, Revision D.01,
 Gaussian 09:  ES64L-G09RevD.01 24-Apr-2013

 --------------------
 #p B2PLYPD3/Def2QZVP
 --------------------

 --------
 acrolein
 --------
 Symbolic Z-matrix:
 Charge =  0 Multiplicity = 1

                         Standard orientation:
 ---------------------------------------------------------------------
 Center     Atomic      Atomic             Coordinates (Angstroms)
 Number     Number       Type             X           Y           Z
 ---------------------------------------------------------------------
      1          6           0       -0.645369    0.369688   -0.085282
      2          8           0       -1.787595   -0.148410    0.067602
      3          6           0        0.538350   -0.406238   -0.024316
      4          6           0        1.749085    0.090507    0.016693
      5          1           0        0.417774   -1.442533   -0.088278
      6          1           0        1.747365    1.212689    0.304526
      7          1           0        2.645353   -0.481767   -0.009192
      8          1           0       -0.362136    1.575143   -0.190442
 ---------------------------------------------------------------------

 SCF Done:  E(RB2PLYPD3) =  -191.585768822     A.U. after   13 cycles
 E2(B2PLYPD3) =    -0.2517748137D+00 E(B2PLYPD3) =    -0.19183754363580D+03

 The electronic state is 1-A.
 Alpha  occ. eigenvalues --  -19.73587 -10.73455 -10.66074 -10.63507  -1.17026
 Alpha  occ. eigenvalues --   -0.94538  -0.76399  -0.65927  -0.57637  -0.54503
 Alpha  occ. eigenvalues --   -0.50364  -0.45919  -0.45695  -0.34912  -0.34259
 Alpha virt. eigenvalues --   -0.03094   0.05379   0.06705   0.07712   0.09962
 Alpha virt. eigenvalues --    0.12476   0.13001   0.15106   0.16897   0.19014
 Alpha virt. eigenvalues --    0.20296   0.21576   0.24499   0.26531   0.28724

 Mulliken charges:
               1
     1  C    0.167492
     2  O   -0.365846
     3  C   -0.015964
     4  C   -0.120104
     5  H    0.102766
     6  H    0.070713
     7  H    0.110797
     8  H    0.050146
 Sum of Mulliken charges =   0.00000

 Dipole moment (field-independent basis, Debye):
    X=              3.7235    Y=              0.6130    Z=             -0.1498  Tot=              3.7766
 Quadrupole moment (field-independent basis, Debye-Ang):
   XX=            -27.6271   YY=            -22.1770   ZZ=            -25.2002
   XY=             -1.2643   XZ=              0.6025   YZ=              0.3677

 Normal termination of Gaussian 09 at Wed Aug 26 12:47:41 2020.
