 Gaussian 09, Revision D.01,
 Gaussian 09:  ES64L-G09RevD.01 24-Apr-2013

 --------------------
 #p B2PLYPD3/Def2QZVP
 --------------------

 --------
 acrolein
 --------
 Symbolic Z-matrix:
 Charge =  0 Multiplicity = 1

                         Standard orientation:
 ---------------------------------------------------------------------
 Center     Atomic      Atomic             Coordinates (Angstroms)
 Number     Number       Type             X           Y           Z
 ---------------------------------------------------------------------
      1          6           0        0.673294    0.345116    0.030595
      2          8           0        1.800934   -0.108558   -0.031416
      3          6           0       -0.583377   -0.482707    0.055369
      4          6           0       -1.748747    0.159210   -0.019355
      5          1           0       -0.434584   -1.530262   -0.052296
      6          1           0       -1.878065    1.256457   -0.046551
      7          1           0       -2.652381   -0.420021   -0.074251
      8          1           0        0.510544    1.432573    0.024773
 ---------------------------------------------------------------------

 SCF Done:  E(RB2PLYPD3) =  -191.613261081     A.U. after   12 cycles
 E2(B2PLYPD3) =    -0.2475484387D+00 E(B2PLYPD3) =    -0.19186080951958D+03

 The electronic state is 1-A.
 Alpha  occ. eigenvalues --  -19.72836 -10.71727 -10.65618 -10.64628  -1.19054
 Alpha  occ. eigenvalues --   -0.92755  -0.74908  -0.67245  -0.56308  -0.56118
 Alpha  occ. eigenvalues --   -0.50707  -0.47142  -0.46284  -0.34779  -0.33589
 Alpha virt. eigenvalues --   -0.01504   0.05697   0.07251   0.07689   0.09669
 Alpha virt. eigenvalues --    0.12545   0.13790   0.15329   0.17626   0.19491
 Alpha virt. eigenvalues --    0.19982   0.21606   0.24987   0.26730   0.28421

 Mulliken charges:
               1
     1  C    0.158413
     2  O   -0.352041
     3  C   -0.053390
     4  C   -0.125356
     5  H    0.112508
     6  H    0.089878
     7  H    0.096408
     8  H    0.073580
 Sum of Mulliken charges =   0.00000

 Dipole moment (field-independent basis, Debye):
    X=             -3.4929    Y=              0.7492    Z=             -0.0404  Tot=              3.5726
 Quadrupole moment (field-independent basis, Debye-Ang):
   XX=            -27.7298   YY=            -21.5570   ZZ=            -25.2647
   XY=              0.6695   XZ=              0.4439   YZ=              0.0950

 Normal termination of Gaussian 09 at Wed Aug 26 08:30:18 2020.
