 Gaussian 09, Revision D.01,
 Gaussian 09:  ES64L-G09RevD.01 24-Apr-2013

 --------------------
 #p B2PLYPD3/Def2QZVP
 --------------------

 --------
 acrolein
 --------
 Symbolic Z-matrix:
 Charge =  0 Multiplicity = 1

                         Standard orientation:
 ---------------------------------------------------------------------
 Center     Atomic      Atomic             Coordinates (Angstroms)
 Number     Number       Type             X           Y           Z
 ---------------------------------------------------------------------
      1          6           0        0.662507    0.353878    0.017744
      2          8           0        1.791812   -0.111359   -0.016840
      3          6           0       -0.568526   -0.480344    0.039902
      4          6           0       -1.736546    0.157170   -0.025482
      5          1           0       -0.443554   -1.548477   -0.052707
      6          1           0       -1.860391    1.251029    0.000467
      7          1           0       -2.675499   -0.417792   -0.006920
      8          1           0        0.500347    1.421894    0.000888
 ---------------------------------------------------------------------

 SCF Done:  E(RB2PLYPD3) =  -191.613575557     A.U. after   12 cycles
 E2(B2PLYPD3) =    -0.2477471331D+00 E(B2PLYPD3) =    -0.19186132268979D+03

 The electronic state is 1-A.
 Alpha  occ. eigenvalues --  -19.72668 -10.71486 -10.65818 -10.64635  -1.18712
 Alpha  occ. eigenvalues --   -0.92900  -0.74933  -0.67442  -0.56407  -0.55964
 Alpha  occ. eigenvalues --   -0.50409  -0.46862  -0.46182  -0.34727  -0.33709
 Alpha virt. eigenvalues --   -0.01600   0.05650   0.07145   0.07644   0.09670
 Alpha virt. eigenvalues --    0.12542   0.13910   0.15268   0.17580   0.19664
 Alpha virt. eigenvalues --    0.19959   0.21499   0.25081   0.26706   0.28548

 Mulliken charges:
               1
     1  C    0.155087
     2  O   -0.356457
     3  C   -0.047967
     4  C   -0.125319
     5  H    0.113051
     6  H    0.086996
     7  H    0.093637
     8  H    0.080972
 Sum of Mulliken charges =   0.00000

 Dipole moment (field-independent basis, Debye):
    X=             -3.5288    Y=              0.7892    Z=              0.0039  Tot=              3.6160
 Quadrupole moment (field-independent basis, Debye-Ang):
   XX=            -27.7963   YY=            -21.4701   ZZ=            -25.2732
   XY=              0.7380   XZ=              0.1242   YZ=              0.1073

 Normal termination of Gaussian 09 at Wed Aug 26 08:36:37 2020.
