 Gaussian 09, Revision D.01,
 Gaussian 09:  ES64L-G09RevD.01 24-Apr-2013

 --------------------
 #p B2PLYPD3/Def2QZVP
 --------------------

 --------
 acrolein
 --------
 Symbolic Z-matrix:
 Charge =  0 Multiplicity = 1

                         Standard orientation:
 ---------------------------------------------------------------------
 Center     Atomic      Atomic             Coordinates (Angstroms)
 Number     Number       Type             X           Y           Z
 ---------------------------------------------------------------------
      1          6           0        0.679515    0.358948   -0.002875
      2          8           0        1.782080   -0.131572    0.009965
      3          6           0       -0.559005   -0.450883   -0.019512
      4          6           0       -1.752063    0.136622   -0.000985
      5          1           0       -0.455225   -1.500259    0.015059
      6          1           0       -1.816862    1.214723    0.047694
      7          1           0       -2.683348   -0.421895    0.035172
      8          1           0        0.488113    1.491885   -0.037403
 ---------------------------------------------------------------------

 SCF Done:  E(RB2PLYPD3) =  -191.615223742     A.U. after   12 cycles
 E2(B2PLYPD3) =    -0.2471982732D+00 E(B2PLYPD3) =    -0.19186242201490D+03

 The electronic state is 1-A.
 Alpha  occ. eigenvalues --  -19.73073 -10.72148 -10.65283 -10.64032  -1.19929
 Alpha  occ. eigenvalues --   -0.92943  -0.75004  -0.66878  -0.56544  -0.56167
 Alpha  occ. eigenvalues --   -0.50733  -0.47105  -0.46927  -0.34700  -0.33853
 Alpha virt. eigenvalues --   -0.01562   0.05768   0.07190   0.08064   0.09792
 Alpha virt. eigenvalues --    0.12541   0.13835   0.15385   0.17568   0.19740
 Alpha virt. eigenvalues --    0.20011   0.21474   0.25533   0.26353   0.28751

 Mulliken charges:
               1
     1  C    0.157793
     2  O   -0.341994
     3  C   -0.041245
     4  C   -0.129260
     5  H    0.107874
     6  H    0.081262
     7  H    0.100925
     8  H    0.064646
 Sum of Mulliken charges =   0.00000

 Dipole moment (field-independent basis, Debye):
    X=             -3.3959    Y=              0.7390    Z=              0.0498  Tot=              3.4758
 Quadrupole moment (field-independent basis, Debye-Ang):
   XX=            -27.3671   YY=            -21.8209   ZZ=            -25.2263
   XY=              0.9798   XZ=             -0.2276   YZ=             -0.0085

 Normal termination of Gaussian 09 at Wed Aug 26 19:39:22 2020.
