 Gaussian 09, Revision D.01,
 Gaussian 09:  ES64L-G09RevD.01 24-Apr-2013

 --------------------
 #p B2PLYPD3/Def2QZVP
 --------------------

 --------
 acrolein
 --------
 Symbolic Z-matrix:
 Charge =  0 Multiplicity = 1

                         Standard orientation:
 ---------------------------------------------------------------------
 Center     Atomic      Atomic             Coordinates (Angstroms)
 Number     Number       Type             X           Y           Z
 ---------------------------------------------------------------------
      1          6           0       -0.666667    0.347987   -0.014277
      2          8           0       -1.809694   -0.107817    0.030914
      3          6           0        0.578981   -0.475114   -0.055445
      4          6           0        1.769258    0.139047    0.021963
      5          1           0        0.435858   -1.599234   -0.022134
      6          1           0        1.872592    1.300173   -0.003379
      7          1           0        2.555568   -0.400278    0.130861
      8          1           0       -0.475904    1.490356   -0.066110
 ---------------------------------------------------------------------

 SCF Done:  E(RB2PLYPD3) =  -191.593566857     A.U. after   13 cycles
 E2(B2PLYPD3) =    -0.2493333021D+00 E(B2PLYPD3) =    -0.19184290015901D+03

 The electronic state is 1-A.
 Alpha  occ. eigenvalues --  -19.73103 -10.72626 -10.65531 -10.65263  -1.18345
 Alpha  occ. eigenvalues --   -0.92877  -0.75965  -0.65527  -0.57394  -0.54986
 Alpha  occ. eigenvalues --   -0.50456  -0.46804  -0.46005  -0.34654  -0.33777
 Alpha virt. eigenvalues --   -0.02037   0.05578   0.06853   0.07678   0.09594
 Alpha virt. eigenvalues --    0.12341   0.13915   0.15279   0.16826   0.19467
 Alpha virt. eigenvalues --    0.19956   0.22248   0.24819   0.26391   0.28458

 Mulliken charges:
               1
     1  C    0.166715
     2  O   -0.353610
     3  C   -0.046513
     4  C   -0.128373
     5  H    0.100836
     6  H    0.085818
     7  H    0.112043
     8  H    0.063084
 Sum of Mulliken charges =   0.00000

 Dipole moment (field-independent basis, Debye):
    X=              3.5893    Y=              0.6714    Z=             -0.0090  Tot=              3.6515
 Quadrupole moment (field-independent basis, Debye-Ang):
   XX=            -27.8171   YY=            -21.5504   ZZ=            -25.3944
   XY=             -0.7217   XZ=              0.4773   YZ=             -0.1100

 Normal termination of Gaussian 09 at Wed Aug 26 21:10:54 2020.
