 Gaussian 09, Revision D.01,
 Gaussian 09:  ES64L-G09RevD.01 24-Apr-2013

 --------------------
 #p B2PLYPD3/Def2QZVP
 --------------------

 --------
 acrolein
 --------
 Symbolic Z-matrix:
 Charge =  0 Multiplicity = 1

                         Standard orientation:
 ---------------------------------------------------------------------
 Center     Atomic      Atomic             Coordinates (Angstroms)
 Number     Number       Type             X           Y           Z
 ---------------------------------------------------------------------
      1          6           0        0.668896    0.348167    0.018926
      2          8           0        1.785550   -0.123389   -0.013740
      3          6           0       -0.555695   -0.447398    0.012609
      4          6           0       -1.747872    0.133776   -0.016077
      5          1           0       -0.451462   -1.487524   -0.002570
      6          1           0       -1.817928    1.203535   -0.026645
      7          1           0       -2.679158   -0.409519    0.024673
      8          1           0        0.472172    1.473348    0.021721
 ---------------------------------------------------------------------

 SCF Done:  E(RB2PLYPD3) =  -191.615180063     A.U. after   12 cycles
 E2(B2PLYPD3) =    -0.2471785324D+00 E(B2PLYPD3) =    -0.19186235859574D+03

 The electronic state is 1-A.
 Alpha  occ. eigenvalues --  -19.72974 -10.71928 -10.65257 -10.63850  -1.19501
 Alpha  occ. eigenvalues --   -0.93441  -0.75584  -0.67150  -0.56776  -0.56307
 Alpha  occ. eigenvalues --   -0.50698  -0.47212  -0.46851  -0.34829  -0.33868
 Alpha virt. eigenvalues --   -0.01813   0.05767   0.07238   0.08251   0.09795
 Alpha virt. eigenvalues --    0.12623   0.13910   0.15356   0.17584   0.19850
 Alpha virt. eigenvalues --    0.19973   0.21546   0.25612   0.26397   0.28828

 Mulliken charges:
               1
     1  C    0.155634
     2  O   -0.347927
     3  C   -0.031891
     4  C   -0.128029
     5  H    0.107454
     6  H    0.081637
     7  H    0.101329
     8  H    0.061794
 Sum of Mulliken charges =   0.00000

 Dipole moment (field-independent basis, Debye):
    X=             -3.5179    Y=              0.7069    Z=              0.0548  Tot=              3.5887
 Quadrupole moment (field-independent basis, Debye-Ang):
   XX=            -27.3056   YY=            -21.8933   ZZ=            -25.1503
   XY=              0.8897   XZ=              0.0430   YZ=             -0.0269

 Normal termination of Gaussian 09 at Wed Aug 26 14:51:23 2020.
