 Gaussian 09, Revision D.01,
 Gaussian 09:  ES64L-G09RevD.01 24-Apr-2013

 --------------------
 #p B2PLYPD3/Def2QZVP
 --------------------

 --------
 acrolein
 --------
 Symbolic Z-matrix:
 Charge =  0 Multiplicity = 1

                         Standard orientation:
 ---------------------------------------------------------------------
 Center     Atomic      Atomic             Coordinates (Angstroms)
 Number     Number       Type             X           Y           Z
 ---------------------------------------------------------------------
      1          6           0       -0.684128    0.368686    0.057960
      2          8           0       -1.745858   -0.149618   -0.053515
      3          6           0        0.552400   -0.431843    0.040214
      4          6           0        1.744075    0.174430   -0.056374
      5          1           0        0.384706   -1.517850    0.138142
      6          1           0        1.663044    1.119311    0.087342
      7          1           0        2.878632   -0.472629   -0.080234
      8          1           0       -0.633604    1.400472    0.032076
 ---------------------------------------------------------------------

 SCF Done:  E(RB2PLYPD3) =  -191.569885860     A.U. after   13 cycles
 E2(B2PLYPD3) =    -0.2468417970D+00 E(B2PLYPD3) =    -0.19181672765714D+03

 The electronic state is 1-A.
 Alpha  occ. eigenvalues --  -19.72493 -10.70485 -10.65877 -10.64436  -1.21084
 Alpha  occ. eigenvalues --   -0.93011  -0.74742  -0.68540  -0.57983  -0.54701
 Alpha  occ. eigenvalues --   -0.49741  -0.47640  -0.46100  -0.34312  -0.33825
 Alpha virt. eigenvalues --   -0.01296   0.05059   0.06969   0.08028   0.09818
 Alpha virt. eigenvalues --    0.11903   0.13824   0.15271   0.17596   0.19590
 Alpha virt. eigenvalues --    0.20381   0.21023   0.25104   0.26245   0.28432

 Mulliken charges:
               1
     1  C    0.146953
     2  O   -0.338129
     3  C   -0.034451
     4  C   -0.154121
     5  H    0.104569
     6  H    0.099642
     7  H    0.097934
     8  H    0.077602
 Sum of Mulliken charges =   0.00000

 Dipole moment (field-independent basis, Debye):
    X=              3.0822    Y=              0.8982    Z=              0.3348  Tot=              3.2279
 Quadrupole moment (field-independent basis, Debye-Ang):
   XX=            -27.3719   YY=            -21.7622   ZZ=            -25.2102
   XY=             -1.5421   XZ=             -0.2409   YZ=             -0.0026

 Normal termination of Gaussian 09 at Wed Aug 26 12:52:09 2020.
