 Gaussian 09, Revision D.01,
 Gaussian 09:  ES64L-G09RevD.01 24-Apr-2013

 --------------------
 #p B2PLYPD3/Def2QZVP
 --------------------

 --------
 acrolein
 --------
 Symbolic Z-matrix:
 Charge =  0 Multiplicity = 1

                         Standard orientation:
 ---------------------------------------------------------------------
 Center     Atomic      Atomic             Coordinates (Angstroms)
 Number     Number       Type             X           Y           Z
 ---------------------------------------------------------------------
      1          6           0        0.655262    0.335634   -0.010879
      2          8           0        1.799738   -0.094422   -0.001736
      3          6           0       -0.566066   -0.474477   -0.012524
      4          6           0       -1.746167    0.157403    0.004524
      5          1           0       -0.386703   -1.625906    0.045572
      6          1           0       -1.878374    1.258636   -0.074745
      7          1           0       -2.687418   -0.411750    0.040127
      8          1           0        0.496415    1.423036    0.116208
 ---------------------------------------------------------------------

 SCF Done:  E(RB2PLYPD3) =  -191.608125584     A.U. after   13 cycles
 E2(B2PLYPD3) =    -0.2487192349D+00 E(B2PLYPD3) =    -0.19185684481849D+03

 The electronic state is 1-A.
 Alpha  occ. eigenvalues --  -19.72663 -10.71524 -10.66390 -10.65671  -1.18646
 Alpha  occ. eigenvalues --   -0.92885  -0.75295  -0.66050  -0.56483  -0.55574
 Alpha  occ. eigenvalues --   -0.50027  -0.46341  -0.46110  -0.34749  -0.33665
 Alpha virt. eigenvalues --   -0.01999   0.05595   0.06628   0.07897   0.09616
 Alpha virt. eigenvalues --    0.12466   0.14049   0.15201   0.16913   0.19495
 Alpha virt. eigenvalues --    0.20150   0.21493   0.24868   0.26799   0.28467

 Mulliken charges:
               1
     1  C    0.160916
     2  O   -0.356913
     3  C   -0.040495
     4  C   -0.125643
     5  H    0.103896
     6  H    0.091408
     7  H    0.100122
     8  H    0.066708
 Sum of Mulliken charges =   0.00000

 Dipole moment (field-independent basis, Debye):
    X=             -3.6350    Y=              0.6963    Z=              0.0427  Tot=              3.7013
 Quadrupole moment (field-independent basis, Debye-Ang):
   XX=            -27.6712   YY=            -21.6164   ZZ=            -25.3828
   XY=              0.5031   XZ=              0.0336   YZ=             -0.1461

 Normal termination of Gaussian 09 at Wed Aug 26 09:18:43 2020.
