 Gaussian 09, Revision D.01,
 Gaussian 09:  ES64L-G09RevD.01 24-Apr-2013

 --------------------
 #p B2PLYPD3/Def2QZVP
 --------------------

 --------
 acrolein
 --------
 Symbolic Z-matrix:
 Charge =  0 Multiplicity = 1

                         Standard orientation:
 ---------------------------------------------------------------------
 Center     Atomic      Atomic             Coordinates (Angstroms)
 Number     Number       Type             X           Y           Z
 ---------------------------------------------------------------------
      1          6           0       -0.663701    0.359888   -0.029506
      2          8           0       -1.786054   -0.130296    0.025000
      3          6           0        0.556895   -0.444761   -0.026671
      4          6           0        1.756892    0.135119    0.007494
      5          1           0        0.424024   -1.523703   -0.008634
      6          1           0        1.815736    1.207079    0.031607
      7          1           0        2.644360   -0.441865    0.073364
      8          1           0       -0.496203    1.499383   -0.004246
 ---------------------------------------------------------------------

 SCF Done:  E(RB2PLYPD3) =  -191.613980845     A.U. after   12 cycles
 E2(B2PLYPD3) =    -0.2482234059D+00 E(B2PLYPD3) =    -0.19186220425075D+03

 The electronic state is 1-A.
 Alpha  occ. eigenvalues --  -19.72945 -10.72197 -10.65244 -10.64462  -1.18699
 Alpha  occ. eigenvalues --   -0.93236  -0.75647  -0.66509  -0.56740  -0.56096
 Alpha  occ. eigenvalues --   -0.50316  -0.47119  -0.46425  -0.34663  -0.33906
 Alpha virt. eigenvalues --   -0.02017   0.05755   0.06991   0.08037   0.09834
 Alpha virt. eigenvalues --    0.12531   0.13781   0.15323   0.17255   0.19882
 Alpha virt. eigenvalues --    0.19930   0.21772   0.25408   0.26382   0.28897

 Mulliken charges:
               1
     1  C    0.158776
     2  O   -0.354920
     3  C   -0.034775
     4  C   -0.130494
     5  H    0.105856
     6  H    0.085801
     7  H    0.105728
     8  H    0.064028
 Sum of Mulliken charges =   0.00000

 Dipole moment (field-independent basis, Debye):
    X=              3.5454    Y=              0.7484    Z=             -0.0046  Tot=              3.6236
 Quadrupole moment (field-independent basis, Debye-Ang):
   XX=            -27.5519   YY=            -21.7153   ZZ=            -25.2581
   XY=             -0.9908   XZ=              0.3469   YZ=             -0.0041

 Normal termination of Gaussian 09 at Wed Aug 26 20:19:54 2020.
