 Gaussian 09, Revision D.01,
 Gaussian 09:  ES64L-G09RevD.01 24-Apr-2013

 --------------------
 #p B2PLYPD3/Def2QZVP
 --------------------

 --------
 acrolein
 --------
 Symbolic Z-matrix:
 Charge =  0 Multiplicity = 1

                         Standard orientation:
 ---------------------------------------------------------------------
 Center     Atomic      Atomic             Coordinates (Angstroms)
 Number     Number       Type             X           Y           Z
 ---------------------------------------------------------------------
      1          6           0        0.677916    0.348861   -0.013431
      2          8           0        1.783194   -0.122065    0.016719
      3          6           0       -0.557247   -0.438367   -0.021617
      4          6           0       -1.757839    0.134045    0.016984
      5          1           0       -0.452037   -1.524578   -0.034122
      6          1           0       -1.840179    1.215427   -0.029818
      7          1           0       -2.658382   -0.410695    0.052714
      8          1           0        0.508066    1.429136   -0.014140
 ---------------------------------------------------------------------

 SCF Done:  E(RB2PLYPD3) =  -191.616938630     A.U. after   12 cycles
 E2(B2PLYPD3) =    -0.2464351961D+00 E(B2PLYPD3) =    -0.19186337382570D+03

 The electronic state is 1-A.
 Alpha  occ. eigenvalues --  -19.72836 -10.71331 -10.65104 -10.64253  -1.20085
 Alpha  occ. eigenvalues --   -0.93063  -0.75828  -0.67007  -0.56906  -0.56537
 Alpha  occ. eigenvalues --   -0.51026  -0.47174  -0.46592  -0.34701  -0.33904
 Alpha virt. eigenvalues --   -0.01678   0.05824   0.07242   0.08405   0.09752
 Alpha virt. eigenvalues --    0.12639   0.14167   0.15392   0.17470   0.19799
 Alpha virt. eigenvalues --    0.19963   0.21767   0.25555   0.26502   0.28701

 Mulliken charges:
               1
     1  C    0.156145
     2  O   -0.343545
     3  C   -0.035525
     4  C   -0.132516
     5  H    0.100511
     6  H    0.080101
     7  H    0.104983
     8  H    0.069846
 Sum of Mulliken charges =   0.00000

 Dipole moment (field-independent basis, Debye):
    X=             -3.4470    Y=              0.7593    Z=             -0.0653  Tot=              3.5302
 Quadrupole moment (field-independent basis, Debye-Ang):
   XX=            -27.2587   YY=            -21.8398   ZZ=            -25.1370
   XY=              0.9525   XZ=             -0.1500   YZ=             -0.0359

 Normal termination of Gaussian 09 at Wed Aug 26 15:41:14 2020.
