 Gaussian 09, Revision D.01,
 Gaussian 09:  ES64L-G09RevD.01 24-Apr-2013

 --------------------
 #p B2PLYPD3/Def2QZVP
 --------------------

 --------
 acrolein
 --------
 Symbolic Z-matrix:
 Charge =  0 Multiplicity = 1

                         Standard orientation:
 ---------------------------------------------------------------------
 Center     Atomic      Atomic             Coordinates (Angstroms)
 Number     Number       Type             X           Y           Z
 ---------------------------------------------------------------------
      1          6           0       -0.652664    0.317169   -0.020749
      2          8           0       -1.806374   -0.090198    0.029453
      3          6           0        0.561972   -0.463892   -0.031591
      4          6           0        1.747183    0.151552    0.024450
      5          1           0        0.464765   -1.578847   -0.076765
      6          1           0        1.896429    1.259238   -0.034127
      7          1           0        2.612228   -0.414253    0.102370
      8          1           0       -0.461371    1.426473   -0.059758
 ---------------------------------------------------------------------

 SCF Done:  E(RB2PLYPD3) =  -191.610465052     A.U. after   13 cycles
 E2(B2PLYPD3) =    -0.2483336582D+00 E(B2PLYPD3) =    -0.19185879871025D+03

 The electronic state is 1-A.
 Alpha  occ. eigenvalues --  -19.72705 -10.71612 -10.65891 -10.65047  -1.18505
 Alpha  occ. eigenvalues --   -0.93560  -0.76302  -0.66163  -0.56855  -0.56005
 Alpha  occ. eigenvalues --   -0.50149  -0.47226  -0.46178  -0.34799  -0.33677
 Alpha virt. eigenvalues --   -0.02284   0.05666   0.06786   0.08345   0.09617
 Alpha virt. eigenvalues --    0.12602   0.14068   0.15211   0.17172   0.19747
 Alpha virt. eigenvalues --    0.20021   0.21813   0.25158   0.26499   0.28335

 Mulliken charges:
               1
     1  C    0.156940
     2  O   -0.356305
     3  C   -0.026575
     4  C   -0.124569
     5  H    0.098464
     6  H    0.090432
     7  H    0.104118
     8  H    0.057496
 Sum of Mulliken charges =   0.00000

 Dipole moment (field-independent basis, Debye):
    X=              3.7748    Y=              0.6040    Z=             -0.1183  Tot=              3.8246
 Quadrupole moment (field-independent basis, Debye-Ang):
   XX=            -27.5436   YY=            -21.7494   ZZ=            -25.2417
   XY=             -0.5632   XZ=              0.2984   YZ=             -0.0194

 Normal termination of Gaussian 09 at Wed Aug 26 10:20:58 2020.
