 Gaussian 09, Revision D.01,
 Gaussian 09:  ES64L-G09RevD.01 24-Apr-2013

 --------------------
 #p B2PLYPD3/Def2QZVP
 --------------------

 --------
 acrolein
 --------
 Symbolic Z-matrix:
 Charge =  0 Multiplicity = 1

                         Standard orientation:
 ---------------------------------------------------------------------
 Center     Atomic      Atomic             Coordinates (Angstroms)
 Number     Number       Type             X           Y           Z
 ---------------------------------------------------------------------
      1          6           0        0.680616    0.354403   -0.008047
      2          8           0        1.782245   -0.116006    0.035483
      3          6           0       -0.549275   -0.461427   -0.072998
      4          6           0       -1.774211    0.160592    0.044031
      5          1           0       -0.423127   -1.486555   -0.042968
      6          1           0       -1.767880    1.209380   -0.093867
      7          1           0       -2.778478   -0.418839    0.140931
      8          1           0        0.568745    1.302661   -0.065874
 ---------------------------------------------------------------------

 SCF Done:  E(RB2PLYPD3) =  -191.589665724     A.U. after   13 cycles
 E2(B2PLYPD3) =    -0.2468362003D+00 E(B2PLYPD3) =    -0.19183650192389D+03

 The electronic state is 1-A.
 Alpha  occ. eigenvalues --  -19.72347 -10.69768 -10.66631 -10.64329  -1.20082
 Alpha  occ. eigenvalues --   -0.92103  -0.75737  -0.69783  -0.57382  -0.55474
 Alpha  occ. eigenvalues --   -0.50358  -0.47751  -0.46769  -0.33983  -0.33680
 Alpha virt. eigenvalues --   -0.01990   0.05581   0.07512   0.07945   0.09661
 Alpha virt. eigenvalues --    0.12483   0.13946   0.15336   0.18043   0.19890
 Alpha virt. eigenvalues --    0.20062   0.21021   0.24497   0.26790   0.29077

 Mulliken charges:
               1
     1  C    0.159980
     2  O   -0.351579
     3  C   -0.050945
     4  C   -0.143730
     5  H    0.112969
     6  H    0.088807
     7  H    0.100211
     8  H    0.084287
 Sum of Mulliken charges =   0.00000

 Dipole moment (field-independent basis, Debye):
    X=             -3.4037    Y=              0.8651    Z=             -0.1024  Tot=              3.5134
 Quadrupole moment (field-independent basis, Debye-Ang):
   XX=            -27.4236   YY=            -21.6391   ZZ=            -25.1852
   XY=              1.1251   XZ=             -0.4079   YZ=             -0.2065

 Normal termination of Gaussian 09 at Wed Aug 26 14:08:42 2020.
