 Gaussian 09, Revision D.01,
 Gaussian 09:  ES64L-G09RevD.01 24-Apr-2013

 --------------------
 #p B2PLYPD3/Def2QZVP
 --------------------

 --------
 acrolein
 --------
 Symbolic Z-matrix:
 Charge =  0 Multiplicity = 1

                         Standard orientation:
 ---------------------------------------------------------------------
 Center     Atomic      Atomic             Coordinates (Angstroms)
 Number     Number       Type             X           Y           Z
 ---------------------------------------------------------------------
      1          6           0       -0.673429    0.349624    0.049031
      2          8           0       -1.774592   -0.119451   -0.043720
      3          6           0        0.565461   -0.459917    0.021846
      4          6           0        1.746319    0.158142   -0.035063
      5          1           0        0.450071   -1.548759    0.092045
      6          1           0        1.785066    1.222581   -0.041469
      7          1           0        2.715513   -0.389195   -0.014389
      8          1           0       -0.584016    1.383886    0.098689
 ---------------------------------------------------------------------

 SCF Done:  E(RB2PLYPD3) =  -191.613056483     A.U. after   12 cycles
 E2(B2PLYPD3) =    -0.2461913639D+00 E(B2PLYPD3) =    -0.19185924784689D+03

 The electronic state is 1-A.
 Alpha  occ. eigenvalues --  -19.72472 -10.70695 -10.65409 -10.64529  -1.20022
 Alpha  occ. eigenvalues --   -0.92730  -0.75076  -0.67874  -0.57198  -0.55982
 Alpha  occ. eigenvalues --   -0.50586  -0.47074  -0.46620  -0.34576  -0.33762
 Alpha virt. eigenvalues --   -0.01350   0.05788   0.07184   0.08154   0.09704
 Alpha virt. eigenvalues --    0.12566   0.14256   0.15343   0.17564   0.19771
 Alpha virt. eigenvalues --    0.20047   0.21341   0.25417   0.26487   0.29278

 Mulliken charges:
               1
     1  C    0.151028
     2  O   -0.345593
     3  C   -0.041818
     4  C   -0.133565
     5  H    0.105440
     6  H    0.084607
     7  H    0.099140
     8  H    0.080759
 Sum of Mulliken charges =   0.00000

 Dipole moment (field-independent basis, Debye):
    X=              3.3627    Y=              0.8300    Z=              0.2283  Tot=              3.4712
 Quadrupole moment (field-independent basis, Debye-Ang):
   XX=            -27.4656   YY=            -21.5944   ZZ=            -25.1722
   XY=             -1.0368   XZ=             -0.2665   YZ=             -0.1309

 Normal termination of Gaussian 09 at Wed Aug 26 09:43:49 2020.
