 Gaussian 09, Revision D.01,
 Gaussian 09:  ES64L-G09RevD.01 24-Apr-2013

 --------------------
 #p B2PLYPD3/Def2QZVP
 --------------------

 --------
 acrolein
 --------
 Symbolic Z-matrix:
 Charge =  0 Multiplicity = 1

                         Standard orientation:
 ---------------------------------------------------------------------
 Center     Atomic      Atomic             Coordinates (Angstroms)
 Number     Number       Type             X           Y           Z
 ---------------------------------------------------------------------
      1          6           0       -0.673974    0.345848    0.015654
      2          8           0       -1.784860   -0.111706   -0.010988
      3          6           0        0.563466   -0.457300    0.011632
      4          6           0        1.753631    0.152585   -0.014533
      5          1           0        0.439853   -1.580409   -0.010824
      6          1           0        1.842296    1.258167   -0.020105
      7          1           0        2.671733   -0.424723    0.026324
      8          1           0       -0.533738    1.393819    0.015990
 ---------------------------------------------------------------------

 SCF Done:  E(RB2PLYPD3) =  -191.613746983     A.U. after   12 cycles
 E2(B2PLYPD3) =    -0.2467930743D+00 E(B2PLYPD3) =    -0.19186054005748D+03

 The electronic state is 1-A.
 Alpha  occ. eigenvalues --  -19.72608 -10.70904 -10.65785 -10.64889  -1.19947
 Alpha  occ. eigenvalues --   -0.92630  -0.75311  -0.67003  -0.56586  -0.56123
 Alpha  occ. eigenvalues --   -0.50548  -0.46951  -0.46449  -0.34614  -0.33771
 Alpha virt. eigenvalues --   -0.01566   0.05725   0.07026   0.08231   0.09680
 Alpha virt. eigenvalues --    0.12540   0.14094   0.15377   0.17368   0.19581
 Alpha virt. eigenvalues --    0.19961   0.21592   0.25448   0.26610   0.28718

 Mulliken charges:
               1
     1  C    0.157948
     2  O   -0.346081
     3  C   -0.043009
     4  C   -0.133131
     5  H    0.100764
     6  H    0.084935
     7  H    0.103357
     8  H    0.075218
 Sum of Mulliken charges =   0.00000

 Dipole moment (field-independent basis, Debye):
    X=              3.4315    Y=              0.7777    Z=              0.0443  Tot=              3.5188
 Quadrupole moment (field-independent basis, Debye-Ang):
   XX=            -27.5427   YY=            -21.5952   ZZ=            -25.2584
   XY=             -0.8874   XZ=             -0.0239   YZ=             -0.0102

 Normal termination of Gaussian 09 at Wed Aug 26 09:01:47 2020.
