 Gaussian 09, Revision D.01,
 Gaussian 09:  ES64L-G09RevD.01 24-Apr-2013

 --------------------
 #p B2PLYPD3/Def2QZVP
 --------------------

 --------
 acrolein
 --------
 Symbolic Z-matrix:
 Charge =  0 Multiplicity = 1

                         Standard orientation:
 ---------------------------------------------------------------------
 Center     Atomic      Atomic             Coordinates (Angstroms)
 Number     Number       Type             X           Y           Z
 ---------------------------------------------------------------------
      1          6           0        0.667484   -0.350533    0.066306
      2          8           0        1.774224    0.107078   -0.058519
      3          6           0       -0.548851    0.455410    0.071446
      4          6           0       -1.753299   -0.148342   -0.072738
      5          1           0       -0.373669    1.609319   -0.034610
      6          1           0       -1.856195   -1.220553   -0.101095
      7          1           0       -2.773135    0.363781    0.087713
      8          1           0        0.617202   -1.348385    0.126062
 ---------------------------------------------------------------------

 SCF Done:  E(RB2PLYPD3) =  -191.594662121     A.U. after   13 cycles
 E2(B2PLYPD3) =    -0.2476289674D+00 E(B2PLYPD3) =    -0.19184229108833D+03

 The electronic state is 1-A.
 Alpha  occ. eigenvalues --  -19.72259 -10.70091 -10.66561 -10.65698  -1.19780
 Alpha  occ. eigenvalues --   -0.92270  -0.75477  -0.67930  -0.57397  -0.55108
 Alpha  occ. eigenvalues --   -0.50123  -0.46826  -0.45630  -0.34537  -0.33537
 Alpha virt. eigenvalues --   -0.02201   0.05571   0.07050   0.08058   0.09627
 Alpha virt. eigenvalues --    0.12259   0.13929   0.15668   0.17439   0.19089
 Alpha virt. eigenvalues --    0.19814   0.21529   0.24906   0.26726   0.29262

 Mulliken charges:
               1
     1  C    0.159529
     2  O   -0.352011
     3  C   -0.048126
     4  C   -0.116790
     5  H    0.106896
     6  H    0.079345
     7  H    0.093000
     8  H    0.078156
 Sum of Mulliken charges =   0.00000

 Dipole moment (field-independent basis, Debye):
    X=             -3.4325    Y=             -0.8844    Z=              0.2134  Tot=              3.5510
 Quadrupole moment (field-independent basis, Debye-Ang):
   XX=            -27.3414   YY=            -21.6719   ZZ=            -25.2894
   XY=             -0.7315   XZ=              0.2596   YZ=              0.0092

 Normal termination of Gaussian 09 at Wed Aug 26 11:53:29 2020.
