 Gaussian 09, Revision D.01,
 Gaussian 09:  ES64L-G09RevD.01 24-Apr-2013

 --------------------
 #p B2PLYPD3/Def2QZVP
 --------------------

 --------
 acrolein
 --------
 Symbolic Z-matrix:
 Charge =  0 Multiplicity = 1

                         Standard orientation:
 ---------------------------------------------------------------------
 Center     Atomic      Atomic             Coordinates (Angstroms)
 Number     Number       Type             X           Y           Z
 ---------------------------------------------------------------------
      1          6           0        0.678629    0.342830    0.022659
      2          8           0        1.792328   -0.127758   -0.006857
      3          6           0       -0.549594   -0.436940   -0.011905
      4          6           0       -1.751749    0.136037   -0.006477
      5          1           0       -0.488602   -1.465775    0.004614
      6          1           0       -1.804007    1.225060   -0.040694
      7          1           0       -2.791380   -0.437425    0.062289
      8          1           0        0.481658    1.448644    0.002982
 ---------------------------------------------------------------------

 SCF Done:  E(RB2PLYPD3) =  -191.606404336     A.U. after   13 cycles
 E2(B2PLYPD3) =    -0.2477448345D+00 E(B2PLYPD3) =    -0.19185414917056D+03

 The electronic state is 1-A.
 Alpha  occ. eigenvalues --  -19.73019 -10.71830 -10.66648 -10.63733  -1.19742
 Alpha  occ. eigenvalues --   -0.93270  -0.74965  -0.67428  -0.56445  -0.55862
 Alpha  occ. eigenvalues --   -0.50422  -0.47054  -0.46321  -0.34790  -0.33983
 Alpha virt. eigenvalues --   -0.01947   0.05430   0.07152   0.08312   0.09655
 Alpha virt. eigenvalues --    0.12288   0.13867   0.15363   0.17959   0.19715
 Alpha virt. eigenvalues --    0.19838   0.20840   0.25537   0.26213   0.28853

 Mulliken charges:
               1
     1  C    0.152715
     2  O   -0.345054
     3  C   -0.029173
     4  C   -0.127469
     5  H    0.107371
     6  H    0.079521
     7  H    0.097618
     8  H    0.064470
 Sum of Mulliken charges =   0.00000

 Dipole moment (field-independent basis, Debye):
    X=             -3.5068    Y=              0.7288    Z=              0.0684  Tot=              3.5824
 Quadrupole moment (field-independent basis, Debye-Ang):
   XX=            -27.2351   YY=            -22.0265   ZZ=            -25.2501
   XY=              1.0445   XZ=             -0.0812   YZ=             -0.1001

 Normal termination of Gaussian 09 at Wed Aug 26 09:09:40 2020.
