 Gaussian 09, Revision D.01,
 Gaussian 09:  ES64L-G09RevD.01 24-Apr-2013

 --------------------
 #p B2PLYPD3/Def2QZVP
 --------------------

 --------
 acrolein
 --------
 Symbolic Z-matrix:
 Charge =  0 Multiplicity = 1

                         Standard orientation:
 ---------------------------------------------------------------------
 Center     Atomic      Atomic             Coordinates (Angstroms)
 Number     Number       Type             X           Y           Z
 ---------------------------------------------------------------------
      1          6           0       -0.685061    0.354985    0.013924
      2          8           0       -1.782930   -0.129143   -0.023345
      3          6           0        0.583410   -0.461251    0.044694
      4          6           0        1.761251    0.151335   -0.028566
      5          1           0        0.455918   -1.519689   -0.009168
      6          1           0        1.800958    1.237767   -0.007708
      7          1           0        2.622596   -0.408172   -0.030939
      8          1           0       -0.573636    1.452823    0.054262
 ---------------------------------------------------------------------

 SCF Done:  E(RB2PLYPD3) =  -191.614066030     A.U. after   12 cycles
 E2(B2PLYPD3) =    -0.2462675977D+00 E(B2PLYPD3) =    -0.19186033362816D+03

 The electronic state is 1-A.
 Alpha  occ. eigenvalues --  -19.72845 -10.71645 -10.64575 -10.64278  -1.20166
 Alpha  occ. eigenvalues --   -0.92720  -0.74988  -0.67122  -0.57148  -0.56200
 Alpha  occ. eigenvalues --   -0.50876  -0.47459  -0.46908  -0.34695  -0.33640
 Alpha virt. eigenvalues --   -0.01193   0.05932   0.07313   0.07962   0.09795
 Alpha virt. eigenvalues --    0.12576   0.13913   0.15401   0.17546   0.19681
 Alpha virt. eigenvalues --    0.19964   0.21881   0.25293   0.26389   0.28837

 Mulliken charges:
               1
     1  C    0.156436
     2  O   -0.339941
     3  C   -0.053591
     4  C   -0.130639
     5  H    0.106420
     6  H    0.084892
     7  H    0.104063
     8  H    0.072361
 Sum of Mulliken charges =   0.00000

 Dipole moment (field-independent basis, Debye):
    X=              3.2966    Y=              0.7780    Z=              0.0396  Tot=              3.3874
 Quadrupole moment (field-independent basis, Debye-Ang):
   XX=            -27.5321   YY=            -21.6031   ZZ=            -25.1771
   XY=             -1.0951   XZ=             -0.2213   YZ=              0.0699

 Normal termination of Gaussian 09 at Wed Aug 26 09:19:58 2020.
