 Gaussian 09, Revision D.01,
 Gaussian 09:  ES64L-G09RevD.01 24-Apr-2013

 --------------------
 #p B2PLYPD3/Def2QZVP
 --------------------

 --------
 acrolein
 --------
 Symbolic Z-matrix:
 Charge =  0 Multiplicity = 1

                         Standard orientation:
 ---------------------------------------------------------------------
 Center     Atomic      Atomic             Coordinates (Angstroms)
 Number     Number       Type             X           Y           Z
 ---------------------------------------------------------------------
      1          6           0       -0.668047    0.327844    0.034334
      2          8           0       -1.783612   -0.104240   -0.039120
      3          6           0        0.576326   -0.467618    0.005688
      4          6           0        1.749345    0.152214   -0.007463
      5          1           0        0.472692   -1.527083    0.138766
      6          1           0        1.849893    1.232734   -0.070507
      7          1           0        2.566135   -0.356556   -0.085950
      8          1           0       -0.565570    1.410184    0.135297
 ---------------------------------------------------------------------

 SCF Done:  E(RB2PLYPD3) =  -191.605022517     A.U. after   12 cycles
 E2(B2PLYPD3) =    -0.2456573022D+00 E(B2PLYPD3) =    -0.19185067981899D+03

 The electronic state is 1-A.
 Alpha  occ. eigenvalues --  -19.72541 -10.71047 -10.64345 -10.64040  -1.20092
 Alpha  occ. eigenvalues --   -0.93428  -0.76280  -0.67207  -0.57578  -0.56851
 Alpha  occ. eigenvalues --   -0.50940  -0.47975  -0.46676  -0.34894  -0.33480
 Alpha virt. eigenvalues --   -0.01423   0.05985   0.07319   0.08216   0.09686
 Alpha virt. eigenvalues --    0.12871   0.14231   0.15209   0.17599   0.19720
 Alpha virt. eigenvalues --    0.20049   0.22242   0.25128   0.26580   0.28686

 Mulliken charges:
               1
     1  C    0.150496
     2  O   -0.341282
     3  C   -0.042261
     4  C   -0.125365
     5  H    0.103775
     6  H    0.082399
     7  H    0.103508
     8  H    0.068730
 Sum of Mulliken charges =   0.00000

 Dipole moment (field-independent basis, Debye):
    X=              3.4575    Y=              0.6836    Z=              0.1633  Tot=              3.5283
 Quadrupole moment (field-independent basis, Debye-Ang):
   XX=            -27.3674   YY=            -21.6905   ZZ=            -24.9817
   XY=             -0.8109   XZ=             -0.4454   YZ=             -0.2104

 Normal termination of Gaussian 09 at Wed Aug 26 21:04:01 2020.
