 Gaussian 09, Revision D.01,
 Gaussian 09:  ES64L-G09RevD.01 24-Apr-2013

 --------------------
 #p B2PLYPD3/Def2QZVP
 --------------------

 --------
 acrolein
 --------
 Symbolic Z-matrix:
 Charge =  0 Multiplicity = 1

                         Standard orientation:
 ---------------------------------------------------------------------
 Center     Atomic      Atomic             Coordinates (Angstroms)
 Number     Number       Type             X           Y           Z
 ---------------------------------------------------------------------
      1          6           0        0.677556    0.342284   -0.025695
      2          8           0        1.794948   -0.111140    0.025070
      3          6           0       -0.560920   -0.464467   -0.034563
      4          6           0       -1.754725    0.151160    0.005324
      5          1           0       -0.457370   -1.549791    0.014488
      6          1           0       -1.844933    1.233234    0.035734
      7          1           0       -2.724694   -0.399736    0.087664
      8          1           0        0.495943    1.431549   -0.008844
 ---------------------------------------------------------------------

 SCF Done:  E(RB2PLYPD3) =  -191.615153591     A.U. after   12 cycles
 E2(B2PLYPD3) =    -0.2475049658D+00 E(B2PLYPD3) =    -0.19186265855723D+03

 The electronic state is 1-A.
 Alpha  occ. eigenvalues --  -19.72864 -10.71632 -10.66076 -10.64795  -1.19748
 Alpha  occ. eigenvalues --   -0.92601  -0.75047  -0.66953  -0.56506  -0.55921
 Alpha  occ. eigenvalues --   -0.50514  -0.46888  -0.46671  -0.34571  -0.33820
 Alpha virt. eigenvalues --   -0.01770   0.05662   0.07118   0.08075   0.09651
 Alpha virt. eigenvalues --    0.12519   0.14069   0.15362   0.17489   0.19808
 Alpha virt. eigenvalues --    0.19914   0.21313   0.25208   0.26505   0.28644

 Mulliken charges:
               1
     1  C    0.156475
     2  O   -0.345266
     3  C   -0.040082
     4  C   -0.129251
     5  H    0.106100
     6  H    0.084362
     7  H    0.097997
     8  H    0.069665
 Sum of Mulliken charges =   0.00000

 Dipole moment (field-independent basis, Debye):
    X=             -3.4836    Y=              0.7379    Z=              0.0329  Tot=              3.5611
 Quadrupole moment (field-independent basis, Debye-Ang):
   XX=            -27.4148   YY=            -21.7769   ZZ=            -25.3019
   XY=              0.7731   XZ=             -0.4111   YZ=             -0.0409

 Normal termination of Gaussian 09 at Wed Aug 26 11:09:06 2020.
