 Gaussian 09, Revision D.01,
 Gaussian 09:  ES64L-G09RevD.01 24-Apr-2013

 --------------------
 #p B2PLYPD3/Def2QZVP
 --------------------

 --------
 acrolein
 --------
 Symbolic Z-matrix:
 Charge =  0 Multiplicity = 1

                         Standard orientation:
 ---------------------------------------------------------------------
 Center     Atomic      Atomic             Coordinates (Angstroms)
 Number     Number       Type             X           Y           Z
 ---------------------------------------------------------------------
      1          6           0        0.676878    0.348011   -0.024589
      2          8           0        1.781843   -0.135495    0.030078
      3          6           0       -0.542586   -0.422993   -0.038428
      4          6           0       -1.763915    0.127682    0.031857
      5          1           0       -0.423859   -1.462534   -0.067607
      6          1           0       -1.772099    1.173551   -0.067208
      7          1           0       -2.781364   -0.433729    0.092999
      8          1           0        0.500323    1.490473   -0.011847
 ---------------------------------------------------------------------

 SCF Done:  E(RB2PLYPD3) =  -191.606312512     A.U. after   13 cycles
 E2(B2PLYPD3) =    -0.2479132260D+00 E(B2PLYPD3) =    -0.19185422573755D+03

 The electronic state is 1-A.
 Alpha  occ. eigenvalues --  -19.73031 -10.71952 -10.66246 -10.63952  -1.19932
 Alpha  occ. eigenvalues --   -0.93262  -0.75500  -0.66957  -0.56348  -0.56147
 Alpha  occ. eigenvalues --   -0.50528  -0.47383  -0.46518  -0.34559  -0.33960
 Alpha virt. eigenvalues --   -0.02168   0.05584   0.07117   0.08419   0.09813
 Alpha virt. eigenvalues --    0.12280   0.13757   0.15347   0.17621   0.19770
 Alpha virt. eigenvalues --    0.20229   0.21021   0.25242   0.26290   0.29058

 Mulliken charges:
               1
     1  C    0.155028
     2  O   -0.344103
     3  C   -0.024286
     4  C   -0.133232
     5  H    0.104928
     6  H    0.084001
     7  H    0.105144
     8  H    0.052520
 Sum of Mulliken charges =   0.00000

 Dipole moment (field-independent basis, Debye):
    X=             -3.5066    Y=              0.7046    Z=             -0.1283  Tot=              3.5790
 Quadrupole moment (field-independent basis, Debye-Ang):
   XX=            -26.9838   YY=            -22.1784   ZZ=            -25.2321
   XY=              1.1017   XZ=             -0.2507   YZ=             -0.0668

 Normal termination of Gaussian 09 at Wed Aug 26 20:00:25 2020.
