 Gaussian 09, Revision D.01,
 Gaussian 09:  ES64L-G09RevD.01 24-Apr-2013

 --------------------
 #p B2PLYPD3/Def2QZVP
 --------------------

 --------
 acrolein
 --------
 Symbolic Z-matrix:
 Charge =  0 Multiplicity = 1

                         Standard orientation:
 ---------------------------------------------------------------------
 Center     Atomic      Atomic             Coordinates (Angstroms)
 Number     Number       Type             X           Y           Z
 ---------------------------------------------------------------------
      1          6           0        0.656866    0.334222    0.017571
      2          8           0        1.799568   -0.104110   -0.021013
      3          6           0       -0.562845   -0.460849    0.038944
      4          6           0       -1.748647    0.150553   -0.017646
      5          1           0       -0.442769   -1.550231   -0.024611
      6          1           0       -1.869420    1.241195   -0.015878
      7          1           0       -2.669989   -0.416613   -0.047651
      8          1           0        0.513388    1.414966    0.023032
 ---------------------------------------------------------------------

 SCF Done:  E(RB2PLYPD3) =  -191.614960739     A.U. after   12 cycles
 E2(B2PLYPD3) =    -0.2478630877D+00 E(B2PLYPD3) =    -0.19186282382662D+03

 The electronic state is 1-A.
 Alpha  occ. eigenvalues --  -19.72591 -10.71331 -10.65973 -10.64788  -1.18513
 Alpha  occ. eigenvalues --   -0.93277  -0.75762  -0.67005  -0.56638  -0.56231
 Alpha  occ. eigenvalues --   -0.50168  -0.46927  -0.46289  -0.34751  -0.33768
 Alpha virt. eigenvalues --   -0.02072   0.05655   0.07048   0.08142   0.09657
 Alpha virt. eigenvalues --    0.12561   0.14004   0.15276   0.17435   0.19706
 Alpha virt. eigenvalues --    0.20010   0.21573   0.25203   0.26525   0.28676

 Mulliken charges:
               1
     1  C    0.154496
     2  O   -0.359189
     3  C   -0.035061
     4  C   -0.125521
     5  H    0.105896
     6  H    0.088324
     7  H    0.100472
     8  H    0.070583
 Sum of Mulliken charges =   0.00000

 Dipole moment (field-independent basis, Debye):
    X=             -3.6815    Y=              0.7235    Z=             -0.0030  Tot=              3.7519
 Quadrupole moment (field-independent basis, Debye-Ang):
   XX=            -27.5640   YY=            -21.6680   ZZ=            -25.2421
   XY=              0.7325   XZ=              0.2663   YZ=              0.0725

 Normal termination of Gaussian 09 at Wed Aug 26 19:54:23 2020.
