 Gaussian 09, Revision D.01,
 Gaussian 09:  ES64L-G09RevD.01 24-Apr-2013

 --------------------
 #p B2PLYPD3/Def2QZVP
 --------------------

 --------
 acrolein
 --------
 Symbolic Z-matrix:
 Charge =  0 Multiplicity = 1

                         Standard orientation:
 ---------------------------------------------------------------------
 Center     Atomic      Atomic             Coordinates (Angstroms)
 Number     Number       Type             X           Y           Z
 ---------------------------------------------------------------------
      1          6           0       -0.659256    0.332017    0.027129
      2          8           0       -1.787740   -0.090868   -0.031195
      3          6           0        0.578847   -0.497499    0.082143
      4          6           0        1.728400    0.157553   -0.044052
      5          1           0        0.547642   -1.485653   -0.079655
      6          1           0        1.854781    1.333355    0.067448
      7          1           0        2.547695   -0.342070   -0.103193
      8          1           0       -0.536142    1.268890   -0.026363
 ---------------------------------------------------------------------

 SCF Done:  E(RB2PLYPD3) =  -191.572124745     A.U. after   12 cycles
 E2(B2PLYPD3) =    -0.2456674286D+00 E(B2PLYPD3) =    -0.19181779217353D+03

 The electronic state is 1-A.
 Alpha  occ. eigenvalues --  -19.72209 -10.69706 -10.64920 -10.63582  -1.19417
 Alpha  occ. eigenvalues --   -0.93635  -0.76705  -0.69833  -0.57901  -0.56731
 Alpha  occ. eigenvalues --   -0.50768  -0.47305  -0.46454  -0.34844  -0.33694
 Alpha virt. eigenvalues --   -0.01281   0.05692   0.07455   0.07735   0.09571
 Alpha virt. eigenvalues --    0.12763   0.14147   0.15450   0.18115   0.19665
 Alpha virt. eigenvalues --    0.19964   0.21870   0.24222   0.27298   0.28560

 Mulliken charges:
               1
     1  C    0.158355
     2  O   -0.353328
     3  C   -0.058285
     4  C   -0.120545
     5  H    0.108799
     6  H    0.075253
     7  H    0.099173
     8  H    0.090579
 Sum of Mulliken charges =   0.00000

 Dipole moment (field-independent basis, Debye):
    X=              3.5435    Y=              0.7513    Z=             -0.0298  Tot=              3.6224
 Quadrupole moment (field-independent basis, Debye-Ang):
   XX=            -27.6956   YY=            -21.3899   ZZ=            -24.8920
   XY=             -0.8820   XZ=             -0.3791   YZ=              0.3006

 Normal termination of Gaussian 09 at Wed Aug 26 14:57:04 2020.
