 Gaussian 09, Revision D.01,
 Gaussian 09:  ES64L-G09RevD.01 24-Apr-2013

 --------------------
 #p B2PLYPD3/Def2QZVP
 --------------------

 --------
 acrolein
 --------
 Symbolic Z-matrix:
 Charge =  0 Multiplicity = 1

                         Standard orientation:
 ---------------------------------------------------------------------
 Center     Atomic      Atomic             Coordinates (Angstroms)
 Number     Number       Type             X           Y           Z
 ---------------------------------------------------------------------
      1          6           0       -0.667642    0.319144    0.062214
      2          8           0       -1.787986   -0.089759   -0.043431
      3          6           0        0.551433   -0.475636    0.018558
      4          6           0        1.763476    0.154619   -0.026828
      5          1           0        0.387298   -1.555737    0.039449
      6          1           0        1.873138    1.290402   -0.069964
      7          1           0        2.697981   -0.416269   -0.001407
      8          1           0       -0.538131    1.410915    0.055709
 ---------------------------------------------------------------------

 SCF Done:  E(RB2PLYPD3) =  -191.610087058     A.U. after   13 cycles
 E2(B2PLYPD3) =    -0.2476455327D+00 E(B2PLYPD3) =    -0.19185773259053D+03

 The electronic state is 1-A.
 Alpha  occ. eigenvalues --  -19.72469 -10.70887 -10.67036 -10.65156  -1.20149
 Alpha  occ. eigenvalues --   -0.92290  -0.75290  -0.66633  -0.56401  -0.55855
 Alpha  occ. eigenvalues --   -0.50346  -0.47062  -0.46941  -0.34299  -0.33459
 Alpha virt. eigenvalues --   -0.02131   0.05571   0.07126   0.08339   0.09651
 Alpha virt. eigenvalues --    0.12342   0.13989   0.15347   0.17535   0.19369
 Alpha virt. eigenvalues --    0.19985   0.21334   0.25119   0.26490   0.28882

 Mulliken charges:
               1
     1  C    0.162024
     2  O   -0.344367
     3  C   -0.041942
     4  C   -0.130044
     5  H    0.105058
     6  H    0.090562
     7  H    0.103500
     8  H    0.055209
 Sum of Mulliken charges =   0.00000

 Dipole moment (field-independent basis, Debye):
    X=              3.5314    Y=              0.6244    Z=              0.1588  Tot=              3.5897
 Quadrupole moment (field-independent basis, Debye-Ang):
   XX=            -27.3321   YY=            -21.7481   ZZ=            -25.3648
   XY=             -0.5916   XZ=             -0.3040   YZ=             -0.1448

 Normal termination of Gaussian 09 at Wed Aug 26 20:55:04 2020.
