 Gaussian 09, Revision D.01,
 Gaussian 09:  ES64L-G09RevD.01 24-Apr-2013

 --------------------
 #p B2PLYPD3/Def2QZVP
 --------------------

 --------
 acrolein
 --------
 Symbolic Z-matrix:
 Charge =  0 Multiplicity = 1

                         Standard orientation:
 ---------------------------------------------------------------------
 Center     Atomic      Atomic             Coordinates (Angstroms)
 Number     Number       Type             X           Y           Z
 ---------------------------------------------------------------------
      1          6           0        0.682397    0.347674   -0.035274
      2          8           0        1.796767   -0.117705    0.024227
      3          6           0       -0.559223   -0.470677   -0.025864
      4          6           0       -1.752616    0.156085    0.005136
      5          1           0       -0.478077   -1.547074    0.010921
      6          1           0       -1.874276    1.236764    0.012611
      7          1           0       -2.765656   -0.414015    0.082009
      8          1           0        0.520525    1.467473    0.036659
 ---------------------------------------------------------------------

 SCF Done:  E(RB2PLYPD3) =  -191.610013339     A.U. after   13 cycles
 E2(B2PLYPD3) =    -0.2481885273D+00 E(B2PLYPD3) =    -0.19185820186610D+03

 The electronic state is 1-A.
 Alpha  occ. eigenvalues --  -19.72925 -10.72078 -10.66557 -10.64969  -1.19684
 Alpha  occ. eigenvalues --   -0.92287  -0.74404  -0.66776  -0.56416  -0.55547
 Alpha  occ. eigenvalues --   -0.50266  -0.46784  -0.46390  -0.34506  -0.33757
 Alpha virt. eigenvalues --   -0.01748   0.05529   0.06990   0.07831   0.09575
 Alpha virt. eigenvalues --    0.12265   0.14065   0.15357   0.17577   0.19722
 Alpha virt. eigenvalues --    0.19956   0.21012   0.25077   0.26337   0.28556

 Mulliken charges:
               1
     1  C    0.158005
     2  O   -0.342881
     3  C   -0.046569
     4  C   -0.126950
     5  H    0.111126
     6  H    0.087540
     7  H    0.090537
     8  H    0.069194
 Sum of Mulliken charges =   0.00000

 Dipole moment (field-independent basis, Debye):
    X=             -3.4502    Y=              0.7534    Z=              0.0091  Tot=              3.5315
 Quadrupole moment (field-independent basis, Debye-Ang):
   XX=            -27.4660   YY=            -21.7289   ZZ=            -25.4136
   XY=              0.7873   XZ=             -0.3374   YZ=             -0.0322

 Normal termination of Gaussian 09 at Wed Aug 26 08:59:17 2020.
