 Gaussian 09, Revision D.01,
 Gaussian 09:  ES64L-G09RevD.01 24-Apr-2013

 --------------------
 #p B2PLYPD3/Def2QZVP
 --------------------

 --------
 acrolein
 --------
 Symbolic Z-matrix:
 Charge =  0 Multiplicity = 1

                         Standard orientation:
 ---------------------------------------------------------------------
 Center     Atomic      Atomic             Coordinates (Angstroms)
 Number     Number       Type             X           Y           Z
 ---------------------------------------------------------------------
      1          6           0       -0.655903    0.346433   -0.079642
      2          8           0       -1.821354   -0.101426    0.057265
      3          6           0        0.596037   -0.504877   -0.066425
      4          6           0        1.755345    0.154212    0.003833
      5          1           0        0.471859   -1.594982    0.040416
      6          1           0        1.955991    1.434438    0.071178
      7          1           0        2.541311   -0.455127    0.231935
      8          1           0       -0.571200    1.452465    0.051751
 ---------------------------------------------------------------------

 SCF Done:  E(RB2PLYPD3) =  -191.574719168     A.U. after   13 cycles
 E2(B2PLYPD3) =    -0.2514452364D+00 E(B2PLYPD3) =    -0.19182616440411D+03

 The electronic state is 1-A.
 Alpha  occ. eigenvalues --  -19.72721 -10.72427 -10.66898 -10.65838  -1.16726
 Alpha  occ. eigenvalues --   -0.92808  -0.74698  -0.65891  -0.56334  -0.54476
 Alpha  occ. eigenvalues --   -0.49550  -0.45764  -0.45020  -0.34757  -0.33533
 Alpha virt. eigenvalues --   -0.02042   0.04655   0.06467   0.07123   0.09217
 Alpha virt. eigenvalues --    0.11786   0.13861   0.15158   0.17401   0.18486
 Alpha virt. eigenvalues --    0.19749   0.21996   0.23996   0.26742   0.27807

 Mulliken charges:
               1
     1  C    0.166620
     2  O   -0.369273
     3  C   -0.066495
     4  C   -0.116658
     5  H    0.114208
     6  H    0.088957
     7  H    0.100854
     8  H    0.081787
 Sum of Mulliken charges =   0.00000

 Dipole moment (field-independent basis, Debye):
    X=              3.6586    Y=              0.7021    Z=              0.1063  Tot=              3.7269
 Quadrupole moment (field-independent basis, Debye-Ang):
   XX=            -28.5265   YY=            -21.0548   ZZ=            -25.5396
   XY=             -0.7696   XZ=              0.9523   YZ=             -0.0921

 Normal termination of Gaussian 09 at Wed Aug 26 11:04:22 2020.
