 Gaussian 09, Revision D.01,
 Gaussian 09:  ES64L-G09RevD.01 24-Apr-2013

 --------------------
 #p B2PLYPD3/Def2QZVP
 --------------------

 --------
 acrolein
 --------
 Symbolic Z-matrix:
 Charge =  0 Multiplicity = 1

                         Standard orientation:
 ---------------------------------------------------------------------
 Center     Atomic      Atomic             Coordinates (Angstroms)
 Number     Number       Type             X           Y           Z
 ---------------------------------------------------------------------
      1          6           0       -0.646872    0.334854   -0.088045
      2          8           0       -1.822845   -0.100389    0.067492
      3          6           0        0.572961   -0.474848   -0.021943
      4          6           0        1.765801    0.137450    0.010508
      5          1           0        0.483595   -1.514692   -0.050751
      6          1           0        1.912665    1.269985    0.274605
      7          1           0        2.485674   -0.410659    0.010463
      8          1           0       -0.450513    1.473745   -0.177375
 ---------------------------------------------------------------------

 SCF Done:  E(RB2PLYPD3) =  -191.569603648     A.U. after   14 cycles
 E2(B2PLYPD3) =    -0.2504889385D+00 E(B2PLYPD3) =    -0.19182009258653D+03

 The electronic state is 1-A.
 Alpha  occ. eigenvalues --  -19.73032 -10.72721 -10.64891 -10.64707  -1.16433
 Alpha  occ. eigenvalues --   -0.94030  -0.77449  -0.66649  -0.58049  -0.55050
 Alpha  occ. eigenvalues --   -0.49844  -0.48061  -0.45131  -0.34576  -0.33864
 Alpha virt. eigenvalues --   -0.02914   0.05510   0.07090   0.07301   0.09619
 Alpha virt. eigenvalues --    0.12667   0.13883   0.15133   0.17089   0.19301
 Alpha virt. eigenvalues --    0.20243   0.22552   0.24098   0.26527   0.28093

 Mulliken charges:
               1
     1  C    0.161566
     2  O   -0.371034
     3  C   -0.037773
     4  C   -0.135265
     5  H    0.104932
     6  H    0.089959
     7  H    0.117769
     8  H    0.069846
 Sum of Mulliken charges =   0.00000

 Dipole moment (field-independent basis, Debye):
    X=              3.8334    Y=              0.6216    Z=             -0.1174  Tot=              3.8852
 Quadrupole moment (field-independent basis, Debye-Ang):
   XX=            -28.0574   YY=            -21.5146   ZZ=            -25.1818
   XY=             -0.7163   XZ=              0.7584   YZ=              0.3331

 Normal termination of Gaussian 09 at Wed Aug 26 11:18:48 2020.
