 Gaussian 09, Revision D.01,
 Gaussian 09:  ES64L-G09RevD.01 24-Apr-2013

 --------------------
 #p B2PLYPD3/Def2QZVP
 --------------------

 --------
 acrolein
 --------
 Symbolic Z-matrix:
 Charge =  0 Multiplicity = 1

                         Standard orientation:
 ---------------------------------------------------------------------
 Center     Atomic      Atomic             Coordinates (Angstroms)
 Number     Number       Type             X           Y           Z
 ---------------------------------------------------------------------
      1          6           0       -0.668216    0.348785   -0.024652
      2          8           0       -1.788315   -0.123738    0.022951
      3          6           0        0.553683   -0.438918   -0.028591
      4          6           0        1.757801    0.132143    0.009188
      5          1           0        0.446410   -1.516482   -0.012555
      6          1           0        1.817069    1.212783    0.002346
      7          1           0        2.668138   -0.421631    0.086587
      8          1           0       -0.484707    1.463168    0.004341
 ---------------------------------------------------------------------

 SCF Done:  E(RB2PLYPD3) =  -191.615772546     A.U. after   12 cycles
 E2(B2PLYPD3) =    -0.2476314734D+00 E(B2PLYPD3) =    -0.19186340401951D+03

 The electronic state is 1-A.
 Alpha  occ. eigenvalues --  -19.72926 -10.71836 -10.65456 -10.64301  -1.19232
 Alpha  occ. eigenvalues --   -0.93295  -0.75836  -0.66729  -0.56791  -0.56263
 Alpha  occ. eigenvalues --   -0.50651  -0.46821  -0.46725  -0.34707  -0.33953
 Alpha virt. eigenvalues --   -0.02027   0.05757   0.07099   0.08279   0.09787
 Alpha virt. eigenvalues --    0.12575   0.13957   0.15341   0.17414   0.19808
 Alpha virt. eigenvalues --    0.19953   0.21650   0.25435   0.26465   0.28870

 Mulliken charges:
               1
     1  C    0.156578
     2  O   -0.350468
     3  C   -0.029796
     4  C   -0.130439
     5  H    0.102717
     6  H    0.081800
     7  H    0.106213
     8  H    0.063395
 Sum of Mulliken charges =   0.00000

 Dipole moment (field-independent basis, Debye):
    X=              3.5564    Y=              0.7258    Z=             -0.0087  Tot=              3.6297
 Quadrupole moment (field-independent basis, Debye-Ang):
   XX=            -27.3519   YY=            -21.8700   ZZ=            -25.2019
   XY=             -0.9658   XZ=              0.3279   YZ=             -0.0394

 Normal termination of Gaussian 09 at Wed Aug 26 19:38:08 2020.
