 Gaussian 09, Revision D.01,
 Gaussian 09:  ES64L-G09RevD.01 24-Apr-2013

 --------------------
 #p B2PLYPD3/Def2QZVP
 --------------------

 --------
 acrolein
 --------
 Symbolic Z-matrix:
 Charge =  0 Multiplicity = 1

                         Standard orientation:
 ---------------------------------------------------------------------
 Center     Atomic      Atomic             Coordinates (Angstroms)
 Number     Number       Type             X           Y           Z
 ---------------------------------------------------------------------
      1          6           0       -0.676542    0.347246   -0.001353
      2          8           0       -1.787640   -0.124840   -0.006975
      3          6           0        0.555904   -0.434276   -0.003115
      4          6           0        1.762609    0.134608    0.000978
      5          1           0        0.415633   -1.500267    0.040616
      6          1           0        1.837293    1.188931   -0.060262
      7          1           0        2.691103   -0.440957    0.011402
      8          1           0       -0.494737    1.465539    0.084989
 ---------------------------------------------------------------------

 SCF Done:  E(RB2PLYPD3) =  -191.615581863     A.U. after   12 cycles
 E2(B2PLYPD3) =    -0.2471779503D+00 E(B2PLYPD3) =    -0.19186275981360D+03

 The electronic state is 1-A.
 Alpha  occ. eigenvalues --  -19.73000 -10.71785 -10.65448 -10.64237  -1.19849
 Alpha  occ. eigenvalues --   -0.93135  -0.75728  -0.66743  -0.56641  -0.56390
 Alpha  occ. eigenvalues --   -0.50777  -0.47134  -0.46830  -0.34738  -0.33842
 Alpha virt. eigenvalues --   -0.01921   0.05775   0.07174   0.08344   0.09818
 Alpha virt. eigenvalues --    0.12573   0.13838   0.15349   0.17481   0.19671
 Alpha virt. eigenvalues --    0.20137   0.21607   0.25357   0.26576   0.28684

 Mulliken charges:
               1
     1  C    0.158379
     2  O   -0.345481
     3  C   -0.032716
     4  C   -0.133302
     5  H    0.103669
     6  H    0.086307
     7  H    0.104429
     8  H    0.058715
 Sum of Mulliken charges =   0.00000

 Dipole moment (field-independent basis, Debye):
    X=              3.4842    Y=              0.7178    Z=              0.0341  Tot=              3.5575
 Quadrupole moment (field-independent basis, Debye-Ang):
   XX=            -27.2355   YY=            -21.9625   ZZ=            -25.1886
   XY=             -0.8840   XZ=             -0.0835   YZ=             -0.1086

 Normal termination of Gaussian 09 at Wed Aug 26 08:45:36 2020.
