 Gaussian 09, Revision D.01,
 Gaussian 09:  ES64L-G09RevD.01 24-Apr-2013

 --------------------
 #p B2PLYPD3/Def2QZVP
 --------------------

 --------
 acrolein
 --------
 Symbolic Z-matrix:
 Charge =  0 Multiplicity = 1

                         Standard orientation:
 ---------------------------------------------------------------------
 Center     Atomic      Atomic             Coordinates (Angstroms)
 Number     Number       Type             X           Y           Z
 ---------------------------------------------------------------------
      1          6           0       -0.677077    0.369455    0.014225
      2          8           0       -1.773665   -0.135568   -0.032581
      3          6           0        0.544054   -0.439735    0.020910
      4          6           0        1.759354    0.123532   -0.014468
      5          1           0        0.418334   -1.559723    0.100189
      6          1           0        1.823155    1.229209   -0.098886
      7          1           0        2.677815   -0.424937   -0.036525
      8          1           0       -0.487971    1.520483    0.171866
 ---------------------------------------------------------------------

 SCF Done:  E(RB2PLYPD3) =  -191.610142017     A.U. after   12 cycles
 E2(B2PLYPD3) =    -0.2483032206D+00 E(B2PLYPD3) =    -0.19185844523783D+03

 The electronic state is 1-A.
 Alpha  occ. eigenvalues --  -19.73128 -10.72385 -10.65647 -10.64863  -1.19946
 Alpha  occ. eigenvalues --   -0.92571  -0.75188  -0.65550  -0.56672  -0.55674
 Alpha  occ. eigenvalues --   -0.50743  -0.47113  -0.45843  -0.34564  -0.33895
 Alpha virt. eigenvalues --   -0.01822   0.05726   0.06718   0.08047   0.09763
 Alpha virt. eigenvalues --    0.12403   0.13902   0.15307   0.17092   0.19339
 Alpha virt. eigenvalues --    0.20142   0.21593   0.25190   0.26546   0.28829

 Mulliken charges:
               1
     1  C    0.162341
     2  O   -0.339383
     3  C   -0.042718
     4  C   -0.127882
     5  H    0.102368
     6  H    0.076448
     7  H    0.107276
     8  H    0.061550
 Sum of Mulliken charges =   0.00000

 Dipole moment (field-independent basis, Debye):
    X=              3.3935    Y=              0.7356    Z=              0.1128  Tot=              3.4742
 Quadrupole moment (field-independent basis, Debye-Ang):
   XX=            -27.2877   YY=            -21.8725   ZZ=            -25.3533
   XY=             -1.0018   XZ=             -0.3501   YZ=             -0.1572

 Normal termination of Gaussian 09 at Wed Aug 26 08:51:04 2020.
