 Gaussian 09, Revision D.01,
 Gaussian 09:  ES64L-G09RevD.01 24-Apr-2013

 --------------------
 #p B2PLYPD3/Def2QZVP
 --------------------

 --------
 acrolein
 --------
 Symbolic Z-matrix:
 Charge =  0 Multiplicity = 1

                         Standard orientation:
 ---------------------------------------------------------------------
 Center     Atomic      Atomic             Coordinates (Angstroms)
 Number     Number       Type             X           Y           Z
 ---------------------------------------------------------------------
      1          6           0       -0.682025    0.332560    0.053852
      2          8           0       -1.792589   -0.102882   -0.065514
      3          6           0        0.538285   -0.447870    0.094763
      4          6           0        1.778111    0.151044   -0.077463
      5          1           0        0.512288   -1.501226    0.016961
      6          1           0        1.899203    1.227134   -0.001035
      7          1           0        2.682005   -0.415769   -0.049390
      8          1           0       -0.559011    1.298520    0.130667
 ---------------------------------------------------------------------

 SCF Done:  E(RB2PLYPD3) =  -191.598245721     A.U. after   13 cycles
 E2(B2PLYPD3) =    -0.2468699167D+00 E(B2PLYPD3) =    -0.19184511563805D+03

 The electronic state is 1-A.
 Alpha  occ. eigenvalues --  -19.72320 -10.69810 -10.66253 -10.64666  -1.20011
 Alpha  occ. eigenvalues --   -0.92317  -0.76732  -0.69030  -0.57581  -0.56125
 Alpha  occ. eigenvalues --   -0.50549  -0.47443  -0.46821  -0.34126  -0.33737
 Alpha virt. eigenvalues --   -0.02558   0.05702   0.07531   0.08353   0.09592
 Alpha virt. eigenvalues --    0.12697   0.14104   0.15537   0.18154   0.19398
 Alpha virt. eigenvalues --    0.20037   0.21579   0.24266   0.26654   0.28394

 Mulliken charges:
               1
     1  C    0.154546
     2  O   -0.348014
     3  C   -0.046509
     4  C   -0.126294
     5  H    0.105483
     6  H    0.079612
     7  H    0.098839
     8  H    0.082336
 Sum of Mulliken charges =   0.00000

 Dipole moment (field-independent basis, Debye):
    X=              3.5686    Y=              0.7933    Z=              0.2232  Tot=              3.6626
 Quadrupole moment (field-independent basis, Debye-Ang):
   XX=            -27.2157   YY=            -21.7172   ZZ=            -25.1595
   XY=             -0.9534   XZ=             -0.4888   YZ=              0.1074

 Normal termination of Gaussian 09 at Wed Aug 26 15:01:59 2020.
