 Gaussian 09, Revision D.01,
 Gaussian 09:  ES64L-G09RevD.01 24-Apr-2013

 --------------------
 #p B2PLYPD3/Def2QZVP
 --------------------

 --------
 acrolein
 --------
 Symbolic Z-matrix:
 Charge =  0 Multiplicity = 1

                         Standard orientation:
 ---------------------------------------------------------------------
 Center     Atomic      Atomic             Coordinates (Angstroms)
 Number     Number       Type             X           Y           Z
 ---------------------------------------------------------------------
      1          6           0        0.666081    0.337336    0.017868
      2          8           0        1.796274   -0.111791   -0.010520
      3          6           0       -0.574952   -0.453359    0.016559
      4          6           0       -1.754446    0.151484   -0.012662
      5          1           0       -0.446469   -1.513463   -0.018957
      6          1           0       -1.829593    1.212691    0.013259
      7          1           0       -2.626273   -0.423466   -0.012828
      8          1           0        0.512050    1.405804   -0.027902
 ---------------------------------------------------------------------

 SCF Done:  E(RB2PLYPD3) =  -191.615434863     A.U. after   12 cycles
 E2(B2PLYPD3) =    -0.2467008899D+00 E(B2PLYPD3) =    -0.19186213575308D+03

 The electronic state is 1-A.
 Alpha  occ. eigenvalues --  -19.72744 -10.71262 -10.64851 -10.64183  -1.19068
 Alpha  occ. eigenvalues --   -0.93490  -0.75994  -0.67531  -0.57040  -0.56583
 Alpha  occ. eigenvalues --   -0.50644  -0.47612  -0.46504  -0.34875  -0.33761
 Alpha virt. eigenvalues --   -0.01765   0.05844   0.07303   0.08190   0.09777
 Alpha virt. eigenvalues --    0.12784   0.13965   0.15309   0.17560   0.19828
 Alpha virt. eigenvalues --    0.20030   0.21896   0.25380   0.26670   0.28643

 Mulliken charges:
               1
     1  C    0.154420
     2  O   -0.354347
     3  C   -0.035227
     4  C   -0.133155
     5  H    0.104429
     6  H    0.089468
     7  H    0.103612
     8  H    0.070799
 Sum of Mulliken charges =   0.00000

 Dipole moment (field-independent basis, Debye):
    X=             -3.5532    Y=              0.7348    Z=              0.0171  Tot=              3.6284
 Quadrupole moment (field-independent basis, Debye-Ang):
   XX=            -27.5833   YY=            -21.6842   ZZ=            -25.0919
   XY=              0.8576   XZ=              0.0653   YZ=              0.0489

 Normal termination of Gaussian 09 at Wed Aug 26 19:31:28 2020.
