 Gaussian 09, Revision D.01,
 Gaussian 09:  ES64L-G09RevD.01 24-Apr-2013

 --------------------
 #p B2PLYPD3/Def2QZVP
 --------------------

 --------
 acrolein
 --------
 Symbolic Z-matrix:
 Charge =  0 Multiplicity = 1

                         Standard orientation:
 ---------------------------------------------------------------------
 Center     Atomic      Atomic             Coordinates (Angstroms)
 Number     Number       Type             X           Y           Z
 ---------------------------------------------------------------------
      1          6           0        0.698168    0.358365   -0.084725
      2          8           0        1.772014   -0.134735    0.073234
      3          6           0       -0.518225   -0.408246   -0.075083
      4          6           0       -1.785017    0.134752    0.017241
      5          1           0       -0.446530   -1.469276   -0.007520
      6          1           0       -1.848757    1.193026    0.143465
      7          1           0       -2.801948   -0.496844    0.162181
      8          1           0        0.551567    1.341743   -0.028595
 ---------------------------------------------------------------------

 SCF Done:  E(RB2PLYPD3) =  -191.590975646     A.U. after   13 cycles
 E2(B2PLYPD3) =    -0.2474422950D+00 E(B2PLYPD3) =    -0.19183841794119D+03

 The electronic state is 1-A.
 Alpha  occ. eigenvalues --  -19.72594 -10.70054 -10.67180 -10.64320  -1.20709
 Alpha  occ. eigenvalues --   -0.92102  -0.76057  -0.68616  -0.57464  -0.55375
 Alpha  occ. eigenvalues --   -0.50172  -0.47522  -0.46146  -0.34350  -0.33568
 Alpha virt. eigenvalues --   -0.02449   0.05293   0.07429   0.08313   0.09715
 Alpha virt. eigenvalues --    0.12311   0.14041   0.15483   0.18269   0.19395
 Alpha virt. eigenvalues --    0.19750   0.20951   0.25024   0.26676   0.28894

 Mulliken charges:
               1
     1  C    0.158513
     2  O   -0.344461
     3  C   -0.040485
     4  C   -0.139808
     5  H    0.107066
     6  H    0.080215
     7  H    0.098720
     8  H    0.080239
 Sum of Mulliken charges =   0.00000

 Dipole moment (field-independent basis, Debye):
    X=             -3.3602    Y=              0.8920    Z=             -0.0111  Tot=              3.4766
 Quadrupole moment (field-independent basis, Debye-Ang):
   XX=            -27.0794   YY=            -21.9161   ZZ=            -25.2323
   XY=              1.2544   XZ=             -1.0142   YZ=              0.0264

 Normal termination of Gaussian 09 at Wed Aug 26 12:45:37 2020.
