 Gaussian 09, Revision D.01,
 Gaussian 09:  ES64L-G09RevD.01 24-Apr-2013

 --------------------
 #p B2PLYPD3/Def2QZVP
 --------------------

 --------
 acrolein
 --------
 Symbolic Z-matrix:
 Charge =  0 Multiplicity = 1

                         Standard orientation:
 ---------------------------------------------------------------------
 Center     Atomic      Atomic             Coordinates (Angstroms)
 Number     Number       Type             X           Y           Z
 ---------------------------------------------------------------------
      1          6           0       -0.671408    0.373391   -0.027164
      2          8           0       -1.786970   -0.137979    0.035671
      3          6           0        0.553204   -0.447124   -0.046715
      4          6           0        1.756852    0.118953    0.037958
      5          1           0        0.426331   -1.498053   -0.083153
      6          1           0        1.869958    1.215763   -0.065997
      7          1           0        2.664916   -0.416938    0.111871
      8          1           0       -0.497328    1.531740   -0.032560
 ---------------------------------------------------------------------

 SCF Done:  E(RB2PLYPD3) =  -191.610464242     A.U. after   13 cycles
 E2(B2PLYPD3) =    -0.2486121281D+00 E(B2PLYPD3) =    -0.19185907637002D+03

 The electronic state is 1-A.
 Alpha  occ. eigenvalues --  -19.73090 -10.72635 -10.65453 -10.64370  -1.18643
 Alpha  occ. eigenvalues --   -0.92945  -0.75366  -0.66545  -0.56855  -0.55684
 Alpha  occ. eigenvalues --   -0.50488  -0.47047  -0.46093  -0.34551  -0.33947
 Alpha virt. eigenvalues --   -0.01974   0.05655   0.07089   0.07790   0.09743
 Alpha virt. eigenvalues --    0.12343   0.13875   0.15334   0.17348   0.19803
 Alpha virt. eigenvalues --    0.20020   0.21635   0.25062   0.26371   0.28742

 Mulliken charges:
               1
     1  C    0.161992
     2  O   -0.353245
     3  C   -0.043469
     4  C   -0.124849
     5  H    0.111414
     6  H    0.078405
     7  H    0.101475
     8  H    0.068276
 Sum of Mulliken charges =   0.00000

 Dipole moment (field-independent basis, Debye):
    X=              3.5240    Y=              0.7756    Z=             -0.1492  Tot=              3.6115
 Quadrupole moment (field-independent basis, Debye-Ang):
   XX=            -27.4037   YY=            -21.7773   ZZ=            -25.2895
   XY=             -0.9659   XZ=              0.3029   YZ=             -0.0651

 Normal termination of Gaussian 09 at Wed Aug 26 09:16:19 2020.
