 Gaussian 09, Revision D.01,
 Gaussian 09:  ES64L-G09RevD.01 24-Apr-2013

 --------------------
 #p B2PLYPD3/Def2QZVP
 --------------------

 --------
 acrolein
 --------
 Symbolic Z-matrix:
 Charge =  0 Multiplicity = 1

                         Standard orientation:
 ---------------------------------------------------------------------
 Center     Atomic      Atomic             Coordinates (Angstroms)
 Number     Number       Type             X           Y           Z
 ---------------------------------------------------------------------
      1          6           0       -0.676692    0.347182    0.023104
      2          8           0       -1.792388   -0.118434   -0.012622
      3          6           0        0.571552   -0.451829   -0.000163
      4          6           0        1.755629    0.152018   -0.012762
      5          1           0        0.438682   -1.525215    0.013428
      6          1           0        1.835928    1.185826   -0.030260
      7          1           0        2.670820   -0.420710    0.039740
      8          1           0       -0.509262    1.423339    0.016999
 ---------------------------------------------------------------------

 SCF Done:  E(RB2PLYPD3) =  -191.615771513     A.U. after   12 cycles
 E2(B2PLYPD3) =    -0.2466269476D+00 E(B2PLYPD3) =    -0.19186239846105D+03

 The electronic state is 1-A.
 Alpha  occ. eigenvalues --  -19.72873 -10.71456 -10.64869 -10.64349  -1.19588
 Alpha  occ. eigenvalues --   -0.93095  -0.75604  -0.67441  -0.56915  -0.56406
 Alpha  occ. eigenvalues --   -0.50744  -0.47336  -0.46747  -0.34758  -0.33784
 Alpha virt. eigenvalues --   -0.01629   0.05829   0.07287   0.08140   0.09780
 Alpha virt. eigenvalues --    0.12723   0.14013   0.15365   0.17472   0.19919
 Alpha virt. eigenvalues --    0.20027   0.21756   0.25480   0.26549   0.28588

 Mulliken charges:
               1
     1  C    0.154610
     2  O   -0.348482
     3  C   -0.036782
     4  C   -0.135813
     5  H    0.104619
     6  H    0.088899
     7  H    0.100747
     8  H    0.072202
 Sum of Mulliken charges =   0.00000

 Dipole moment (field-independent basis, Debye):
    X=              3.4545    Y=              0.7769    Z=              0.0815  Tot=              3.5418
 Quadrupole moment (field-independent basis, Debye-Ang):
   XX=            -27.4811   YY=            -21.7243   ZZ=            -25.1416
   XY=             -0.8381   XZ=              0.0041   YZ=             -0.0743

 Normal termination of Gaussian 09 at Wed Aug 26 14:55:41 2020.
