 Gaussian 09, Revision D.01,
 Gaussian 09:  ES64L-G09RevD.01 24-Apr-2013

 --------------------
 #p B2PLYPD3/Def2QZVP
 --------------------

 --------
 acrolein
 --------
 Symbolic Z-matrix:
 Charge =  0 Multiplicity = 1

                         Standard orientation:
 ---------------------------------------------------------------------
 Center     Atomic      Atomic             Coordinates (Angstroms)
 Number     Number       Type             X           Y           Z
 ---------------------------------------------------------------------
      1          6           0        0.656567    0.336390    0.036738
      2          8           0        1.798946   -0.086287   -0.027133
      3          6           0       -0.560649   -0.517490    0.005123
      4          6           0       -1.743890    0.151825   -0.033378
      5          1           0       -0.422445   -1.639738    0.007917
      6          1           0       -1.914305    1.356373   -0.139363
      7          1           0       -2.678485   -0.338680    0.157341
      8          1           0        0.511498    1.487989    0.140278
 ---------------------------------------------------------------------

 SCF Done:  E(RB2PLYPD3) =  -191.593831607     A.U. after   13 cycles
 E2(B2PLYPD3) =    -0.2500521155D+00 E(B2PLYPD3) =    -0.19184388372280D+03

 The electronic state is 1-A.
 Alpha  occ. eigenvalues --  -19.72660 -10.72229 -10.67318 -10.66093  -1.18826
 Alpha  occ. eigenvalues --   -0.92038  -0.74330  -0.65417  -0.56244  -0.54782
 Alpha  occ. eigenvalues --   -0.49999  -0.46422  -0.45622  -0.34300  -0.33428
 Alpha virt. eigenvalues --   -0.02075   0.05154   0.06650   0.07561   0.09410
 Alpha virt. eigenvalues --    0.11916   0.14207   0.15385   0.16803   0.18982
 Alpha virt. eigenvalues --    0.19875   0.21573   0.24588   0.26268   0.28687

 Mulliken charges:
               1
     1  C    0.160114
     2  O   -0.348675
     3  C   -0.054205
     4  C   -0.116010
     5  H    0.113708
     6  H    0.080932
     7  H    0.098713
     8  H    0.065423
 Sum of Mulliken charges =   0.00000

 Dipole moment (field-independent basis, Debye):
    X=             -3.5934    Y=              0.5974    Z=              0.1769  Tot=              3.6470
 Quadrupole moment (field-independent basis, Debye-Ang):
   XX=            -27.7143   YY=            -21.4735   ZZ=            -25.5755
   XY=              0.4204   XZ=             -0.0336   YZ=             -0.1960

 Normal termination of Gaussian 09 at Wed Aug 26 11:13:32 2020.
