 Gaussian 09, Revision D.01,
 Gaussian 09:  ES64L-G09RevD.01 24-Apr-2013

 --------------------
 #p B2PLYPD3/Def2QZVP
 --------------------

 --------
 acrolein
 --------
 Symbolic Z-matrix:
 Charge =  0 Multiplicity = 1

                         Standard orientation:
 ---------------------------------------------------------------------
 Center     Atomic      Atomic             Coordinates (Angstroms)
 Number     Number       Type             X           Y           Z
 ---------------------------------------------------------------------
      1          6           0        0.675374    0.352458   -0.009705
      2          8           0        1.776361   -0.130847    0.011810
      3          6           0       -0.548341   -0.429251   -0.025934
      4          6           0       -1.757562    0.137959    0.001300
      5          1           0       -0.438994   -1.535706    0.040413
      6          1           0       -1.797043    1.188497    0.046638
      7          1           0       -2.733434   -0.421049    0.034150
      8          1           0        0.541758    1.448033   -0.009648
 ---------------------------------------------------------------------

 SCF Done:  E(RB2PLYPD3) =  -191.613592161     A.U. after   12 cycles
 E2(B2PLYPD3) =    -0.2469971138D+00 E(B2PLYPD3) =    -0.19186058927458D+03

 The electronic state is 1-A.
 Alpha  occ. eigenvalues --  -19.72739 -10.71357 -10.65650 -10.64511  -1.20050
 Alpha  occ. eigenvalues --   -0.93009  -0.75491  -0.66818  -0.56912  -0.56136
 Alpha  occ. eigenvalues --   -0.50561  -0.47209  -0.46231  -0.34623  -0.33927
 Alpha virt. eigenvalues --   -0.01826   0.05725   0.07021   0.08443   0.09772
 Alpha virt. eigenvalues --    0.12454   0.14055   0.15381   0.17404   0.19828
 Alpha virt. eigenvalues --    0.20030   0.21346   0.25602   0.26320   0.29055

 Mulliken charges:
               1
     1  C    0.151620
     2  O   -0.343849
     3  C   -0.032642
     4  C   -0.130930
     5  H    0.100722
     6  H    0.082623
     7  H    0.104214
     8  H    0.068243
 Sum of Mulliken charges =   0.00000

 Dipole moment (field-independent basis, Debye):
    X=             -3.4495    Y=              0.7982    Z=              0.0671  Tot=              3.5413
 Quadrupole moment (field-independent basis, Debye-Ang):
   XX=            -27.1717   YY=            -21.9005   ZZ=            -25.2167
   XY=              1.0892   XZ=             -0.2453   YZ=             -0.0386

 Normal termination of Gaussian 09 at Wed Aug 26 15:25:44 2020.
