 Gaussian 09, Revision D.01,
 Gaussian 09:  ES64L-G09RevD.01 24-Apr-2013

 --------------------
 #p B2PLYPD3/Def2QZVP
 --------------------

 --------
 acrolein
 --------
 Symbolic Z-matrix:
 Charge =  0 Multiplicity = 1

                         Standard orientation:
 ---------------------------------------------------------------------
 Center     Atomic      Atomic             Coordinates (Angstroms)
 Number     Number       Type             X           Y           Z
 ---------------------------------------------------------------------
      1          6           0       -0.661598    0.356477   -0.036251
      2          8           0       -1.787582   -0.123224    0.031213
      3          6           0        0.550858   -0.440770   -0.001121
      4          6           0        1.758687    0.145378   -0.000247
      5          1           0        0.445977   -1.575749   -0.069707
      6          1           0        1.808544    1.198960    0.121519
      7          1           0        2.712368   -0.409714    0.023912
      8          1           0       -0.553916    1.405790   -0.099719
 ---------------------------------------------------------------------

 SCF Done:  E(RB2PLYPD3) =  -191.610466070     A.U. after   13 cycles
 E2(B2PLYPD3) =    -0.2480513218D+00 E(B2PLYPD3) =    -0.19185851739137D+03

 The electronic state is 1-A.
 Alpha  occ. eigenvalues --  -19.72552 -10.71135 -10.65741 -10.65090  -1.18533
 Alpha  occ. eigenvalues --   -0.93001  -0.75881  -0.67230  -0.57002  -0.56024
 Alpha  occ. eigenvalues --   -0.50133  -0.46455  -0.46144  -0.34456  -0.34031
 Alpha virt. eigenvalues --   -0.02193   0.05692   0.06933   0.08004   0.09681
 Alpha virt. eigenvalues --    0.12555   0.14239   0.15200   0.17269   0.19617
 Alpha virt. eigenvalues --    0.20216   0.21463   0.25026   0.26528   0.29091

 Mulliken charges:
               1
     1  C    0.150397
     2  O   -0.358211
     3  C   -0.034028
     4  C   -0.128072
     5  H    0.100968
     6  H    0.083124
     7  H    0.102576
     8  H    0.083247
 Sum of Mulliken charges =   0.00000

 Dipole moment (field-independent basis, Debye):
    X=              3.5916    Y=              0.8509    Z=             -0.0879  Tot=              3.6921
 Quadrupole moment (field-independent basis, Debye-Ang):
   XX=            -27.5059   YY=            -21.6518   ZZ=            -25.2521
   XY=             -1.0802   XZ=              0.3716   YZ=              0.1943

 Normal termination of Gaussian 09 at Wed Aug 26 08:51:41 2020.
