 Gaussian 09, Revision D.01,
 Gaussian 09:  ES64L-G09RevD.01 24-Apr-2013

 --------------------
 #p B2PLYPD3/Def2QZVP
 --------------------

 --------
 acrolein
 --------
 Symbolic Z-matrix:
 Charge =  0 Multiplicity = 1

                         Standard orientation:
 ---------------------------------------------------------------------
 Center     Atomic      Atomic             Coordinates (Angstroms)
 Number     Number       Type             X           Y           Z
 ---------------------------------------------------------------------
      1          6           0       -0.691072    0.360547    0.025364
      2          8           0       -1.770204   -0.139763   -0.038940
      3          6           0        0.561802   -0.440556    0.022078
      4          6           0        1.758712    0.128529   -0.040346
      5          1           0        0.458374   -1.430701    0.138900
      6          1           0        1.850335    1.205778   -0.041082
      7          1           0        2.661256   -0.405232    0.005384
      8          1           0       -0.584986    1.457138    0.165741
 ---------------------------------------------------------------------

 SCF Done:  E(RB2PLYPD3) =  -191.611469111     A.U. after   12 cycles
 E2(B2PLYPD3) =    -0.2453829899D+00 E(B2PLYPD3) =    -0.19185685210130D+03

 The electronic state is 1-A.
 Alpha  occ. eigenvalues --  -19.72850 -10.71477 -10.64598 -10.63342  -1.20837
 Alpha  occ. eigenvalues --   -0.92906  -0.75267  -0.67818  -0.57067  -0.56837
 Alpha  occ. eigenvalues --   -0.51394  -0.47726  -0.46853  -0.34661  -0.33728
 Alpha virt. eigenvalues --   -0.01209   0.05921   0.07433   0.08356   0.09760
 Alpha virt. eigenvalues --    0.12544   0.14157   0.15419   0.18044   0.19461
 Alpha virt. eigenvalues --    0.20063   0.21676   0.25394   0.26612   0.28904

 Mulliken charges:
               1
     1  C    0.152344
     2  O   -0.334583
     3  C   -0.053285
     4  C   -0.127446
     5  H    0.111974
     6  H    0.077382
     7  H    0.098202
     8  H    0.075411
 Sum of Mulliken charges =   0.00000

 Dipole moment (field-independent basis, Debye):
    X=              3.2503    Y=              0.8015    Z=              0.2664  Tot=              3.3583
 Quadrupole moment (field-independent basis, Debye-Ang):
   XX=            -27.1201   YY=            -21.8463   ZZ=            -25.0265
   XY=             -1.1004   XZ=             -0.1625   YZ=             -0.1679

 Normal termination of Gaussian 09 at Wed Aug 26 09:51:04 2020.
