 Gaussian 09, Revision D.01,
 Gaussian 09:  ES64L-G09RevD.01 24-Apr-2013

 --------------------
 #p B2PLYPD3/Def2QZVP
 --------------------

 --------
 acrolein
 --------
 Symbolic Z-matrix:
 Charge =  0 Multiplicity = 1

                         Standard orientation:
 ---------------------------------------------------------------------
 Center     Atomic      Atomic             Coordinates (Angstroms)
 Number     Number       Type             X           Y           Z
 ---------------------------------------------------------------------
      1          6           0       -0.684662    0.332035    0.039634
      2          8           0       -1.790026   -0.117798   -0.041077
      3          6           0        0.552793   -0.417918    0.040051
      4          6           0        1.782824    0.125868   -0.063462
      5          1           0        0.354121   -1.502690    0.020158
      6          1           0        1.808436    1.171086   -0.116314
      7          1           0        2.688330   -0.453665    0.149354
      8          1           0       -0.436410    1.487742    0.178087
 ---------------------------------------------------------------------

 SCF Done:  E(RB2PLYPD3) =  -191.604472123     A.U. after   13 cycles
 E2(B2PLYPD3) =    -0.2481788109D+00 E(B2PLYPD3) =    -0.19185265093367D+03

 The electronic state is 1-A.
 Alpha  occ. eigenvalues --  -19.73485 -10.72182 -10.65820 -10.64643  -1.20828
 Alpha  occ. eigenvalues --   -0.93067  -0.76233  -0.65712  -0.56818  -0.55985
 Alpha  occ. eigenvalues --   -0.51323  -0.47538  -0.46589  -0.34633  -0.33716
 Alpha virt. eigenvalues --   -0.02599   0.05824   0.07014   0.08644   0.10004
 Alpha virt. eigenvalues --    0.12531   0.13443   0.15372   0.17172   0.19152
 Alpha virt. eigenvalues --    0.19897   0.21831   0.25024   0.26472   0.28537

 Mulliken charges:
               1
     1  C    0.167733
     2  O   -0.334233
     3  C   -0.022540
     4  C   -0.128834
     5  H    0.093169
     6  H    0.084569
     7  H    0.111368
     8  H    0.028768
 Sum of Mulliken charges =   0.00000

 Dipole moment (field-independent basis, Debye):
    X=              3.4211    Y=              0.5716    Z=              0.2180  Tot=              3.4754
 Quadrupole moment (field-independent basis, Debye-Ang):
   XX=            -27.0555   YY=            -22.4191   ZZ=            -25.2208
   XY=             -0.7006   XZ=              0.0389   YZ=             -0.2000

 Normal termination of Gaussian 09 at Wed Aug 26 14:15:20 2020.
