 Gaussian 09, Revision D.01,
 Gaussian 09:  ES64L-G09RevD.01 24-Apr-2013

 --------------------
 #p B2PLYPD3/Def2QZVP
 --------------------

 --------
 acrolein
 --------
 Symbolic Z-matrix:
 Charge =  0 Multiplicity = 1

                         Standard orientation:
 ---------------------------------------------------------------------
 Center     Atomic      Atomic             Coordinates (Angstroms)
 Number     Number       Type             X           Y           Z
 ---------------------------------------------------------------------
      1          6           0        0.646642    0.347151    0.070037
      2          8           0        1.788746   -0.109146   -0.070132
      3          6           0       -0.573985   -0.465813    0.058347
      4          6           0       -1.732452    0.140612   -0.065688
      5          1           0       -0.429769   -1.530633    0.062482
      6          1           0       -1.873347    1.284619   -0.150289
      7          1           0       -2.557024   -0.430055    0.046801
      8          1           0        0.508941    1.417536    0.225886
 ---------------------------------------------------------------------

 SCF Done:  E(RB2PLYPD3) =  -191.604209563     A.U. after   13 cycles
 E2(B2PLYPD3) =    -0.2480726831D+00 E(B2PLYPD3) =    -0.19185228224583D+03

 The electronic state is 1-A.
 Alpha  occ. eigenvalues --  -19.72668 -10.71512 -10.65160 -10.64242  -1.17765
 Alpha  occ. eigenvalues --   -0.93823  -0.75986  -0.67030  -0.57024  -0.55954
 Alpha  occ. eigenvalues --   -0.50389  -0.47063  -0.45661  -0.34969  -0.33741
 Alpha virt. eigenvalues --   -0.01891   0.05649   0.06990   0.07948   0.09706
 Alpha virt. eigenvalues --    0.12494   0.13860   0.15449   0.17375   0.18581
 Alpha virt. eigenvalues --    0.20219   0.22244   0.25206   0.26639   0.28665

 Mulliken charges:
               1
     1  C    0.154922
     2  O   -0.365480
     3  C   -0.045785
     4  C   -0.118116
     5  H    0.109456
     6  H    0.083287
     7  H    0.101349
     8  H    0.080366
 Sum of Mulliken charges =   0.00000

 Dipole moment (field-independent basis, Debye):
    X=             -3.6113    Y=              0.7360    Z=              0.2960  Tot=              3.6974
 Quadrupole moment (field-independent basis, Debye-Ang):
   XX=            -27.9538   YY=            -21.4233   ZZ=            -25.1438
   XY=              0.7515   XZ=              0.4473   YZ=             -0.1757

 Normal termination of Gaussian 09 at Wed Aug 26 14:35:39 2020.
