 Gaussian 09, Revision D.01,
 Gaussian 09:  ES64L-G09RevD.01 24-Apr-2013

 --------------------
 #p B2PLYPD3/Def2QZVP
 --------------------

 --------
 acrolein
 --------
 Symbolic Z-matrix:
 Charge =  0 Multiplicity = 1

                         Standard orientation:
 ---------------------------------------------------------------------
 Center     Atomic      Atomic             Coordinates (Angstroms)
 Number     Number       Type             X           Y           Z
 ---------------------------------------------------------------------
      1          6           0        0.699122    0.386344    0.030229
      2          8           0        1.772089   -0.165594   -0.057326
      3          6           0       -0.562326   -0.417558    0.054343
      4          6           0       -1.737111    0.102680   -0.024980
      5          1           0       -0.531130   -1.300147    0.138378
      6          1           0       -1.797135    1.174191   -0.158742
      7          1           0       -2.718615   -0.415455   -0.106494
      8          1           0        0.472056    1.437367    0.227907
 ---------------------------------------------------------------------

 SCF Done:  E(RB2PLYPD3) =  -191.571383340     A.U. after   13 cycles
 E2(B2PLYPD3) =    -0.2458628754D+00 E(B2PLYPD3) =    -0.19181724621497D+03

 The electronic state is 1-A.
 Alpha  occ. eigenvalues --  -19.73487 -10.72182 -10.64295 -10.61145  -1.20061
 Alpha  occ. eigenvalues --   -0.94273  -0.75076  -0.69970  -0.57108  -0.56726
 Alpha  occ. eigenvalues --   -0.51917  -0.47061  -0.46292  -0.35277  -0.34107
 Alpha virt. eigenvalues --   -0.01091   0.05805   0.07573   0.08186   0.09670
 Alpha virt. eigenvalues --    0.12520   0.13900   0.15419   0.18764   0.18953
 Alpha virt. eigenvalues --    0.20161   0.21010   0.25288   0.26948   0.28858

 Mulliken charges:
               1
     1  C    0.149532
     2  O   -0.338454
     3  C   -0.078502
     4  C   -0.112640
     5  H    0.137305
     6  H    0.058502
     7  H    0.091007
     8  H    0.093251
 Sum of Mulliken charges =   0.00000

 Dipole moment (field-independent basis, Debye):
    X=             -3.1962    Y=              0.9069    Z=              0.1522  Tot=              3.3259
 Quadrupole moment (field-independent basis, Debye-Ang):
   XX=            -27.1636   YY=            -22.0206   ZZ=            -24.7983
   XY=              1.3324   XZ=              0.6735   YZ=             -0.1536

 Normal termination of Gaussian 09 at Wed Aug 26 14:07:50 2020.
