 Gaussian 09, Revision D.01,
 Gaussian 09:  ES64L-G09RevD.01 24-Apr-2013

 --------------------
 #p B2PLYPD3/Def2QZVP
 --------------------

 --------
 acrolein
 --------
 Symbolic Z-matrix:
 Charge =  0 Multiplicity = 1

                         Standard orientation:
 ---------------------------------------------------------------------
 Center     Atomic      Atomic             Coordinates (Angstroms)
 Number     Number       Type             X           Y           Z
 ---------------------------------------------------------------------
      1          6           0       -0.687244    0.355476    0.021839
      2          8           0       -1.788372   -0.114828   -0.021851
      3          6           0        0.552642   -0.467916    0.042802
      4          6           0        1.760784    0.134755   -0.027445
      5          1           0        0.465670   -1.573756   -0.040424
      6          1           0        1.903000    1.285540   -0.009136
      7          1           0        2.673417   -0.389996   -0.011922
      8          1           0       -0.492199    1.462954    0.013113
 ---------------------------------------------------------------------

 SCF Done:  E(RB2PLYPD3) =  -191.609889914     A.U. after   12 cycles
 E2(B2PLYPD3) =    -0.2476930108D+00 E(B2PLYPD3) =    -0.19185758292484D+03

 The electronic state is 1-A.
 Alpha  occ. eigenvalues --  -19.72970 -10.71893 -10.66075 -10.65095  -1.20385
 Alpha  occ. eigenvalues --   -0.92015  -0.74975  -0.66205  -0.56677  -0.55547
 Alpha  occ. eigenvalues --   -0.50785  -0.47178  -0.46012  -0.34437  -0.33776
 Alpha virt. eigenvalues --   -0.01657   0.05640   0.07063   0.07958   0.09580
 Alpha virt. eigenvalues --    0.12361   0.14074   0.15377   0.17445   0.19479
 Alpha virt. eigenvalues --    0.19885   0.21591   0.25096   0.26486   0.28477

 Mulliken charges:
               1
     1  C    0.162026
     2  O   -0.335642
     3  C   -0.052578
     4  C   -0.125222
     5  H    0.104658
     6  H    0.073041
     7  H    0.102659
     8  H    0.071057
 Sum of Mulliken charges =   0.00000

 Dipole moment (field-independent basis, Debye):
    X=              3.3936    Y=              0.7242    Z=              0.0175  Tot=              3.4701
 Quadrupole moment (field-independent basis, Debye-Ang):
   XX=            -27.2881   YY=            -21.7446   ZZ=            -25.3952
   XY=             -0.8066   XZ=             -0.1817   YZ=              0.0917

 Normal termination of Gaussian 09 at Wed Aug 26 08:34:53 2020.
