 Gaussian 09, Revision D.01,
 Gaussian 09:  ES64L-G09RevD.01 24-Apr-2013

 --------------------
 #p B2PLYPD3/Def2QZVP
 --------------------

 --------
 acrolein
 --------
 Symbolic Z-matrix:
 Charge =  0 Multiplicity = 1

                         Standard orientation:
 ---------------------------------------------------------------------
 Center     Atomic      Atomic             Coordinates (Angstroms)
 Number     Number       Type             X           Y           Z
 ---------------------------------------------------------------------
      1          6           0        0.685018    0.354975   -0.063455
      2          8           0        1.772577   -0.150458    0.071598
      3          6           0       -0.494565   -0.390113   -0.097911
      4          6           0       -1.772498    0.111745    0.034480
      5          1           0       -0.433905   -1.467251   -0.005108
      6          1           0       -1.866145    1.180047    0.117471
      7          1           0       -2.925565   -0.495790    0.145045
      8          1           0        0.537265    1.527020   -0.068874
 ---------------------------------------------------------------------

 SCF Done:  E(RB2PLYPD3) =  -191.576235405     A.U. after   13 cycles
 E2(B2PLYPD3) =    -0.2506469595D+00 E(B2PLYPD3) =    -0.19182688236480D+03

 The electronic state is 1-A.
 Alpha  occ. eigenvalues --  -19.72869 -10.71911 -10.68676 -10.64715  -1.20032
 Alpha  occ. eigenvalues --   -0.92689  -0.75546  -0.66132  -0.56709  -0.55045
 Alpha  occ. eigenvalues --   -0.49044  -0.47482  -0.44908  -0.34299  -0.33830
 Alpha virt. eigenvalues --   -0.03052   0.04403   0.06756   0.08688   0.09562
 Alpha virt. eigenvalues --    0.11447   0.13769   0.15382   0.17853   0.19483
 Alpha virt. eigenvalues --    0.19836   0.19997   0.24456   0.25882   0.28309

 Mulliken charges:
               1
     1  C    0.154484
     2  O   -0.343100
     3  C   -0.027839
     4  C   -0.124674
     5  H    0.108743
     6  H    0.080972
     7  H    0.101383
     8  H    0.050031
 Sum of Mulliken charges =   0.00000

 Dipole moment (field-independent basis, Debye):
    X=             -3.6160    Y=              0.7762    Z=             -0.0156  Tot=              3.6984
 Quadrupole moment (field-independent basis, Debye-Ang):
   XX=            -26.5192   YY=            -22.3794   ZZ=            -25.5236
   XY=              1.1569   XZ=             -0.9151   YZ=             -0.0101

 Normal termination of Gaussian 09 at Wed Aug 26 10:56:03 2020.
