 Gaussian 09, Revision D.01,
 Gaussian 09:  ES64L-G09RevD.01 24-Apr-2013

 --------------------
 #p B2PLYPD3/Def2QZVP
 --------------------

 --------
 acrolein
 --------
 Symbolic Z-matrix:
 Charge =  0 Multiplicity = 1

                         Standard orientation:
 ---------------------------------------------------------------------
 Center     Atomic      Atomic             Coordinates (Angstroms)
 Number     Number       Type             X           Y           Z
 ---------------------------------------------------------------------
      1          6           0       -0.673668    0.355331   -0.011605
      2          8           0       -1.784796   -0.134051    0.021389
      3          6           0        0.563453   -0.438507   -0.036565
      4          6           0        1.744550    0.135857    0.012523
      5          1           0        0.489613   -1.484338   -0.012674
      6          1           0        1.804584    1.202526    0.012579
      7          1           0        2.652637   -0.437500    0.081505
      8          1           0       -0.474476    1.475632   -0.038636
 ---------------------------------------------------------------------

 SCF Done:  E(RB2PLYPD3) =  -191.614752656     A.U. after   12 cycles
 E2(B2PLYPD3) =    -0.2470220849D+00 E(B2PLYPD3) =    -0.19186177474068D+03

 The electronic state is 1-A.
 Alpha  occ. eigenvalues --  -19.73079 -10.72106 -10.64826 -10.63606  -1.19435
 Alpha  occ. eigenvalues --   -0.93623  -0.75392  -0.67168  -0.56807  -0.56322
 Alpha  occ. eigenvalues --   -0.50733  -0.47111  -0.46801  -0.34977  -0.33944
 Alpha virt. eigenvalues --   -0.01590   0.05808   0.07164   0.08197   0.09816
 Alpha virt. eigenvalues --    0.12661   0.13818   0.15345   0.17643   0.19849
 Alpha virt. eigenvalues --    0.19956   0.21590   0.25622   0.26411   0.28713

 Mulliken charges:
               1
     1  C    0.153978
     2  O   -0.346764
     3  C   -0.031450
     4  C   -0.129499
     5  H    0.104448
     6  H    0.081325
     7  H    0.101545
     8  H    0.066418
 Sum of Mulliken charges =   0.00000

 Dipole moment (field-independent basis, Debye):
    X=              3.4641    Y=              0.7471    Z=             -0.0004  Tot=              3.5437
 Quadrupole moment (field-independent basis, Debye-Ang):
   XX=            -27.4518   YY=            -21.8232   ZZ=            -25.1173
   XY=             -1.0692   XZ=              0.3251   YZ=             -0.0526

 Normal termination of Gaussian 09 at Wed Aug 26 15:33:00 2020.
