 Gaussian 09, Revision D.01,
 Gaussian 09:  ES64L-G09RevD.01 24-Apr-2013

 --------------------
 #p B2PLYPD3/Def2QZVP
 --------------------

 --------
 acrolein
 --------
 Symbolic Z-matrix:
 Charge =  0 Multiplicity = 1

                         Standard orientation:
 ---------------------------------------------------------------------
 Center     Atomic      Atomic             Coordinates (Angstroms)
 Number     Number       Type             X           Y           Z
 ---------------------------------------------------------------------
      1          6           0        0.675652    0.341851   -0.011671
      2          8           0        1.789342   -0.115152    0.013067
      3          6           0       -0.561537   -0.462915   -0.004031
      4          6           0       -1.756547    0.156840    0.002643
      5          1           0       -0.444984   -1.532948   -0.011588
      6          1           0       -1.852818    1.232990    0.081946
      7          1           0       -2.706958   -0.433655   -0.022694
      8          1           0        0.544614    1.440178   -0.073847
 ---------------------------------------------------------------------

 SCF Done:  E(RB2PLYPD3) =  -191.615420050     A.U. after   12 cycles
 E2(B2PLYPD3) =    -0.2471951541D+00 E(B2PLYPD3) =    -0.19186261520376D+03

 The electronic state is 1-A.
 Alpha  occ. eigenvalues --  -19.72682 -10.71443 -10.66074 -10.64675  -1.19851
 Alpha  occ. eigenvalues --   -0.92560  -0.74947  -0.67022  -0.56601  -0.55961
 Alpha  occ. eigenvalues --   -0.50364  -0.47124  -0.46848  -0.34492  -0.33679
 Alpha virt. eigenvalues --   -0.01722   0.05689   0.07148   0.08116   0.09692
 Alpha virt. eigenvalues --    0.12451   0.13982   0.15373   0.17543   0.19602
 Alpha virt. eigenvalues --    0.20104   0.21336   0.25205   0.26409   0.28689

 Mulliken charges:
               1
     1  C    0.154859
     2  O   -0.345128
     3  C   -0.044431
     4  C   -0.131869
     5  H    0.108825
     6  H    0.091027
     7  H    0.098080
     8  H    0.068637
 Sum of Mulliken charges =   0.00000

 Dipole moment (field-independent basis, Debye):
    X=             -3.4568    Y=              0.7325    Z=             -0.0260  Tot=              3.5336
 Quadrupole moment (field-independent basis, Debye-Ang):
   XX=            -27.4781   YY=            -21.6833   ZZ=            -25.2920
   XY=              0.8617   XZ=             -0.1429   YZ=              0.1067

 Normal termination of Gaussian 09 at Wed Aug 26 15:40:55 2020.
