 Gaussian 09, Revision D.01,
 Gaussian 09:  ES64L-G09RevD.01 24-Apr-2013

 --------------------
 #p B2PLYPD3/Def2QZVP
 --------------------

 --------
 acrolein
 --------
 Symbolic Z-matrix:
 Charge =  0 Multiplicity = 1

                         Standard orientation:
 ---------------------------------------------------------------------
 Center     Atomic      Atomic             Coordinates (Angstroms)
 Number     Number       Type             X           Y           Z
 ---------------------------------------------------------------------
      1          6           0        0.670176    0.372724    0.053737
      2          8           0        1.784859   -0.140396   -0.040420
      3          6           0       -0.550389   -0.430762    0.020625
      4          6           0       -1.754871    0.143163   -0.028210
      5          1           0       -0.417548   -1.512515    0.056446
      6          1           0       -1.807337    1.132153   -0.077224
      7          1           0       -2.788691   -0.439185    0.006149
      8          1           0        0.545203    1.431971    0.061084
 ---------------------------------------------------------------------

 SCF Done:  E(RB2PLYPD3) =  -191.601136383     A.U. after   13 cycles
 E2(B2PLYPD3) =    -0.2480930980D+00 E(B2PLYPD3) =    -0.19184922948147D+03

 The electronic state is 1-A.
 Alpha  occ. eigenvalues --  -19.72785 -10.71499 -10.65564 -10.64480  -1.18402
 Alpha  occ. eigenvalues --   -0.93183  -0.75716  -0.68060  -0.57480  -0.55346
 Alpha  occ. eigenvalues --   -0.50091  -0.46619  -0.46219  -0.34566  -0.34036
 Alpha virt. eigenvalues --   -0.02109   0.05523   0.07126   0.07918   0.09753
 Alpha virt. eigenvalues --    0.12319   0.14064   0.15337   0.17500   0.19852
 Alpha virt. eigenvalues --    0.20191   0.21243   0.25488   0.26287   0.29223

 Mulliken charges:
               1
     1  C    0.148300
     2  O   -0.360709
     3  C   -0.032249
     4  C   -0.137278
     5  H    0.109409
     6  H    0.089823
     7  H    0.096284
     8  H    0.086421
 Sum of Mulliken charges =   0.00000

 Dipole moment (field-independent basis, Debye):
    X=             -3.5071    Y=              0.9426    Z=              0.1641  Tot=              3.6353
 Quadrupole moment (field-independent basis, Debye-Ang):
   XX=            -27.4722   YY=            -21.6941   ZZ=            -25.2319
   XY=              1.0771   XZ=              0.2607   YZ=             -0.1330

 Normal termination of Gaussian 09 at Wed Aug 26 09:36:00 2020.
