 Gaussian 09, Revision D.01,
 Gaussian 09:  ES64L-G09RevD.01 24-Apr-2013

 --------------------
 #p B2PLYPD3/Def2QZVP
 --------------------

 --------
 acrolein
 --------
 Symbolic Z-matrix:
 Charge =  0 Multiplicity = 1

                         Standard orientation:
 ---------------------------------------------------------------------
 Center     Atomic      Atomic             Coordinates (Angstroms)
 Number     Number       Type             X           Y           Z
 ---------------------------------------------------------------------
      1          6           0        0.646861    0.314149    0.044076
      2          8           0        1.808962   -0.097566   -0.030348
      3          6           0       -0.575136   -0.462334    0.008103
      4          6           0       -1.738493    0.164652   -0.033720
      5          1           0       -0.497181   -1.547409    0.039104
      6          1           0       -1.822159    1.208233   -0.066263
      7          1           0       -2.639124   -0.399624    0.075014
      8          1           0        0.487380    1.420521    0.084175
 ---------------------------------------------------------------------

 SCF Done:  E(RB2PLYPD3) =  -191.612235918     A.U. after   13 cycles
 E2(B2PLYPD3) =    -0.2480815022D+00 E(B2PLYPD3) =    -0.19186031742052D+03

 The electronic state is 1-A.
 Alpha  occ. eigenvalues --  -19.72714 -10.71717 -10.65190 -10.64564  -1.17899
 Alpha  occ. eigenvalues --   -0.94118  -0.76197  -0.67085  -0.56836  -0.56553
 Alpha  occ. eigenvalues --   -0.49987  -0.47639  -0.46041  -0.34997  -0.33720
 Alpha virt. eigenvalues --   -0.02270   0.05767   0.06924   0.08195   0.09720
 Alpha virt. eigenvalues --    0.12789   0.14113   0.15223   0.17263   0.19692
 Alpha virt. eigenvalues --    0.20237   0.21804   0.25229   0.26446   0.28684

 Mulliken charges:
               1
     1  C    0.149019
     2  O   -0.361112
     3  C   -0.019181
     4  C   -0.123644
     5  H    0.101057
     6  H    0.091893
     7  H    0.099752
     8  H    0.062215
 Sum of Mulliken charges =   0.00000

 Dipole moment (field-independent basis, Debye):
    X=             -3.7758    Y=              0.6477    Z=              0.1872  Tot=              3.8355
 Quadrupole moment (field-independent basis, Debye-Ang):
   XX=            -27.7078   YY=            -21.7191   ZZ=            -25.1310
   XY=              0.7263   XZ=              0.0381   YZ=             -0.1511

 Normal termination of Gaussian 09 at Wed Aug 26 09:17:54 2020.
