 Gaussian 09, Revision D.01,
 Gaussian 09:  ES64L-G09RevD.01 24-Apr-2013

 --------------------
 #p B2PLYPD3/Def2QZVP
 --------------------

 --------
 acrolein
 --------
 Symbolic Z-matrix:
 Charge =  0 Multiplicity = 1

                         Standard orientation:
 ---------------------------------------------------------------------
 Center     Atomic      Atomic             Coordinates (Angstroms)
 Number     Number       Type             X           Y           Z
 ---------------------------------------------------------------------
      1          6           0        0.663273    0.354504    0.019423
      2          8           0        1.787736   -0.120715   -0.021486
      3          6           0       -0.564959   -0.456443    0.005942
      4          6           0       -1.747530    0.143658   -0.012206
      5          1           0       -0.464642   -1.562652    0.063802
      6          1           0       -1.819631    1.260725   -0.046519
      7          1           0       -2.656916   -0.406961   -0.008368
      8          1           0        0.534597    1.424295    0.084023
 ---------------------------------------------------------------------

 SCF Done:  E(RB2PLYPD3) =  -191.614400945     A.U. after   12 cycles
 E2(B2PLYPD3) =    -0.2475234907D+00 E(B2PLYPD3) =    -0.19186192443582D+03

 The electronic state is 1-A.
 Alpha  occ. eigenvalues --  -19.72668 -10.71449 -10.65507 -10.64668  -1.18795
 Alpha  occ. eigenvalues --   -0.93086  -0.75402  -0.66920  -0.56495  -0.56372
 Alpha  occ. eigenvalues --   -0.50401  -0.46602  -0.46205  -0.34753  -0.33905
 Alpha virt. eigenvalues --   -0.01684   0.05711   0.06974   0.08010   0.09678
 Alpha virt. eigenvalues --    0.12494   0.14177   0.15285   0.17338   0.19540
 Alpha virt. eigenvalues --    0.20047   0.21617   0.25392   0.26499   0.28997

 Mulliken charges:
               1
     1  C    0.154446
     2  O   -0.354422
     3  C   -0.041129
     4  C   -0.127386
     5  H    0.103493
     6  H    0.080188
     7  H    0.103978
     8  H    0.080831
 Sum of Mulliken charges =   0.00000

 Dipole moment (field-independent basis, Debye):
    X=             -3.5272    Y=              0.7943    Z=              0.1139  Tot=              3.6173
 Quadrupole moment (field-independent basis, Debye-Ang):
   XX=            -27.6440   YY=            -21.5599   ZZ=            -25.2448
   XY=              1.0320   XZ=              0.1669   YZ=             -0.1069

 Normal termination of Gaussian 09 at Wed Aug 26 16:30:24 2020.
