 Gaussian 09, Revision D.01,
 Gaussian 09:  ES64L-G09RevD.01 24-Apr-2013

 --------------------
 #p B2PLYPD3/Def2QZVP
 --------------------

 --------
 acrolein
 --------
 Symbolic Z-matrix:
 Charge =  0 Multiplicity = 1

                         Standard orientation:
 ---------------------------------------------------------------------
 Center     Atomic      Atomic             Coordinates (Angstroms)
 Number     Number       Type             X           Y           Z
 ---------------------------------------------------------------------
      1          6           0        0.669162    0.331457   -0.028135
      2          8           0        1.802492   -0.100455    0.029501
      3          6           0       -0.568356   -0.479221   -0.023588
      4          6           0       -1.760482    0.164991    0.003767
      5          1           0       -0.452652   -1.579171    0.014763
      6          1           0       -1.839425    1.222898    0.167792
      7          1           0       -2.664736   -0.391824   -0.008540
      8          1           0        0.494931    1.448371   -0.122286
 ---------------------------------------------------------------------

 SCF Done:  E(RB2PLYPD3) =  -191.612605671     A.U. after   13 cycles
 E2(B2PLYPD3) =    -0.2481710269D+00 E(B2PLYPD3) =    -0.19186077669808D+03

 The electronic state is 1-A.
 Alpha  occ. eigenvalues --  -19.72836 -10.71902 -10.65680 -10.65299  -1.19237
 Alpha  occ. eigenvalues --   -0.92615  -0.75450  -0.66445  -0.56357  -0.56181
 Alpha  occ. eigenvalues --   -0.50244  -0.47632  -0.46468  -0.34384  -0.33657
 Alpha virt. eigenvalues --   -0.02092   0.05774   0.07009   0.07849   0.09691
 Alpha virt. eigenvalues --    0.12685   0.13993   0.15365   0.17110   0.19579
 Alpha virt. eigenvalues --    0.20317   0.21601   0.24744   0.26434   0.28455

 Mulliken charges:
               1
     1  C    0.157230
     2  O   -0.347897
     3  C   -0.042443
     4  C   -0.127431
     5  H    0.104823
     6  H    0.091300
     7  H    0.101632
     8  H    0.062786
 Sum of Mulliken charges =   0.00000

 Dipole moment (field-independent basis, Debye):
    X=             -3.5677    Y=              0.6503    Z=              0.0165  Tot=              3.6265
 Quadrupole moment (field-independent basis, Debye-Ang):
   XX=            -27.5731   YY=            -21.7053   ZZ=            -25.3124
   XY=              0.6930   XZ=             -0.4148   YZ=              0.1386

 Normal termination of Gaussian 09 at Wed Aug 26 10:50:15 2020.
