 Gaussian 09, Revision D.01,
 Gaussian 09:  ES64L-G09RevD.01 24-Apr-2013

 --------------------
 #p B2PLYPD3/Def2QZVP
 --------------------

 --------
 acrolein
 --------
 Symbolic Z-matrix:
 Charge =  0 Multiplicity = 1

                         Standard orientation:
 ---------------------------------------------------------------------
 Center     Atomic      Atomic             Coordinates (Angstroms)
 Number     Number       Type             X           Y           Z
 ---------------------------------------------------------------------
      1          6           0        0.666977    0.350699    0.015940
      2          8           0        1.791377   -0.115422   -0.010073
      3          6           0       -0.560510   -0.453524    0.000350
      4          6           0       -1.751995    0.134138   -0.013059
      5          1           0       -0.460720   -1.531504    0.012532
      6          1           0       -1.862474    1.265530   -0.031008
      7          1           0       -2.647805   -0.402725    0.046946
      8          1           0        0.513156    1.404197    0.032732
 ---------------------------------------------------------------------

 SCF Done:  E(RB2PLYPD3) =  -191.613522316     A.U. after   12 cycles
 E2(B2PLYPD3) =    -0.2471222216D+00 E(B2PLYPD3) =    -0.19186064453751D+03

 The electronic state is 1-A.
 Alpha  occ. eigenvalues --  -19.72696 -10.71207 -10.65576 -10.64358  -1.19032
 Alpha  occ. eigenvalues --   -0.93125  -0.75802  -0.67352  -0.56832  -0.56305
 Alpha  occ. eigenvalues --   -0.50710  -0.46541  -0.46470  -0.34738  -0.33935
 Alpha virt. eigenvalues --   -0.01791   0.05673   0.07236   0.08145   0.09650
 Alpha virt. eigenvalues --    0.12520   0.14248   0.15354   0.17539   0.19475
 Alpha virt. eigenvalues --    0.19984   0.21734   0.25483   0.26570   0.28781

 Mulliken charges:
               1
     1  C    0.156686
     2  O   -0.354040
     3  C   -0.041948
     4  C   -0.126631
     5  H    0.105003
     6  H    0.076669
     7  H    0.103556
     8  H    0.080704
 Sum of Mulliken charges =   0.00000

 Dipole moment (field-independent basis, Debye):
    X=             -3.5468    Y=              0.7737    Z=              0.0805  Tot=              3.6311
 Quadrupole moment (field-independent basis, Debye-Ang):
   XX=            -27.5171   YY=            -21.6489   ZZ=            -25.1831
   XY=              0.9263   XZ=             -0.0310   YZ=             -0.0655

 Normal termination of Gaussian 09 at Wed Aug 26 19:06:55 2020.
