 Gaussian 09, Revision D.01,
 Gaussian 09:  ES64L-G09RevD.01 24-Apr-2013

 --------------------
 #p B2PLYPD3/Def2QZVP
 --------------------

 --------
 acrolein
 --------
 Symbolic Z-matrix:
 Charge =  0 Multiplicity = 1

                         Standard orientation:
 ---------------------------------------------------------------------
 Center     Atomic      Atomic             Coordinates (Angstroms)
 Number     Number       Type             X           Y           Z
 ---------------------------------------------------------------------
      1          6           0       -0.665216    0.340324    0.039120
      2          8           0       -1.778329   -0.115220   -0.041424
      3          6           0        0.537374   -0.435342    0.013045
      4          6           0        1.764573    0.126507   -0.042757
      5          1           0        0.365404   -1.503573    0.135742
      6          1           0        1.828311    1.183865   -0.049824
      7          1           0        2.700657   -0.413289    0.034872
      8          1           0       -0.488121    1.465824    0.154153
 ---------------------------------------------------------------------

 SCF Done:  E(RB2PLYPD3) =  -191.612523572     A.U. after   13 cycles
 E2(B2PLYPD3) =    -0.2476080279D+00 E(B2PLYPD3) =    -0.19186013160000D+03

 The electronic state is 1-A.
 Alpha  occ. eigenvalues --  -19.72842 -10.71508 -10.65835 -10.64508  -1.19921
 Alpha  occ. eigenvalues --   -0.93136  -0.76307  -0.66450  -0.56936  -0.56226
 Alpha  occ. eigenvalues --   -0.50840  -0.47545  -0.46380  -0.34481  -0.33832
 Alpha virt. eigenvalues --   -0.02343   0.05777   0.07049   0.08593   0.09823
 Alpha virt. eigenvalues --    0.12561   0.13950   0.15266   0.17400   0.19639
 Alpha virt. eigenvalues --    0.20053   0.21667   0.25230   0.26625   0.28984

 Mulliken charges:
               1
     1  C    0.155835
     2  O   -0.345879
     3  C   -0.024410
     4  C   -0.130295
     5  H    0.101695
     6  H    0.084594
     7  H    0.105736
     8  H    0.052725
 Sum of Mulliken charges =   0.00000

 Dipole moment (field-independent basis, Debye):
    X=              3.5467    Y=              0.6777    Z=              0.2864  Tot=              3.6222
 Quadrupole moment (field-independent basis, Debye-Ang):
   XX=            -27.0467   YY=            -22.0883   ZZ=            -25.1924
   XY=             -0.7357   XZ=             -0.1179   YZ=             -0.2140

 Normal termination of Gaussian 09 at Wed Aug 26 08:35:11 2020.
