 Gaussian 09, Revision D.01,
 Gaussian 09:  ES64L-G09RevD.01 24-Apr-2013

 --------------------
 #p B2PLYPD3/Def2QZVP
 --------------------

 --------
 acrolein
 --------
 Symbolic Z-matrix:
 Charge =  0 Multiplicity = 1

                         Standard orientation:
 ---------------------------------------------------------------------
 Center     Atomic      Atomic             Coordinates (Angstroms)
 Number     Number       Type             X           Y           Z
 ---------------------------------------------------------------------
      1          6           0        0.668381    0.315523   -0.043835
      2          8           0        1.802533   -0.091192    0.046894
      3          6           0       -0.577708   -0.474161   -0.077269
      4          6           0       -1.754813    0.175256    0.003688
      5          1           0       -0.513912   -1.547008    0.072434
      6          1           0       -1.839587    1.312483    0.084343
      7          1           0       -2.700689   -0.402455    0.193954
      8          1           0        0.618769    1.266808   -0.021388
 ---------------------------------------------------------------------

 SCF Done:  E(RB2PLYPD3) =  -191.590171109     A.U. after   13 cycles
 E2(B2PLYPD3) =    -0.2470395218D+00 E(B2PLYPD3) =    -0.19183721063053D+03

 The electronic state is 1-A.
 Alpha  occ. eigenvalues --  -19.72155 -10.69668 -10.66880 -10.64957  -1.19416
 Alpha  occ. eigenvalues --   -0.92700  -0.75570  -0.68709  -0.57292  -0.55708
 Alpha  occ. eigenvalues --   -0.50207  -0.46728  -0.46272  -0.34605  -0.33642
 Alpha virt. eigenvalues --   -0.01857   0.05477   0.07139   0.08112   0.09500
 Alpha virt. eigenvalues --    0.12574   0.14053   0.15304   0.17912   0.19366
 Alpha virt. eigenvalues --    0.19792   0.21334   0.24492   0.26862   0.28931

 Mulliken charges:
               1
     1  C    0.160388
     2  O   -0.354856
     3  C   -0.045329
     4  C   -0.120892
     5  H    0.106025
     6  H    0.084078
     7  H    0.094674
     8  H    0.075912
 Sum of Mulliken charges =   0.00000

 Dipole moment (field-independent basis, Debye):
    X=             -3.5680    Y=              0.7682    Z=              0.1389  Tot=              3.6524
 Quadrupole moment (field-independent basis, Debye-Ang):
   XX=            -27.7671   YY=            -21.5411   ZZ=            -25.1627
   XY=              0.9358   XZ=             -0.9099   YZ=             -0.1436

 Normal termination of Gaussian 09 at Wed Aug 26 14:52:37 2020.
