 Gaussian 09, Revision D.01,
 Gaussian 09:  ES64L-G09RevD.01 24-Apr-2013

 --------------------
 #p B2PLYPD3/Def2QZVP
 --------------------

 --------
 acrolein
 --------
 Symbolic Z-matrix:
 Charge =  0 Multiplicity = 1

                         Standard orientation:
 ---------------------------------------------------------------------
 Center     Atomic      Atomic             Coordinates (Angstroms)
 Number     Number       Type             X           Y           Z
 ---------------------------------------------------------------------
      1          6           0       -0.673796    0.351048   -0.012261
      2          8           0       -1.793195   -0.123494    0.018046
      3          6           0        0.575374   -0.462476   -0.028628
      4          6           0        1.750303    0.143684    0.007124
      5          1           0        0.454174   -1.518134    0.004282
      6          1           0        1.823511    1.248356    0.033706
      7          1           0        2.664538   -0.413264    0.056800
      8          1           0       -0.507952    1.477457   -0.036569
 ---------------------------------------------------------------------

 SCF Done:  E(RB2PLYPD3) =  -191.615134704     A.U. after   12 cycles
 E2(B2PLYPD3) =    -0.2475009274D+00 E(B2PLYPD3) =    -0.19186263563182D+03

 The electronic state is 1-A.
 Alpha  occ. eigenvalues --  -19.73012 -10.72169 -10.65375 -10.64281  -1.19267
 Alpha  occ. eigenvalues --   -0.93059  -0.74916  -0.66770  -0.56623  -0.55950
 Alpha  occ. eigenvalues --   -0.50660  -0.46955  -0.46580  -0.34894  -0.33779
 Alpha virt. eigenvalues --   -0.01519   0.05731   0.07153   0.07941   0.09734
 Alpha virt. eigenvalues --    0.12491   0.13855   0.15345   0.17461   0.19662
 Alpha virt. eigenvalues --    0.19953   0.21553   0.25411   0.26423   0.28747

 Mulliken charges:
               1
     1  C    0.159264
     2  O   -0.348016
     3  C   -0.044883
     4  C   -0.125721
     5  H    0.108219
     6  H    0.082885
     7  H    0.101425
     8  H    0.066827
 Sum of Mulliken charges =   0.00000

 Dipole moment (field-independent basis, Debye):
    X=              3.4575    Y=              0.7265    Z=              0.0178  Tot=              3.5331
 Quadrupole moment (field-independent basis, Debye-Ang):
   XX=            -27.5683   YY=            -21.7089   ZZ=            -25.2509
   XY=             -0.9257   XZ=              0.2915   YZ=             -0.0249

 Normal termination of Gaussian 09 at Wed Aug 26 15:36:59 2020.
