 Gaussian 09, Revision D.01,
 Gaussian 09:  ES64L-G09RevD.01 24-Apr-2013

 --------------------
 #p B2PLYPD3/Def2QZVP
 --------------------

 --------
 acrolein
 --------
 Symbolic Z-matrix:
 Charge =  0 Multiplicity = 1

                         Standard orientation:
 ---------------------------------------------------------------------
 Center     Atomic      Atomic             Coordinates (Angstroms)
 Number     Number       Type             X           Y           Z
 ---------------------------------------------------------------------
      1          6           0       -0.691389   -0.344368   -0.089848
      2          8           0       -1.795730    0.096959    0.069476
      3          6           0        0.561257    0.453177   -0.085249
      4          6           0        1.780169   -0.161227    0.056993
      5          1           0        0.402835    1.655393   -0.012939
      6          1           0        1.915780   -1.231295   -0.058805
      7          1           0        2.698376    0.419801    0.167824
      8          1           0       -0.551374   -1.305066    0.056737
 ---------------------------------------------------------------------

 SCF Done:  E(RB2PLYPD3) =  -191.588778670     A.U. after   14 cycles
 E2(B2PLYPD3) =    -0.2479893622D+00 E(B2PLYPD3) =    -0.19183676803257D+03

 The electronic state is 1-A.
 Alpha  occ. eigenvalues --  -19.72673 -10.70251 -10.66361 -10.66233  -1.20149
 Alpha  occ. eigenvalues --   -0.91649  -0.76124  -0.67475  -0.56905  -0.55487
 Alpha  occ. eigenvalues --   -0.50506  -0.46891  -0.45768  -0.34218  -0.33673
 Alpha virt. eigenvalues --   -0.02112   0.05732   0.06863   0.07525   0.09622
 Alpha virt. eigenvalues --    0.12553   0.14193   0.15345   0.17226   0.19485
 Alpha virt. eigenvalues --    0.20114   0.21653   0.23873   0.27438   0.28380

 Mulliken charges:
               1
     1  C    0.174817
     2  O   -0.346007
     3  C   -0.058070
     4  C   -0.137470
     5  H    0.094851
     6  H    0.089167
     7  H    0.104000
     8  H    0.078711
 Sum of Mulliken charges =   0.00000

 Dipole moment (field-independent basis, Debye):
    X=              3.4179    Y=             -0.8489    Z=             -0.1533  Tot=              3.5251
 Quadrupole moment (field-independent basis, Debye-Ang):
   XX=            -27.3750   YY=            -21.6668   ZZ=            -25.3439
   XY=              0.6697   XZ=              0.6442   YZ=              0.1936

 Normal termination of Gaussian 09 at Wed Aug 26 12:25:34 2020.
