 Gaussian 09, Revision D.01,
 Gaussian 09:  ES64L-G09RevD.01 24-Apr-2013

 --------------------
 #p B2PLYPD3/Def2QZVP
 --------------------

 --------
 acrolein
 --------
 Symbolic Z-matrix:
 Charge =  0 Multiplicity = 1

                         Standard orientation:
 ---------------------------------------------------------------------
 Center     Atomic      Atomic             Coordinates (Angstroms)
 Number     Number       Type             X           Y           Z
 ---------------------------------------------------------------------
      1          6           0       -0.674629    0.357252   -0.026965
      2          8           0       -1.785613   -0.142538    0.068192
      3          6           0        0.554261   -0.439713   -0.114400
      4          6           0        1.732923    0.139917    0.055157
      5          1           0        0.497391   -1.511655   -0.097586
      6          1           0        1.780162    1.137828   -0.012263
      7          1           0        2.792548   -0.405048    0.239725
      8          1           0       -0.460528    1.574440   -0.158168
 ---------------------------------------------------------------------

 SCF Done:  E(RB2PLYPD3) =  -191.588542343     A.U. after   13 cycles
 E2(B2PLYPD3) =    -0.2495767390D+00 E(B2PLYPD3) =    -0.19183811908242D+03

 The electronic state is 1-A.
 Alpha  occ. eigenvalues --  -19.73454 -10.73434 -10.65773 -10.64403  -1.19275
 Alpha  occ. eigenvalues --   -0.93577  -0.74807  -0.66516  -0.56023  -0.55697
 Alpha  occ. eigenvalues --   -0.49936  -0.47130  -0.46187  -0.34893  -0.33865
 Alpha virt. eigenvalues --   -0.01909   0.05428   0.06426   0.07834   0.09697
 Alpha virt. eigenvalues --    0.12106   0.13579   0.15186   0.17243   0.19572
 Alpha virt. eigenvalues --    0.20482   0.21160   0.24435   0.25964   0.28594

 Mulliken charges:
               1
     1  C    0.159457
     2  O   -0.342301
     3  C   -0.028871
     4  C   -0.121612
     5  H    0.107140
     6  H    0.087557
     7  H    0.093022
     8  H    0.045609
 Sum of Mulliken charges =   0.00000

 Dipole moment (field-independent basis, Debye):
    X=              3.5116    Y=              0.7045    Z=             -0.1094  Tot=              3.5832
 Quadrupole moment (field-independent basis, Debye-Ang):
   XX=            -27.1940   YY=            -22.1587   ZZ=            -25.3098
   XY=             -0.9373   XZ=              0.8442   YZ=             -0.1242

 Normal termination of Gaussian 09 at Wed Aug 26 11:52:46 2020.
