 Gaussian 09, Revision D.01,
 Gaussian 09:  ES64L-G09RevD.01 24-Apr-2013

 --------------------
 #p B2PLYPD3/Def2QZVP
 --------------------

 --------
 acrolein
 --------
 Symbolic Z-matrix:
 Charge =  0 Multiplicity = 1

                         Standard orientation:
 ---------------------------------------------------------------------
 Center     Atomic      Atomic             Coordinates (Angstroms)
 Number     Number       Type             X           Y           Z
 ---------------------------------------------------------------------
      1          6           0       -0.666203    0.342165    0.008751
      2          8           0       -1.791082   -0.113152   -0.017244
      3          6           0        0.569588   -0.468915    0.021136
      4          6           0        1.747891    0.151042   -0.008564
      5          1           0        0.446087   -1.547331    0.015047
      6          1           0        1.842667    1.225400   -0.048257
      7          1           0        2.655327   -0.389253   -0.028226
      8          1           0       -0.523085    1.470646    0.071452
 ---------------------------------------------------------------------

 SCF Done:  E(RB2PLYPD3) =  -191.615552992     A.U. after   12 cycles
 E2(B2PLYPD3) =    -0.2473579754D+00 E(B2PLYPD3) =    -0.19186291096737D+03

 The electronic state is 1-A.
 Alpha  occ. eigenvalues --  -19.72793 -10.71904 -10.65195 -10.64681  -1.19286
 Alpha  occ. eigenvalues --   -0.93062  -0.75342  -0.66639  -0.56657  -0.56319
 Alpha  occ. eigenvalues --   -0.50448  -0.47257  -0.46603  -0.34770  -0.33666
 Alpha virt. eigenvalues --   -0.01662   0.05795   0.07086   0.08034   0.09708
 Alpha virt. eigenvalues --    0.12604   0.14069   0.15330   0.17248   0.19776
 Alpha virt. eigenvalues --    0.20109   0.21676   0.25337   0.26339   0.28694

 Mulliken charges:
               1
     1  C    0.156755
     2  O   -0.348519
     3  C   -0.041707
     4  C   -0.125815
     5  H    0.107408
     6  H    0.087065
     7  H    0.100321
     8  H    0.064492
 Sum of Mulliken charges =   0.00000

 Dipole moment (field-independent basis, Debye):
    X=              3.5234    Y=              0.6986    Z=              0.0180  Tot=              3.5921
 Quadrupole moment (field-independent basis, Debye-Ang):
   XX=            -27.4719   YY=            -21.6908   ZZ=            -25.2345
   XY=             -0.7820   XZ=             -0.2341   YZ=             -0.0282

 Normal termination of Gaussian 09 at Wed Aug 26 16:28:00 2020.
