 Gaussian 09, Revision D.01,
 Gaussian 09:  ES64L-G09RevD.01 24-Apr-2013

 --------------------
 #p B2PLYPD3/Def2QZVP
 --------------------

 --------
 acrolein
 --------
 Symbolic Z-matrix:
 Charge =  0 Multiplicity = 1

                         Standard orientation:
 ---------------------------------------------------------------------
 Center     Atomic      Atomic             Coordinates (Angstroms)
 Number     Number       Type             X           Y           Z
 ---------------------------------------------------------------------
      1          6           0       -0.663466    0.341999    0.043531
      2          8           0       -1.788946   -0.101882   -0.027778
      3          6           0        0.574217   -0.467513    0.032995
      4          6           0        1.760279    0.147609   -0.026897
      5          1           0        0.397610   -1.612416   -0.018329
      6          1           0        1.836925    1.286923    0.008516
      7          1           0        2.590376   -0.391057   -0.031212
      8          1           0       -0.539530    1.399040   -0.034529
 ---------------------------------------------------------------------

 SCF Done:  E(RB2PLYPD3) =  -191.602033748     A.U. after   13 cycles
 E2(B2PLYPD3) =    -0.2474330139D+00 E(B2PLYPD3) =    -0.19184946676166D+03

 The electronic state is 1-A.
 Alpha  occ. eigenvalues --  -19.72612 -10.71064 -10.65400 -10.65199  -1.19310
 Alpha  occ. eigenvalues --   -0.92850  -0.76003  -0.66542  -0.57092  -0.55945
 Alpha  occ. eigenvalues --   -0.50654  -0.46637  -0.46338  -0.34717  -0.33671
 Alpha virt. eigenvalues --   -0.01732   0.05743   0.06963   0.07982   0.09680
 Alpha virt. eigenvalues --    0.12509   0.14103   0.15319   0.17088   0.19517
 Alpha virt. eigenvalues --    0.20007   0.22118   0.25037   0.26700   0.28849

 Mulliken charges:
               1
     1  C    0.163176
     2  O   -0.351487
     3  C   -0.047750
     4  C   -0.129977
     5  H    0.099235
     6  H    0.085147
     7  H    0.109980
     8  H    0.071675
 Sum of Mulliken charges =   0.00000

 Dipole moment (field-independent basis, Debye):
    X=              3.4867    Y=              0.7345    Z=              0.0599  Tot=              3.5637
 Quadrupole moment (field-independent basis, Debye-Ang):
   XX=            -27.6588   YY=            -21.5286   ZZ=            -25.2558
   XY=             -0.7802   XZ=             -0.1992   YZ=              0.0620

 Normal termination of Gaussian 09 at Wed Aug 26 08:37:35 2020.
