 Gaussian 09, Revision D.01,
 Gaussian 09:  ES64L-G09RevD.01 24-Apr-2013

 --------------------
 #p B2PLYPD3/Def2QZVP
 --------------------

 --------
 acrolein
 --------
 Symbolic Z-matrix:
 Charge =  0 Multiplicity = 1

                         Standard orientation:
 ---------------------------------------------------------------------
 Center     Atomic      Atomic             Coordinates (Angstroms)
 Number     Number       Type             X           Y           Z
 ---------------------------------------------------------------------
      1          6           0       -0.658978   -0.310191   -0.028958
      2          8           0       -1.798422    0.068743    0.063610
      3          6           0        0.540448    0.486351   -0.103642
      4          6           0        1.746049   -0.176066    0.057817
      5          1           0        0.399093    1.685450   -0.056583
      6          1           0        1.906928   -1.287354   -0.058155
      7          1           0        2.809318    0.407131    0.209373
      8          1           0       -0.493083   -1.355737   -0.154823
 ---------------------------------------------------------------------

 SCF Done:  E(RB2PLYPD3) =  -191.584928351     A.U. after   14 cycles
 E2(B2PLYPD3) =    -0.2499586818D+00 E(B2PLYPD3) =    -0.19183488703282D+03

 The electronic state is 1-A.
 Alpha  occ. eigenvalues --  -19.72300 -10.70682 -10.68792 -10.66670  -1.19550
 Alpha  occ. eigenvalues --   -0.92137  -0.74895  -0.66145  -0.56512  -0.54579
 Alpha  occ. eigenvalues --   -0.49374  -0.46800  -0.45352  -0.34153  -0.33529
 Alpha virt. eigenvalues --   -0.02590   0.05089   0.06191   0.08122   0.09373
 Alpha virt. eigenvalues --    0.12034   0.13973   0.15334   0.16878   0.19613
 Alpha virt. eigenvalues --    0.19916   0.20548   0.24055   0.26675   0.28031

 Mulliken charges:
               1
     1  C    0.162220
     2  O   -0.351010
     3  C   -0.034329
     4  C   -0.123061
     5  H    0.099683
     6  H    0.095519
     7  H    0.090709
     8  H    0.060270
 Sum of Mulliken charges =   0.00000

 Dipole moment (field-independent basis, Debye):
    X=              3.7052    Y=             -0.6615    Z=             -0.1526  Tot=              3.7668
 Quadrupole moment (field-independent basis, Debye-Ang):
   XX=            -27.4644   YY=            -21.7248   ZZ=            -25.5751
   XY=              0.2422   XZ=              0.7287   YZ=              0.1947

 Normal termination of Gaussian 09 at Wed Aug 26 13:19:24 2020.
