 Gaussian 09, Revision D.01,
 Gaussian 09:  ES64L-G09RevD.01 24-Apr-2013

 --------------------
 #p B2PLYPD3/Def2QZVP
 --------------------

 --------
 acrolein
 --------
 Symbolic Z-matrix:
 Charge =  0 Multiplicity = 1

                         Standard orientation:
 ---------------------------------------------------------------------
 Center     Atomic      Atomic             Coordinates (Angstroms)
 Number     Number       Type             X           Y           Z
 ---------------------------------------------------------------------
      1          6           0        0.651734    0.303234   -0.054069
      2          8           0        1.793524   -0.081611    0.052760
      3          6           0       -0.550121   -0.453891   -0.062448
      4          6           0       -1.750345    0.143012    0.016388
      5          1           0       -0.323587   -1.628664    0.069650
      6          1           0       -1.920754    1.216457    0.223316
      7          1           0       -2.729603   -0.376512    0.021221
      8          1           0        0.518146    1.487479   -0.135490
 ---------------------------------------------------------------------

 SCF Done:  E(RB2PLYPD3) =  -191.593797394     A.U. after   13 cycles
 E2(B2PLYPD3) =    -0.2494023151D+00 E(B2PLYPD3) =    -0.19184319970902D+03

 The electronic state is 1-A.
 Alpha  occ. eigenvalues --  -19.72743 -10.71783 -10.67095 -10.66112  -1.19526
 Alpha  occ. eigenvalues --   -0.93329  -0.76220  -0.64529  -0.57444  -0.55225
 Alpha  occ. eigenvalues --   -0.49820  -0.47158  -0.45390  -0.34826  -0.33287
 Alpha virt. eigenvalues --   -0.02775   0.05495   0.06282   0.08565   0.09689
 Alpha virt. eigenvalues --    0.12230   0.13829   0.15311   0.16571   0.19498
 Alpha virt. eigenvalues --    0.20074   0.21312   0.25060   0.26195   0.28437

 Mulliken charges:
               1
     1  C    0.162442
     2  O   -0.345344
     3  C   -0.030359
     4  C   -0.104067
     5  H    0.097030
     6  H    0.090700
     7  H    0.099812
     8  H    0.029786
 Sum of Mulliken charges =   0.00000

 Dipole moment (field-independent basis, Debye):
    X=             -3.7410    Y=              0.5143    Z=              0.0657  Tot=              3.7768
 Quadrupole moment (field-independent basis, Debye-Ang):
   XX=            -26.9043   YY=            -22.2959   ZZ=            -25.3623
   XY=              0.2062   XZ=             -0.7199   YZ=              0.1017

 Normal termination of Gaussian 09 at Wed Aug 26 14:03:05 2020.
