 Gaussian 09, Revision D.01,
 Gaussian 09:  ES64L-G09RevD.01 24-Apr-2013

 --------------------
 #p B2PLYPD3/Def2QZVP
 --------------------

 --------
 acrolein
 --------
 Symbolic Z-matrix:
 Charge =  0 Multiplicity = 1

                         Standard orientation:
 ---------------------------------------------------------------------
 Center     Atomic      Atomic             Coordinates (Angstroms)
 Number     Number       Type             X           Y           Z
 ---------------------------------------------------------------------
      1          6           0       -0.672795    0.362687   -0.048400
      2          8           0       -1.774988   -0.134926    0.019544
      3          6           0        0.527078   -0.428452    0.022518
      4          6           0        1.746178    0.104191   -0.017358
      5          1           0        0.413958   -1.457423    0.026683
      6          1           0        1.865325    1.273835    0.210473
      7          1           0        2.737463   -0.484019   -0.084605
      8          1           0       -0.419608    1.516460   -0.049465
 ---------------------------------------------------------------------

 SCF Done:  E(RB2PLYPD3) =  -191.595051778     A.U. after   13 cycles
 E2(B2PLYPD3) =    -0.2491363144D+00 E(B2PLYPD3) =    -0.19184418809230D+03

 The electronic state is 1-A.
 Alpha  occ. eigenvalues --  -19.73206 -10.72267 -10.67395 -10.63677  -1.19841
 Alpha  occ. eigenvalues --   -0.93181  -0.74869  -0.66278  -0.56386  -0.55178
 Alpha  occ. eigenvalues --   -0.50498  -0.47326  -0.45355  -0.34675  -0.33901
 Alpha virt. eigenvalues --   -0.02236   0.05192   0.06958   0.08101   0.09772
 Alpha virt. eigenvalues --    0.12023   0.13565   0.15278   0.17617   0.19249
 Alpha virt. eigenvalues --    0.19925   0.21028   0.24783   0.26472   0.28649

 Mulliken charges:
               1
     1  C    0.170568
     2  O   -0.344336
     3  C   -0.038355
     4  C   -0.121941
     5  H    0.109594
     6  H    0.070824
     7  H    0.100328
     8  H    0.053318
 Sum of Mulliken charges =   0.00000

 Dipole moment (field-independent basis, Debye):
    X=              3.4738    Y=              0.6359    Z=              0.0018  Tot=              3.5316
 Quadrupole moment (field-independent basis, Debye-Ang):
   XX=            -27.2474   YY=            -22.1337   ZZ=            -25.3074
   XY=             -1.0160   XZ=              0.1914   YZ=              0.2809

 Normal termination of Gaussian 09 at Wed Aug 26 14:33:05 2020.
