 Gaussian 09, Revision D.01,
 Gaussian 09:  ES64L-G09RevD.01 24-Apr-2013

 --------------------
 #p B2PLYPD3/Def2QZVP
 --------------------

 --------
 acrolein
 --------
 Symbolic Z-matrix:
 Charge =  0 Multiplicity = 1

                         Standard orientation:
 ---------------------------------------------------------------------
 Center     Atomic      Atomic             Coordinates (Angstroms)
 Number     Number       Type             X           Y           Z
 ---------------------------------------------------------------------
      1          6           0        0.683168    0.400427    0.058982
      2          8           0        1.791716   -0.150054   -0.072799
      3          6           0       -0.568373   -0.423516    0.081598
      4          6           0       -1.748127    0.112363   -0.071493
      5          1           0       -0.454501   -1.477989    0.185774
      6          1           0       -1.957245    1.236353    0.056502
      7          1           0       -2.638176   -0.483127   -0.178653
      8          1           0        0.516185    1.389549    0.104244
 ---------------------------------------------------------------------

 SCF Done:  E(RB2PLYPD3) =  -191.599678471     A.U. after   14 cycles
 E2(B2PLYPD3) =    -0.2480952453D+00 E(B2PLYPD3) =    -0.19184777371670D+03

 The electronic state is 1-A.
 Alpha  occ. eigenvalues --  -19.73107 -10.71558 -10.65310 -10.63895  -1.17698
 Alpha  occ. eigenvalues --   -0.93149  -0.76183  -0.68048  -0.56527  -0.56159
 Alpha  occ. eigenvalues --   -0.50982  -0.46490  -0.44989  -0.34730  -0.34155
 Alpha virt. eigenvalues --   -0.01724   0.05555   0.06914   0.07904   0.09544
 Alpha virt. eigenvalues --    0.12342   0.14053   0.15304   0.17884   0.19535
 Alpha virt. eigenvalues --    0.19879   0.21742   0.24836   0.26948   0.28120

 Mulliken charges:
               1
     1  C    0.164655
     2  O   -0.363231
     3  C   -0.054313
     4  C   -0.127341
     5  H    0.109064
     6  H    0.071763
     7  H    0.095618
     8  H    0.103785
 Sum of Mulliken charges =   0.00000

 Dipole moment (field-independent basis, Debye):
    X=             -3.4480    Y=              1.0003    Z=              0.3447  Tot=              3.6066
 Quadrupole moment (field-independent basis, Debye-Ang):
   XX=            -27.7547   YY=            -21.5361   ZZ=            -25.1261
   XY=              1.1479   XZ=              0.5730   YZ=              0.0525

 Normal termination of Gaussian 09 at Wed Aug 26 11:02:56 2020.
