 Gaussian 09, Revision D.01,
 Gaussian 09:  ES64L-G09RevD.01 24-Apr-2013

 --------------------
 #p B2PLYPD3/Def2QZVP
 --------------------

 --------
 acrolein
 --------
 Symbolic Z-matrix:
 Charge =  0 Multiplicity = 1

                         Standard orientation:
 ---------------------------------------------------------------------
 Center     Atomic      Atomic             Coordinates (Angstroms)
 Number     Number       Type             X           Y           Z
 ---------------------------------------------------------------------
      1          6           0       -0.667641    0.354770   -0.043341
      2          8           0       -1.789891   -0.133543    0.038888
      3          6           0        0.563396   -0.429853   -0.051609
      4          6           0        1.759496    0.119252    0.010319
      5          1           0        0.456666   -1.494416    0.007860
      6          1           0        1.825221    1.239218    0.050258
      7          1           0        2.594630   -0.440669    0.136584
      8          1           0       -0.488903    1.499202    0.001980
 ---------------------------------------------------------------------

 SCF Done:  E(RB2PLYPD3) =  -191.608434544     A.U. after   13 cycles
 E2(B2PLYPD3) =    -0.2480886527D+00 E(B2PLYPD3) =    -0.19185652319693D+03

 The electronic state is 1-A.
 Alpha  occ. eigenvalues --  -19.73140 -10.72384 -10.64996 -10.64052  -1.18764
 Alpha  occ. eigenvalues --   -0.93685  -0.76064  -0.66321  -0.57542  -0.55741
 Alpha  occ. eigenvalues --   -0.50781  -0.46649  -0.46424  -0.34990  -0.33996
 Alpha virt. eigenvalues --   -0.02035   0.05751   0.07035   0.08190   0.09813
 Alpha virt. eigenvalues --    0.12497   0.13833   0.15321   0.17390   0.19583
 Alpha virt. eigenvalues --    0.19808   0.22070   0.25235   0.26553   0.28784

 Mulliken charges:
               1
     1  C    0.162226
     2  O   -0.352489
     3  C   -0.032449
     4  C   -0.123618
     5  H    0.101599
     6  H    0.077259
     7  H    0.107909
     8  H    0.059564
 Sum of Mulliken charges =   0.00000

 Dipole moment (field-independent basis, Debye):
    X=              3.5353    Y=              0.7105    Z=              0.0393  Tot=              3.6063
 Quadrupole moment (field-independent basis, Debye-Ang):
   XX=            -27.5341   YY=            -21.8548   ZZ=            -25.1638
   XY=             -1.0939   XZ=              0.6135   YZ=             -0.0545

 Normal termination of Gaussian 09 at Wed Aug 26 09:33:52 2020.
