 Gaussian 09, Revision D.01,
 Gaussian 09:  ES64L-G09RevD.01 24-Apr-2013

 --------------------
 #p B2PLYPD3/Def2QZVP
 --------------------

 --------
 acrolein
 --------
 Symbolic Z-matrix:
 Charge =  0 Multiplicity = 1

                         Standard orientation:
 ---------------------------------------------------------------------
 Center     Atomic      Atomic             Coordinates (Angstroms)
 Number     Number       Type             X           Y           Z
 ---------------------------------------------------------------------
      1          6           0       -0.671740    0.345007    0.005279
      2          8           0       -1.766715   -0.148370   -0.029648
      3          6           0        0.525678   -0.400627    0.072415
      4          6           0        1.761822    0.114209   -0.044055
      5          1           0        0.450740   -1.504817    0.013681
      6          1           0        1.721495    1.183222    0.049650
      7          1           0        2.772615   -0.434280   -0.081215
      8          1           0       -0.505699    1.591298    0.053232
 ---------------------------------------------------------------------

 SCF Done:  E(RB2PLYPD3) =  -191.593355580     A.U. after   13 cycles
 E2(B2PLYPD3) =    -0.2494610590D+00 E(B2PLYPD3) =    -0.19184281663899D+03

 The electronic state is 1-A.
 Alpha  occ. eigenvalues --  -19.73257 -10.72688 -10.66606 -10.64486  -1.20530
 Alpha  occ. eigenvalues --   -0.93508  -0.75711  -0.65116  -0.56608  -0.55730
 Alpha  occ. eigenvalues --   -0.50581  -0.47781  -0.45139  -0.34725  -0.33875
 Alpha virt. eigenvalues --   -0.02510   0.05588   0.06401   0.08669   0.09877
 Alpha virt. eigenvalues --    0.12057   0.13604   0.15016   0.17206   0.19667
 Alpha virt. eigenvalues --    0.20206   0.20863   0.24865   0.26119   0.29180

 Mulliken charges:
               1
     1  C    0.159837
     2  O   -0.330866
     3  C   -0.021777
     4  C   -0.117008
     5  H    0.095706
     6  H    0.077404
     7  H    0.112395
     8  H    0.024310
 Sum of Mulliken charges =   0.00000

 Dipole moment (field-independent basis, Debye):
    X=              3.5446    Y=              0.5585    Z=              0.0478  Tot=              3.5887
 Quadrupole moment (field-independent basis, Debye-Ang):
   XX=            -26.5935   YY=            -22.5369   ZZ=            -25.3602
   XY=             -1.3284   XZ=             -0.3013   YZ=              0.1629

 Normal termination of Gaussian 09 at Wed Aug 26 14:57:53 2020.
