 Gaussian 09, Revision D.01,
 Gaussian 09:  ES64L-G09RevD.01 24-Apr-2013

 --------------------
 #p B2PLYPD3/Def2QZVP
 --------------------

 --------
 acrolein
 --------
 Symbolic Z-matrix:
 Charge =  0 Multiplicity = 1

                         Standard orientation:
 ---------------------------------------------------------------------
 Center     Atomic      Atomic             Coordinates (Angstroms)
 Number     Number       Type             X           Y           Z
 ---------------------------------------------------------------------
      1          6           0       -0.667486    0.351479    0.063743
      2          8           0       -1.767329   -0.145814   -0.020513
      3          6           0        0.513044   -0.401613   -0.027036
      4          6           0        1.750636    0.112557   -0.027560
      5          1           0        0.428899   -1.475013    0.019992
      6          1           0        1.769417    1.200572   -0.090525
      7          1           0        2.871918   -0.458222    0.171864
      8          1           0       -0.508764    1.524639    0.007892
 ---------------------------------------------------------------------

 SCF Done:  E(RB2PLYPD3) =  -191.583361586     A.U. after   13 cycles
 E2(B2PLYPD3) =    -0.2497706142D+00 E(B2PLYPD3) =    -0.19183313220065D+03

 The electronic state is 1-A.
 Alpha  occ. eigenvalues --  -19.72959 -10.71987 -10.67756 -10.64051  -1.19876
 Alpha  occ. eigenvalues --   -0.93510  -0.75239  -0.66156  -0.56313  -0.55366
 Alpha  occ. eigenvalues --   -0.49569  -0.47442  -0.45068  -0.34675  -0.33873
 Alpha virt. eigenvalues --   -0.02723   0.04883   0.06670   0.08453   0.09686
 Alpha virt. eigenvalues --    0.11726   0.13922   0.15290   0.17615   0.19298
 Alpha virt. eigenvalues --    0.19802   0.20531   0.25298   0.26165   0.28674

 Mulliken charges:
               1
     1  C    0.158948
     2  O   -0.342474
     3  C   -0.023888
     4  C   -0.123606
     5  H    0.103779
     6  H    0.076949
     7  H    0.105776
     8  H    0.044515
 Sum of Mulliken charges =   0.00000

 Dipole moment (field-independent basis, Debye):
    X=              3.5548    Y=              0.7137    Z=              0.2135  Tot=              3.6321
 Quadrupole moment (field-independent basis, Debye-Ang):
   XX=            -26.8255   YY=            -22.3414   ZZ=            -25.3419
   XY=             -1.2209   XZ=              0.2829   YZ=             -0.2585

 Normal termination of Gaussian 09 at Wed Aug 26 12:08:50 2020.
