 Gaussian 09, Revision D.01,
 Gaussian 09:  ES64L-G09RevD.01 24-Apr-2013

 --------------------
 #p B2PLYPD3/Def2QZVP
 --------------------

 --------
 acrolein
 --------
 Symbolic Z-matrix:
 Charge =  0 Multiplicity = 1

                         Standard orientation:
 ---------------------------------------------------------------------
 Center     Atomic      Atomic             Coordinates (Angstroms)
 Number     Number       Type             X           Y           Z
 ---------------------------------------------------------------------
      1          6           0        0.668489    0.344893    0.023689
      2          8           0        1.797439   -0.116421   -0.022409
      3          6           0       -0.572567   -0.448909    0.014788
      4          6           0       -1.753090    0.139109   -0.022459
      5          1           0       -0.457299   -1.551168    0.015758
      6          1           0       -1.862471    1.247110   -0.076743
      7          1           0       -2.620178   -0.419118    0.053308
      8          1           0        0.503443    1.443986    0.090844
 ---------------------------------------------------------------------

 SCF Done:  E(RB2PLYPD3) =  -191.613370675     A.U. after   13 cycles
 E2(B2PLYPD3) =    -0.2474946138D+00 E(B2PLYPD3) =    -0.19186086528897D+03

 The electronic state is 1-A.
 Alpha  occ. eigenvalues --  -19.72923 -10.71823 -10.65133 -10.64577  -1.18942
 Alpha  occ. eigenvalues --   -0.93345  -0.75759  -0.66454  -0.56910  -0.56138
 Alpha  occ. eigenvalues --   -0.50678  -0.46639  -0.46436  -0.34951  -0.33852
 Alpha virt. eigenvalues --   -0.01794   0.05759   0.07017   0.08161   0.09711
 Alpha virt. eigenvalues --    0.12576   0.14016   0.15366   0.17246   0.19410
 Alpha virt. eigenvalues --    0.20067   0.21968   0.25419   0.26536   0.28587

 Mulliken charges:
               1
     1  C    0.158961
     2  O   -0.351732
     3  C   -0.038620
     4  C   -0.126161
     5  H    0.100401
     6  H    0.082525
     7  H    0.105207
     8  H    0.069421
 Sum of Mulliken charges =   0.00000

 Dipole moment (field-independent basis, Debye):
    X=             -3.5477    Y=              0.7315    Z=              0.1026  Tot=              3.6238
 Quadrupole moment (field-independent basis, Debye-Ang):
   XX=            -27.5751   YY=            -21.7057   ZZ=            -25.2003
   XY=              0.8634   XZ=              0.0923   YZ=             -0.1004

 Normal termination of Gaussian 09 at Wed Aug 26 18:32:13 2020.
