 Gaussian 09, Revision D.01,
 Gaussian 09:  ES64L-G09RevD.01 24-Apr-2013

 --------------------
 #p B2PLYPD3/Def2QZVP
 --------------------

 --------
 acrolein
 --------
 Symbolic Z-matrix:
 Charge =  0 Multiplicity = 1

                         Standard orientation:
 ---------------------------------------------------------------------
 Center     Atomic      Atomic             Coordinates (Angstroms)
 Number     Number       Type             X           Y           Z
 ---------------------------------------------------------------------
      1          6           0        0.677310    0.345111   -0.027485
      2          8           0        1.798523   -0.108920    0.037228
      3          6           0       -0.572339   -0.491941   -0.066688
      4          6           0       -1.767127    0.150564    0.043459
      5          1           0       -0.458908   -1.535614   -0.009557
      6          1           0       -1.861374    1.259161   -0.053709
      7          1           0       -2.605414   -0.364693    0.106588
      8          1           0        0.510449    1.490096   -0.036860
 ---------------------------------------------------------------------

 SCF Done:  E(RB2PLYPD3) =  -191.603858897     A.U. after   13 cycles
 E2(B2PLYPD3) =    -0.2480149683D+00 E(B2PLYPD3) =    -0.19185187386536D+03

 The electronic state is 1-A.
 Alpha  occ. eigenvalues --  -19.72940 -10.72323 -10.65190 -10.64946  -1.19490
 Alpha  occ. eigenvalues --   -0.92352  -0.75507  -0.66687  -0.57150  -0.55583
 Alpha  occ. eigenvalues --   -0.50568  -0.47979  -0.46545  -0.34280  -0.33615
 Alpha virt. eigenvalues --   -0.01809   0.05799   0.07225   0.07603   0.09663
 Alpha virt. eigenvalues --    0.12575   0.14001   0.15341   0.17359   0.19829
 Alpha virt. eigenvalues --    0.19978   0.21833   0.24465   0.26481   0.28465

 Mulliken charges:
               1
     1  C    0.160458
     2  O   -0.343141
     3  C   -0.055281
     4  C   -0.125705
     5  H    0.111245
     6  H    0.085728
     7  H    0.103013
     8  H    0.063684
 Sum of Mulliken charges =   0.00000

 Dipole moment (field-independent basis, Debye):
    X=             -3.4822    Y=              0.6650    Z=             -0.0748  Tot=              3.5459
 Quadrupole moment (field-independent basis, Debye-Ang):
   XX=            -27.4915   YY=            -21.6263   ZZ=            -25.3193
   XY=              0.7507   XZ=             -0.3755   YZ=             -0.1595

 Normal termination of Gaussian 09 at Wed Aug 26 08:59:56 2020.
