 Gaussian 09, Revision D.01,
 Gaussian 09:  ES64L-G09RevD.01 24-Apr-2013

 --------------------
 #p B2PLYPD3/Def2QZVP
 --------------------

 --------
 acrolein
 --------
 Symbolic Z-matrix:
 Charge =  0 Multiplicity = 1

                         Standard orientation:
 ---------------------------------------------------------------------
 Center     Atomic      Atomic             Coordinates (Angstroms)
 Number     Number       Type             X           Y           Z
 ---------------------------------------------------------------------
      1          6           0       -0.666433    0.358501   -0.035360
      2          8           0       -1.786596   -0.130826    0.035580
      3          6           0        0.553791   -0.454440   -0.030970
      4          6           0        1.744944    0.127925    0.022201
      5          1           0        0.479183   -1.442177   -0.073211
      6          1           0        1.805905    1.238592    0.007926
      7          1           0        2.666462   -0.427194    0.089433
      8          1           0       -0.452596    1.485467   -0.044014
 ---------------------------------------------------------------------

 SCF Done:  E(RB2PLYPD3) =  -191.607592096     A.U. after   13 cycles
 E2(B2PLYPD3) =    -0.2478992278D+00 E(B2PLYPD3) =    -0.19185549132348D+03

 The electronic state is 1-A.
 Alpha  occ. eigenvalues --  -19.73043 -10.72263 -10.65585 -10.63328  -1.18839
 Alpha  occ. eigenvalues --   -0.93528  -0.75261  -0.67794  -0.56812  -0.55878
 Alpha  occ. eigenvalues --   -0.50581  -0.47428  -0.46423  -0.34732  -0.33972
 Alpha virt. eigenvalues --   -0.01836   0.05666   0.07285   0.07942   0.09757
 Alpha virt. eigenvalues --    0.12508   0.13708   0.15312   0.17945   0.19650
 Alpha virt. eigenvalues --    0.19924   0.21343   0.25484   0.26454   0.28972

 Mulliken charges:
               1
     1  C    0.156872
     2  O   -0.353011
     3  C   -0.037488
     4  C   -0.125393
     5  H    0.112634
     6  H    0.077499
     7  H    0.100420
     8  H    0.068468
 Sum of Mulliken charges =   0.00000

 Dipole moment (field-independent basis, Debye):
    X=              3.5368    Y=              0.7251    Z=             -0.1156  Tot=              3.6123
 Quadrupole moment (field-independent basis, Debye-Ang):
   XX=            -27.5003   YY=            -21.7888   ZZ=            -25.1728
   XY=             -1.0345   XZ=              0.3576   YZ=              0.0245

 Normal termination of Gaussian 09 at Wed Aug 26 09:08:11 2020.
