 Gaussian 09, Revision D.01,
 Gaussian 09:  ES64L-G09RevD.01 24-Apr-2013

 --------------------
 #p B2PLYPD3/Def2QZVP
 --------------------

 --------
 acrolein
 --------
 Symbolic Z-matrix:
 Charge =  0 Multiplicity = 1

                         Standard orientation:
 ---------------------------------------------------------------------
 Center     Atomic      Atomic             Coordinates (Angstroms)
 Number     Number       Type             X           Y           Z
 ---------------------------------------------------------------------
      1          6           0        0.658958    0.341377    0.019139
      2          8           0        1.795805   -0.109049   -0.019126
      3          6           0       -0.576645   -0.462654    0.024386
      4          6           0       -1.742017    0.158341   -0.022230
      5          1           0       -0.437203   -1.546213    0.011021
      6          1           0       -1.823800    1.239577    0.002408
      7          1           0       -2.669346   -0.425021   -0.016975
      8          1           0        0.522129    1.381660    0.028784
 ---------------------------------------------------------------------

 SCF Done:  E(RB2PLYPD3) =  -191.614031042     A.U. after   12 cycles
 E2(B2PLYPD3) =    -0.2472016752D+00 E(B2PLYPD3) =    -0.19186123271674D+03

 The electronic state is 1-A.
 Alpha  occ. eigenvalues --  -19.72601 -10.71017 -10.65544 -10.64488  -1.18583
 Alpha  occ. eigenvalues --   -0.93398  -0.75522  -0.67659  -0.56790  -0.56176
 Alpha  occ. eigenvalues --   -0.50402  -0.46911  -0.46248  -0.34917  -0.33793
 Alpha virt. eigenvalues --   -0.01676   0.05698   0.07138   0.08033   0.09714
 Alpha virt. eigenvalues --    0.12648   0.13977   0.15271   0.17479   0.19728
 Alpha virt. eigenvalues --    0.20003   0.21600   0.25374   0.26700   0.28735

 Mulliken charges:
               1
     1  C    0.154464
     2  O   -0.360325
     3  C   -0.036987
     4  C   -0.130633
     5  H    0.106305
     6  H    0.089122
     7  H    0.099517
     8  H    0.078537
 Sum of Mulliken charges =   0.00000

 Dipole moment (field-independent basis, Debye):
    X=             -3.5729    Y=              0.7780    Z=              0.0739  Tot=              3.6574
 Quadrupole moment (field-independent basis, Debye-Ang):
   XX=            -27.7791   YY=            -21.5421   ZZ=            -25.1744
   XY=              0.8357   XZ=              0.1243   YZ=              0.0223

 Normal termination of Gaussian 09 at Wed Aug 26 19:04:08 2020.
