 Gaussian 09, Revision D.01,
 Gaussian 09:  ES64L-G09RevD.01 24-Apr-2013

 --------------------
 #p B2PLYPD3/Def2QZVP
 --------------------

 --------
 acrolein
 --------
 Symbolic Z-matrix:
 Charge =  0 Multiplicity = 1

                         Standard orientation:
 ---------------------------------------------------------------------
 Center     Atomic      Atomic             Coordinates (Angstroms)
 Number     Number       Type             X           Y           Z
 ---------------------------------------------------------------------
      1          6           0       -0.683331    0.347091    0.033838
      2          8           0       -1.775163   -0.136762   -0.035105
      3          6           0        0.558282   -0.421422    0.023172
      4          6           0        1.761923    0.129944   -0.028443
      5          1           0        0.419154   -1.457287    0.107104
      6          1           0        1.765103    1.170670    0.018254
      7          1           0        2.721599   -0.426863   -0.068429
      8          1           0       -0.525796    1.473903    0.052509
 ---------------------------------------------------------------------

 SCF Done:  E(RB2PLYPD3) =  -191.612202787     A.U. after   12 cycles
 E2(B2PLYPD3) =    -0.2463848921D+00 E(B2PLYPD3) =    -0.19185858767937D+03

 The electronic state is 1-A.
 Alpha  occ. eigenvalues --  -19.73047 -10.71698 -10.65158 -10.63650  -1.20615
 Alpha  occ. eigenvalues --   -0.93378  -0.75552  -0.67073  -0.56744  -0.56572
 Alpha  occ. eigenvalues --   -0.51138  -0.47711  -0.46635  -0.34815  -0.33847
 Alpha virt. eigenvalues --   -0.01647   0.05833   0.07271   0.08543   0.09888
 Alpha virt. eigenvalues --    0.12486   0.13785   0.15358   0.17704   0.19843
 Alpha virt. eigenvalues --    0.20090   0.21409   0.25724   0.26324   0.29099

 Mulliken charges:
               1
     1  C    0.154873
     2  O   -0.338019
     3  C   -0.025674
     4  C   -0.136215
     5  H    0.100999
     6  H    0.082741
     7  H    0.107303
     8  H    0.053991
 Sum of Mulliken charges =   0.00000

 Dipole moment (field-independent basis, Debye):
    X=              3.3675    Y=              0.7207    Z=              0.1792  Tot=              3.4485
 Quadrupole moment (field-independent basis, Debye-Ang):
   XX=            -27.0120   YY=            -22.1325   ZZ=            -25.0932
   XY=             -1.1134   XZ=             -0.2551   YZ=             -0.0560

 Normal termination of Gaussian 09 at Wed Aug 26 08:40:51 2020.
