 Gaussian 09, Revision D.01,
 Gaussian 09:  ES64L-G09RevD.01 24-Apr-2013

 --------------------
 #p B2PLYPD3/Def2QZVP
 --------------------

 --------
 acrolein
 --------
 Symbolic Z-matrix:
 Charge =  0 Multiplicity = 1

                         Standard orientation:
 ---------------------------------------------------------------------
 Center     Atomic      Atomic             Coordinates (Angstroms)
 Number     Number       Type             X           Y           Z
 ---------------------------------------------------------------------
      1          6           0       -0.664126   -0.325139   -0.039422
      2          8           0       -1.818067    0.082318    0.039770
      3          6           0        0.568652    0.477950   -0.050271
      4          6           0        1.773725   -0.160744    0.004301
      5          1           0        0.390636    1.695630    0.037288
      6          1           0        1.877779   -1.291003    0.117190
      7          1           0        2.686737    0.396576    0.104692
      8          1           0       -0.480116   -1.412146   -0.064981
 ---------------------------------------------------------------------

 SCF Done:  E(RB2PLYPD3) =  -191.596673482     A.U. after   13 cycles
 E2(B2PLYPD3) =    -0.2501967508D+00 E(B2PLYPD3) =    -0.19184687023278D+03

 The electronic state is 1-A.
 Alpha  occ. eigenvalues --  -19.72840 -10.71780 -10.67021 -10.66787  -1.18483
 Alpha  occ. eigenvalues --   -0.92240  -0.75613  -0.65385  -0.56295  -0.55149
 Alpha  occ. eigenvalues --   -0.49999  -0.46226  -0.45596  -0.34432  -0.33781
 Alpha virt. eigenvalues --   -0.02545   0.05432   0.06266   0.07929   0.09505
 Alpha virt. eigenvalues --    0.12385   0.13921   0.15297   0.16610   0.19457
 Alpha virt. eigenvalues --    0.20005   0.21511   0.24585   0.26452   0.28391

 Mulliken charges:
               1
     1  C    0.165088
     2  O   -0.355582
     3  C   -0.042245
     4  C   -0.121090
     5  H    0.095536
     6  H    0.087373
     7  H    0.107065
     8  H    0.063855
 Sum of Mulliken charges =   0.00000

 Dipole moment (field-independent basis, Debye):
    X=              3.6917    Y=             -0.6751    Z=              0.0696  Tot=              3.7536
 Quadrupole moment (field-independent basis, Debye-Ang):
   XX=            -27.6902   YY=            -21.6661   ZZ=            -25.5627
   XY=              0.4457   XZ=              0.6814   YZ=              0.0114

 Normal termination of Gaussian 09 at Wed Aug 26 13:45:14 2020.
