 Gaussian 09, Revision D.01,
 Gaussian 09:  ES64L-G09RevD.01 24-Apr-2013

 --------------------
 #p B2PLYPD3/Def2QZVP
 --------------------

 --------
 acrolein
 --------
 Symbolic Z-matrix:
 Charge =  0 Multiplicity = 1

                         Standard orientation:
 ---------------------------------------------------------------------
 Center     Atomic      Atomic             Coordinates (Angstroms)
 Number     Number       Type             X           Y           Z
 ---------------------------------------------------------------------
      1          6           0       -0.710946    0.396324    0.083845
      2          8           0       -1.765251   -0.154262   -0.066436
      3          6           0        0.517721   -0.436267    0.081494
      4          6           0        1.792562    0.123181   -0.064328
      5          1           0        0.435639   -1.555037    0.030816
      6          1           0        1.911979    1.209966    0.052583
      7          1           0        2.759232   -0.439020   -0.104057
      8          1           0       -0.580869    1.518759   -0.053919
 ---------------------------------------------------------------------

 SCF Done:  E(RB2PLYPD3) =  -191.600491856     A.U. after   13 cycles
 E2(B2PLYPD3) =    -0.2493856575D+00 E(B2PLYPD3) =    -0.19184987751387D+03

 The electronic state is 1-A.
 Alpha  occ. eigenvalues --  -19.73033 -10.72258 -10.66582 -10.65746  -1.20637
 Alpha  occ. eigenvalues --   -0.90573  -0.74634  -0.66209  -0.56330  -0.55397
 Alpha  occ. eigenvalues --   -0.50197  -0.47266  -0.45819  -0.34202  -0.33121
 Alpha virt. eigenvalues --   -0.02240   0.05646   0.06938   0.07309   0.09665
 Alpha virt. eigenvalues --    0.12051   0.14238   0.15439   0.17564   0.19461
 Alpha virt. eigenvalues --    0.20071   0.21413   0.24055   0.26464   0.28642

 Mulliken charges:
               1
     1  C    0.166380
     2  O   -0.330883
     3  C   -0.065303
     4  C   -0.134606
     5  H    0.111149
     6  H    0.076485
     7  H    0.099705
     8  H    0.077073
 Sum of Mulliken charges =   0.00000

 Dipole moment (field-independent basis, Debye):
    X=              3.2016    Y=              0.9057    Z=              0.1881  Tot=              3.3326
 Quadrupole moment (field-independent basis, Debye-Ang):
   XX=            -27.0278   YY=            -21.7450   ZZ=            -25.6021
   XY=             -1.2381   XZ=             -0.4818   YZ=              0.0998

 Normal termination of Gaussian 09 at Wed Aug 26 12:14:13 2020.
