 Gaussian 09, Revision D.01,
 Gaussian 09:  ES64L-G09RevD.01 24-Apr-2013

 --------------------
 #p B2PLYPD3/Def2QZVP
 --------------------

 --------
 acrolein
 --------
 Symbolic Z-matrix:
 Charge =  0 Multiplicity = 1

                         Standard orientation:
 ---------------------------------------------------------------------
 Center     Atomic      Atomic             Coordinates (Angstroms)
 Number     Number       Type             X           Y           Z
 ---------------------------------------------------------------------
      1          6           0       -0.685984    0.357788    0.055192
      2          8           0       -1.771285   -0.136164   -0.035015
      3          6           0        0.539536   -0.426841    0.018228
      4          6           0        1.756485    0.133790   -0.033049
      5          1           0        0.426096   -1.546408    0.027939
      6          1           0        1.813856    1.169181   -0.046153
      7          1           0        2.787764   -0.420155    0.036649
      8          1           0       -0.517659    1.498271    0.019457
 ---------------------------------------------------------------------

 SCF Done:  E(RB2PLYPD3) =  -191.605219382     A.U. after   12 cycles
 E2(B2PLYPD3) =    -0.2476469824D+00 E(B2PLYPD3) =    -0.19185286636452D+03

 The electronic state is 1-A.
 Alpha  occ. eigenvalues --  -19.73048 -10.71945 -10.65941 -10.64744  -1.20697
 Alpha  occ. eigenvalues --   -0.92673  -0.75106  -0.66208  -0.56817  -0.55719
 Alpha  occ. eigenvalues --   -0.50354  -0.47533  -0.45889  -0.34618  -0.33840
 Alpha virt. eigenvalues --   -0.01880   0.05610   0.06873   0.08321   0.09774
 Alpha virt. eigenvalues --    0.12263   0.14055   0.15426   0.17241   0.19657
 Alpha virt. eigenvalues --    0.20066   0.21335   0.25602   0.26141   0.28963

 Mulliken charges:
               1
     1  C    0.157117
     2  O   -0.334071
     3  C   -0.033472
     4  C   -0.130565
     5  H    0.100842
     6  H    0.083043
     7  H    0.099941
     8  H    0.057166
 Sum of Mulliken charges =   0.00000

 Dipole moment (field-independent basis, Debye):
    X=              3.3521    Y=              0.7802    Z=              0.1612  Tot=              3.4455
 Quadrupole moment (field-independent basis, Debye-Ang):
   XX=            -26.9883   YY=            -22.0530   ZZ=            -25.3217
   XY=             -0.9692   XZ=             -0.1126   YZ=             -0.1032

 Normal termination of Gaussian 09 at Wed Aug 26 08:50:11 2020.
