 Gaussian 09, Revision D.01,
 Gaussian 09:  ES64L-G09RevD.01 24-Apr-2013

 --------------------
 #p B2PLYPD3/Def2QZVP
 --------------------

 --------
 acrolein
 --------
 Symbolic Z-matrix:
 Charge =  0 Multiplicity = 1

                         Standard orientation:
 ---------------------------------------------------------------------
 Center     Atomic      Atomic             Coordinates (Angstroms)
 Number     Number       Type             X           Y           Z
 ---------------------------------------------------------------------
      1          6           0       -0.672893    0.346876   -0.001170
      2          8           0       -1.768553   -0.133815   -0.025053
      3          6           0        0.501082   -0.397692    0.022980
      4          6           0        1.772270    0.121181   -0.042985
      5          1           0        0.385170   -1.495779    0.105864
      6          1           0        1.809054    1.066659   -0.072155
      7          1           0        2.794465   -0.451562    0.076825
      8          1           0       -0.443020    1.529018    0.216941
 ---------------------------------------------------------------------

 SCF Done:  E(RB2PLYPD3) =  -191.576791425     A.U. after   13 cycles
 E2(B2PLYPD3) =    -0.2491183263D+00 E(B2PLYPD3) =    -0.19182590975102D+03

 The electronic state is 1-A.
 Alpha  occ. eigenvalues --  -19.73140 -10.71989 -10.66048 -10.64636  -1.20762
 Alpha  occ. eigenvalues --   -0.93483  -0.77276  -0.66015  -0.56944  -0.56082
 Alpha  occ. eigenvalues --   -0.50552  -0.48049  -0.46060  -0.34323  -0.33729
 Alpha virt. eigenvalues --   -0.03049   0.05555   0.06575   0.08820   0.09866
 Alpha virt. eigenvalues --    0.12369   0.13806   0.15309   0.17198   0.19447
 Alpha virt. eigenvalues --    0.20056   0.21836   0.25191   0.26345   0.28719

 Mulliken charges:
               1
     1  C    0.156089
     2  O   -0.334607
     3  C   -0.014396
     4  C   -0.137913
     5  H    0.098997
     6  H    0.096273
     7  H    0.106422
     8  H    0.029135
 Sum of Mulliken charges =   0.00000

 Dipole moment (field-independent basis, Debye):
    X=              3.5925    Y=              0.6109    Z=              0.1875  Tot=              3.6488
 Quadrupole moment (field-independent basis, Debye-Ang):
   XX=            -26.4762   YY=            -22.5237   ZZ=            -25.2298
   XY=             -0.8322   XZ=              0.0299   YZ=             -0.1886

 Normal termination of Gaussian 09 at Wed Aug 26 11:24:57 2020.
