 Gaussian 09, Revision D.01,
 Gaussian 09:  ES64L-G09RevD.01 24-Apr-2013

 --------------------
 #p B2PLYPD3/Def2QZVP
 --------------------

 --------
 acrolein
 --------
 Symbolic Z-matrix:
 Charge =  0 Multiplicity = 1

                         Standard orientation:
 ---------------------------------------------------------------------
 Center     Atomic      Atomic             Coordinates (Angstroms)
 Number     Number       Type             X           Y           Z
 ---------------------------------------------------------------------
      1          6           0        0.690358    0.400571   -0.015901
      2          8           0        1.750531   -0.150094    0.036947
      3          6           0       -0.527076   -0.440231   -0.048234
      4          6           0       -1.764456    0.116548   -0.001977
      5          1           0       -0.395344   -1.558370   -0.108922
      6          1           0       -1.775363    1.234472   -0.071711
      7          1           0       -2.747695   -0.399436    0.288240
      8          1           0        0.521204    1.462760   -0.006510
 ---------------------------------------------------------------------

 SCF Done:  E(RB2PLYPD3) =  -191.602857223     A.U. after   13 cycles
 E2(B2PLYPD3) =    -0.2480237743D+00 E(B2PLYPD3) =    -0.19185088099685D+03

 The electronic state is 1-A.
 Alpha  occ. eigenvalues --  -19.72853 -10.71482 -10.66388 -10.64837  -1.20680
 Alpha  occ. eigenvalues --   -0.91616  -0.74505  -0.66935  -0.56317  -0.55452
 Alpha  occ. eigenvalues --   -0.50643  -0.47486  -0.45293  -0.34275  -0.33480
 Alpha virt. eigenvalues --   -0.01693   0.05582   0.07089   0.07735   0.09721
 Alpha virt. eigenvalues --    0.12044   0.14120   0.15458   0.17368   0.19279
 Alpha virt. eigenvalues --    0.19625   0.21461   0.25297   0.26542   0.29150

 Mulliken charges:
               1
     1  C    0.159457
     2  O   -0.336872
     3  C   -0.055062
     4  C   -0.133700
     5  H    0.108122
     6  H    0.066634
     7  H    0.104823
     8  H    0.086597
 Sum of Mulliken charges =   0.00000

 Dipole moment (field-independent basis, Debye):
    X=             -3.1513    Y=              0.9456    Z=              0.0099  Tot=              3.2901
 Quadrupole moment (field-independent basis, Debye-Ang):
   XX=            -27.3878   YY=            -21.7267   ZZ=            -25.3357
   XY=              1.2475   XZ=             -0.7956   YZ=             -0.1111

 Normal termination of Gaussian 09 at Wed Aug 26 11:21:37 2020.
