 Gaussian 09, Revision D.01,
 Gaussian 09:  ES64L-G09RevD.01 24-Apr-2013

 --------------------
 #p B2PLYPD3/Def2QZVP
 --------------------

 --------
 acrolein
 --------
 Symbolic Z-matrix:
 Charge =  0 Multiplicity = 1

                         Standard orientation:
 ---------------------------------------------------------------------
 Center     Atomic      Atomic             Coordinates (Angstroms)
 Number     Number       Type             X           Y           Z
 ---------------------------------------------------------------------
      1          6           0        0.662067    0.334671    0.020281
      2          8           0        1.796502   -0.107392   -0.017395
      3          6           0       -0.568231   -0.454230   -0.004106
      4          6           0       -1.751487    0.149129    0.001225
      5          1           0       -0.456246   -1.552010    0.046104
      6          1           0       -1.840646    1.246558   -0.075595
      7          1           0       -2.668997   -0.400794   -0.004836
      8          1           0        0.539775    1.387954    0.069090
 ---------------------------------------------------------------------

 SCF Done:  E(RB2PLYPD3) =  -191.614609750     A.U. after   12 cycles
 E2(B2PLYPD3) =    -0.2471470447D+00 E(B2PLYPD3) =    -0.19186175679445D+03

 The electronic state is 1-A.
 Alpha  occ. eigenvalues --  -19.72573 -10.71022 -10.65647 -10.64667  -1.18915
 Alpha  occ. eigenvalues --   -0.93283  -0.75810  -0.67239  -0.56727  -0.56486
 Alpha  occ. eigenvalues --   -0.50467  -0.46705  -0.46420  -0.34831  -0.33822
 Alpha virt. eigenvalues --   -0.01873   0.05714   0.07116   0.08207   0.09659
 Alpha virt. eigenvalues --    0.12623   0.14186   0.15254   0.17448   0.19624
 Alpha virt. eigenvalues --    0.20063   0.21627   0.25246   0.26597   0.28819

 Mulliken charges:
               1
     1  C    0.154464
     2  O   -0.355378
     3  C   -0.036019
     4  C   -0.127015
     5  H    0.102170
     6  H    0.084044
     7  H    0.102829
     8  H    0.074905
 Sum of Mulliken charges =   0.00000

 Dipole moment (field-independent basis, Debye):
    X=             -3.6024    Y=              0.7482    Z=              0.0619  Tot=              3.6799
 Quadrupole moment (field-independent basis, Debye-Ang):
   XX=            -27.5302   YY=            -21.6822   ZZ=            -25.1755
   XY=              0.8769   XZ=              0.1959   YZ=             -0.1397

 Normal termination of Gaussian 09 at Wed Aug 26 16:37:17 2020.
