 Gaussian 09, Revision D.01,
 Gaussian 09:  ES64L-G09RevD.01 24-Apr-2013

 --------------------
 #p B2PLYPD3/Def2QZVP
 --------------------

 --------
 acrolein
 --------
 Symbolic Z-matrix:
 Charge =  0 Multiplicity = 1

                         Standard orientation:
 ---------------------------------------------------------------------
 Center     Atomic      Atomic             Coordinates (Angstroms)
 Number     Number       Type             X           Y           Z
 ---------------------------------------------------------------------
      1          6           0       -0.668462    0.336349    0.011109
      2          8           0       -1.797446   -0.103134   -0.010782
      3          6           0        0.559738   -0.459713    0.004902
      4          6           0        1.757955    0.143540   -0.014319
      5          1           0        0.431522   -1.561880    0.008467
      6          1           0        1.883424    1.266833   -0.045909
      7          1           0        2.684140   -0.406898    0.051695
      8          1           0       -0.514907    1.405957    0.061848
 ---------------------------------------------------------------------

 SCF Done:  E(RB2PLYPD3) =  -191.613853369     A.U. after   12 cycles
 E2(B2PLYPD3) =    -0.2475498132D+00 E(B2PLYPD3) =    -0.19186140318228D+03

 The electronic state is 1-A.
 Alpha  occ. eigenvalues --  -19.72667 -10.71198 -10.66264 -10.64951  -1.19340
 Alpha  occ. eigenvalues --   -0.92783  -0.75571  -0.66800  -0.56651  -0.55939
 Alpha  occ. eigenvalues --   -0.50539  -0.46667  -0.46424  -0.34627  -0.33797
 Alpha virt. eigenvalues --   -0.01966   0.05617   0.07080   0.08254   0.09617
 Alpha virt. eigenvalues --    0.12459   0.14135   0.15355   0.17401   0.19414
 Alpha virt. eigenvalues --    0.20013   0.21560   0.25309   0.26579   0.28644

 Mulliken charges:
               1
     1  C    0.159136
     2  O   -0.351296
     3  C   -0.040530
     4  C   -0.126992
     5  H    0.103343
     6  H    0.082945
     7  H    0.102925
     8  H    0.070469
 Sum of Mulliken charges =   0.00000

 Dipole moment (field-independent basis, Debye):
    X=              3.5784    Y=              0.7182    Z=              0.0716  Tot=              3.6504
 Quadrupole moment (field-independent basis, Debye-Ang):
   XX=            -27.4350   YY=            -21.7278   ZZ=            -25.2861
   XY=             -0.7211   XZ=              0.0032   YZ=             -0.0704

 Normal termination of Gaussian 09 at Wed Aug 26 13:52:35 2020.
