 Gaussian 09, Revision D.01,
 Gaussian 09:  ES64L-G09RevD.01 24-Apr-2013

 --------------------
 #p B2PLYPD3/Def2QZVP
 --------------------

 --------
 acrolein
 --------
 Symbolic Z-matrix:
 Charge =  0 Multiplicity = 1

                         Standard orientation:
 ---------------------------------------------------------------------
 Center     Atomic      Atomic             Coordinates (Angstroms)
 Number     Number       Type             X           Y           Z
 ---------------------------------------------------------------------
      1          6           0        0.649012    0.317475    0.063670
      2          8           0        1.802879   -0.098654   -0.068378
      3          6           0       -0.557507   -0.474572    0.001785
      4          6           0       -1.719073    0.165580   -0.015786
      5          1           0       -0.559973   -1.519062    0.248341
      6          1           0       -1.747693    1.292210   -0.167359
      7          1           0       -2.752598   -0.420296   -0.114202
      8          1           0        0.402647    1.385483    0.282233
 ---------------------------------------------------------------------

 SCF Done:  E(RB2PLYPD3) =  -191.598315163     A.U. after   13 cycles
 E2(B2PLYPD3) =    -0.2497538358D+00 E(B2PLYPD3) =    -0.19184806899907D+03

 The electronic state is 1-A.
 Alpha  occ. eigenvalues --  -19.72972 -10.71999 -10.67193 -10.64341  -1.18161
 Alpha  occ. eigenvalues --   -0.93940  -0.74870  -0.66856  -0.55964  -0.55545
 Alpha  occ. eigenvalues --   -0.50097  -0.46528  -0.45395  -0.35158  -0.33863
 Alpha virt. eigenvalues --   -0.02159   0.05314   0.06350   0.07568   0.09530
 Alpha virt. eigenvalues --    0.12541   0.13610   0.14616   0.17930   0.19044
 Alpha virt. eigenvalues --    0.19995   0.20932   0.24007   0.27121   0.28948

 Mulliken charges:
               1
     1  C    0.148936
     2  O   -0.355252
     3  C   -0.025602
     4  C   -0.113247
     5  H    0.105750
     6  H    0.076947
     7  H    0.091555
     8  H    0.070912
 Sum of Mulliken charges =   0.00000

 Dipole moment (field-independent basis, Debye):
    X=             -3.6890    Y=              0.6370    Z=              0.3268  Tot=              3.7579
 Quadrupole moment (field-independent basis, Debye-Ang):
   XX=            -27.8942   YY=            -21.9147   ZZ=            -25.2294
   XY=              0.8742   XZ=              0.6739   YZ=             -0.4044

 Normal termination of Gaussian 09 at Wed Aug 26 12:34:52 2020.
