 Gaussian 09, Revision D.01,
 Gaussian 09:  ES64L-G09RevD.01 24-Apr-2013

 --------------------
 #p B2PLYPD3/Def2QZVP
 --------------------

 --------
 acrolein
 --------
 Symbolic Z-matrix:
 Charge =  0 Multiplicity = 1

                         Standard orientation:
 ---------------------------------------------------------------------
 Center     Atomic      Atomic             Coordinates (Angstroms)
 Number     Number       Type             X           Y           Z
 ---------------------------------------------------------------------
      1          6           0       -0.661938    0.351281   -0.047688
      2          8           0       -1.792081   -0.113841    0.034992
      3          6           0        0.567368   -0.450706   -0.005024
      4          6           0        1.756899    0.136139    0.010880
      5          1           0        0.464731   -1.570549   -0.057433
      6          1           0        1.823211    1.234616    0.108827
      7          1           0        2.567797   -0.376608    0.001092
      8          1           0       -0.493065    1.402981   -0.081429
 ---------------------------------------------------------------------

 SCF Done:  E(RB2PLYPD3) =  -191.601797604     A.U. after   13 cycles
 E2(B2PLYPD3) =    -0.2472804257D+00 E(B2PLYPD3) =    -0.19184907802939D+03

 The electronic state is 1-A.
 Alpha  occ. eigenvalues --  -19.72802 -10.71377 -10.64698 -10.64261  -1.18622
 Alpha  occ. eigenvalues --   -0.93514  -0.76814  -0.67076  -0.57742  -0.56355
 Alpha  occ. eigenvalues --   -0.50884  -0.46688  -0.46265  -0.34753  -0.34011
 Alpha virt. eigenvalues --   -0.01932   0.05842   0.07121   0.08004   0.09721
 Alpha virt. eigenvalues --    0.12756   0.14395   0.15230   0.17195   0.19635
 Alpha virt. eigenvalues --    0.20119   0.22384   0.25237   0.26607   0.28815

 Mulliken charges:
               1
     1  C    0.156627
     2  O   -0.355840
     3  C   -0.033293
     4  C   -0.131752
     5  H    0.095357
     6  H    0.079167
     7  H    0.109182
     8  H    0.080552
 Sum of Mulliken charges =   0.00000

 Dipole moment (field-independent basis, Debye):
    X=              3.5639    Y=              0.7855    Z=             -0.1231  Tot=              3.6515
 Quadrupole moment (field-independent basis, Debye-Ang):
   XX=            -27.6242   YY=            -21.6012   ZZ=            -25.0977
   XY=             -0.9340   XZ=              0.3036   YZ=              0.1766

 Normal termination of Gaussian 09 at Wed Aug 26 08:59:16 2020.
