 Gaussian 09, Revision D.01,
 Gaussian 09:  ES64L-G09RevD.01 24-Apr-2013

 --------------------
 #p B2PLYPD3/Def2QZVP
 --------------------

 --------
 acrolein
 --------
 Symbolic Z-matrix:
 Charge =  0 Multiplicity = 1

                         Standard orientation:
 ---------------------------------------------------------------------
 Center     Atomic      Atomic             Coordinates (Angstroms)
 Number     Number       Type             X           Y           Z
 ---------------------------------------------------------------------
      1          6           0        0.668915    0.339132    0.004697
      2          8           0        1.802358   -0.108967   -0.012217
      3          6           0       -0.567072   -0.462638    0.008828
      4          6           0       -1.750737    0.149501   -0.001420
      5          1           0       -0.476639   -1.530000    0.035933
      6          1           0       -1.866553    1.246248   -0.031057
      7          1           0       -2.670467   -0.416453   -0.038533
      8          1           0        0.488157    1.415963    0.058763
 ---------------------------------------------------------------------

 SCF Done:  E(RB2PLYPD3) =  -191.615960642     A.U. after   12 cycles
 E2(B2PLYPD3) =    -0.2474974423D+00 E(B2PLYPD3) =    -0.19186345808472D+03

 The electronic state is 1-A.
 Alpha  occ. eigenvalues --  -19.72820 -10.71577 -10.65746 -10.64456  -1.18955
 Alpha  occ. eigenvalues --   -0.93117  -0.75486  -0.67228  -0.56471  -0.56282
 Alpha  occ. eigenvalues --   -0.50516  -0.47023  -0.46427  -0.34771  -0.33835
 Alpha virt. eigenvalues --   -0.01845   0.05681   0.07177   0.08065   0.09641
 Alpha virt. eigenvalues --    0.12617   0.14051   0.15303   0.17596   0.19645
 Alpha virt. eigenvalues --    0.20003   0.21517   0.25330   0.26574   0.28532

 Mulliken charges:
               1
     1  C    0.155531
     2  O   -0.353061
     3  C   -0.038931
     4  C   -0.128015
     5  H    0.106357
     6  H    0.084973
     7  H    0.099410
     8  H    0.073737
 Sum of Mulliken charges =   0.00000

 Dipole moment (field-independent basis, Debye):
    X=             -3.5881    Y=              0.7261    Z=              0.0264  Tot=              3.6609
 Quadrupole moment (field-independent basis, Debye-Ang):
   XX=            -27.5730   YY=            -21.6891   ZZ=            -25.2254
   XY=              0.7866   XZ=              0.1921   YZ=             -0.0432

 Normal termination of Gaussian 09 at Wed Aug 26 16:05:54 2020.
