 Gaussian 09, Revision D.01,
 Gaussian 09:  ES64L-G09RevD.01 24-Apr-2013

 --------------------
 #p B2PLYPD3/Def2QZVP
 --------------------

 --------
 acrolein
 --------
 Symbolic Z-matrix:
 Charge =  0 Multiplicity = 1

                         Standard orientation:
 ---------------------------------------------------------------------
 Center     Atomic      Atomic             Coordinates (Angstroms)
 Number     Number       Type             X           Y           Z
 ---------------------------------------------------------------------
      1          6           0        0.690585    0.374026   -0.027633
      2          8           0        1.771930   -0.133811    0.028995
      3          6           0       -0.541468   -0.439325   -0.027154
      4          6           0       -1.763793    0.131362    0.005009
      5          1           0       -0.452978   -1.532468    0.013218
      6          1           0       -1.906202    1.219429    0.136049
      7          1           0       -2.688853   -0.426770    0.006190
      8          1           0        0.560656    1.413922   -0.088744
 ---------------------------------------------------------------------

 SCF Done:  E(RB2PLYPD3) =  -191.613054160     A.U. after   12 cycles
 E2(B2PLYPD3) =    -0.2464614038D+00 E(B2PLYPD3) =    -0.19185951556348D+03

 The electronic state is 1-A.
 Alpha  occ. eigenvalues --  -19.72644 -10.70938 -10.65600 -10.64558  -1.20430
 Alpha  occ. eigenvalues --   -0.92082  -0.75428  -0.67553  -0.57015  -0.56003
 Alpha  occ. eigenvalues --   -0.50812  -0.47195  -0.46239  -0.34231  -0.33874
 Alpha virt. eigenvalues --   -0.01614   0.05725   0.07358   0.08101   0.09645
 Alpha virt. eigenvalues --    0.12496   0.14263   0.15532   0.17652   0.19399
 Alpha virt. eigenvalues --    0.20069   0.21591   0.25394   0.26451   0.28588

 Mulliken charges:
               1
     1  C    0.158181
     2  O   -0.341107
     3  C   -0.056800
     4  C   -0.130942
     5  H    0.106728
     6  H    0.076462
     7  H    0.098889
     8  H    0.088590
 Sum of Mulliken charges =   0.00000

 Dipole moment (field-independent basis, Debye):
    X=             -3.3195    Y=              0.8878    Z=              0.0059  Tot=              3.4362
 Quadrupole moment (field-independent basis, Debye-Ang):
   XX=            -27.2505   YY=            -21.6508   ZZ=            -25.2253
   XY=              1.0633   XZ=             -0.4053   YZ=              0.0852

 Normal termination of Gaussian 09 at Wed Aug 26 10:05:17 2020.
