 Gaussian 09, Revision D.01,
 Gaussian 09:  ES64L-G09RevD.01 24-Apr-2013

 --------------------
 #p B2PLYPD3/Def2QZVP
 --------------------

 --------
 acrolein
 --------
 Symbolic Z-matrix:
 Charge =  0 Multiplicity = 1

                         Standard orientation:
 ---------------------------------------------------------------------
 Center     Atomic      Atomic             Coordinates (Angstroms)
 Number     Number       Type             X           Y           Z
 ---------------------------------------------------------------------
      1          6           0       -0.662693    0.342829   -0.047441
      2          8           0       -1.800770   -0.101923    0.038117
      3          6           0        0.588196   -0.469222   -0.036609
      4          6           0        1.751687    0.144831    0.006018
      5          1           0        0.409460   -1.565626    0.009900
      6          1           0        1.874406    1.302605    0.087225
      7          1           0        2.580837   -0.408401    0.094564
      8          1           0       -0.521687    1.376181   -0.028435
 ---------------------------------------------------------------------

 SCF Done:  E(RB2PLYPD3) =  -191.602017033     A.U. after   12 cycles
 E2(B2PLYPD3) =    -0.2474224217D+00 E(B2PLYPD3) =    -0.19184943945471D+03

 The electronic state is 1-A.
 Alpha  occ. eigenvalues --  -19.72722 -10.71082 -10.65224 -10.64780  -1.18539
 Alpha  occ. eigenvalues --   -0.93313  -0.75986  -0.67192  -0.57088  -0.55844
 Alpha  occ. eigenvalues --   -0.50745  -0.46491  -0.46094  -0.35036  -0.33755
 Alpha virt. eigenvalues --   -0.01605   0.05604   0.07162   0.07920   0.09639
 Alpha virt. eigenvalues --    0.12559   0.14029   0.15285   0.17375   0.19272
 Alpha virt. eigenvalues --    0.19962   0.22154   0.25146   0.26881   0.28483

 Mulliken charges:
               1
     1  C    0.165226
     2  O   -0.360407
     3  C   -0.050288
     4  C   -0.124579
     5  H    0.103470
     6  H    0.082532
     7  H    0.105008
     8  H    0.079039
 Sum of Mulliken charges =   0.00000

 Dipole moment (field-independent basis, Debye):
    X=              3.5360    Y=              0.7494    Z=              0.0138  Tot=              3.6146
 Quadrupole moment (field-independent basis, Debye-Ang):
   XX=            -27.8588   YY=            -21.4844   ZZ=            -25.1705
   XY=             -0.7259   XZ=              0.5678   YZ=              0.0173

 Normal termination of Gaussian 09 at Wed Aug 26 09:03:29 2020.
