 Gaussian 09, Revision D.01,
 Gaussian 09:  ES64L-G09RevD.01 24-Apr-2013

 --------------------
 #p B2PLYPD3/Def2QZVP
 --------------------

 --------
 acrolein
 --------
 Symbolic Z-matrix:
 Charge =  0 Multiplicity = 1

                         Standard orientation:
 ---------------------------------------------------------------------
 Center     Atomic      Atomic             Coordinates (Angstroms)
 Number     Number       Type             X           Y           Z
 ---------------------------------------------------------------------
      1          6           0        0.692386   -0.351823    0.055795
      2          8           0        1.793978    0.104577   -0.060615
      3          6           0       -0.558907    0.478555    0.101959
      4          6           0       -1.779619   -0.164672   -0.056969
      5          1           0       -0.421022    1.528303   -0.075970
      6          1           0       -1.840391   -1.158069   -0.060443
      7          1           0       -2.750675    0.351214   -0.066794
      8          1           0        0.537104   -1.330420    0.083422
 ---------------------------------------------------------------------

 SCF Done:  E(RB2PLYPD3) =  -191.594934760     A.U. after   13 cycles
 E2(B2PLYPD3) =    -0.2469630628D+00 E(B2PLYPD3) =    -0.19184189782253D+03

 The electronic state is 1-A.
 Alpha  occ. eigenvalues --  -19.72633 -10.70441 -10.65528 -10.65129  -1.20181
 Alpha  occ. eigenvalues --   -0.91730  -0.76173  -0.69234  -0.57336  -0.55810
 Alpha  occ. eigenvalues --   -0.50693  -0.48005  -0.46756  -0.34183  -0.33387
 Alpha virt. eigenvalues --   -0.02095   0.05783   0.07558   0.07740   0.09672
 Alpha virt. eigenvalues --    0.12737   0.13873   0.15591   0.17983   0.19657
 Alpha virt. eigenvalues --    0.20062   0.21568   0.24360   0.26972   0.28841

 Mulliken charges:
               1
     1  C    0.157986
     2  O   -0.346442
     3  C   -0.060265
     4  C   -0.130508
     5  H    0.111992
     6  H    0.084898
     7  H    0.096385
     8  H    0.085954
 Sum of Mulliken charges =   0.00000

 Dipole moment (field-independent basis, Debye):
    X=             -3.4046    Y=             -0.8998    Z=              0.0431  Tot=              3.5218
 Quadrupole moment (field-independent basis, Debye-Ang):
   XX=            -27.2324   YY=            -21.7091   ZZ=            -25.2119
   XY=             -0.6823   XZ=              0.6385   YZ=             -0.1635

 Normal termination of Gaussian 09 at Wed Aug 26 12:18:55 2020.
