 Gaussian 09, Revision D.01,
 Gaussian 09:  ES64L-G09RevD.01 24-Apr-2013

 --------------------
 #p B2PLYPD3/Def2QZVP
 --------------------

 --------
 acrolein
 --------
 Symbolic Z-matrix:
 Charge =  0 Multiplicity = 1

                         Standard orientation:
 ---------------------------------------------------------------------
 Center     Atomic      Atomic             Coordinates (Angstroms)
 Number     Number       Type             X           Y           Z
 ---------------------------------------------------------------------
      1          6           0        0.661308    0.339069    0.026405
      2          8           0        1.796946   -0.113204   -0.017489
      3          6           0       -0.571292   -0.463584   -0.001000
      4          6           0       -1.746397    0.151648   -0.014422
      5          1           0       -0.439418   -1.543994    0.038629
      6          1           0       -1.807291    1.235634   -0.040966
      7          1           0       -2.692927   -0.409536    0.032337
      8          1           0        0.502363    1.460735    0.044011
 ---------------------------------------------------------------------

 SCF Done:  E(RB2PLYPD3) =  -191.614926594     A.U. after   12 cycles
 E2(B2PLYPD3) =    -0.2480358167D+00 E(B2PLYPD3) =    -0.19186296241033D+03

 The electronic state is 1-A.
 Alpha  occ. eigenvalues --  -19.72863 -10.71973 -10.65770 -10.64631  -1.18753
 Alpha  occ. eigenvalues --   -0.93285  -0.75162  -0.66657  -0.56316  -0.56167
 Alpha  occ. eigenvalues --   -0.50288  -0.46925  -0.46390  -0.34886  -0.33771
 Alpha virt. eigenvalues --   -0.01841   0.05692   0.06968   0.08024   0.09729
 Alpha virt. eigenvalues --    0.12504   0.13906   0.15266   0.17278   0.19787
 Alpha virt. eigenvalues --    0.20021   0.21439   0.25344   0.26433   0.28901

 Mulliken charges:
               1
     1  C    0.156923
     2  O   -0.354026
     3  C   -0.034365
     4  C   -0.126993
     5  H    0.105910
     6  H    0.087809
     7  H    0.101386
     8  H    0.063357
 Sum of Mulliken charges =   0.00000

 Dipole moment (field-independent basis, Debye):
    X=             -3.5766    Y=              0.7017    Z=              0.1120  Tot=              3.6465
 Quadrupole moment (field-independent basis, Debye-Ang):
   XX=            -27.6045   YY=            -21.7294   ZZ=            -25.2763
   XY=              0.8300   XZ=              0.0383   YZ=             -0.1128

 Normal termination of Gaussian 09 at Wed Aug 26 08:46:38 2020.
