 Gaussian 09, Revision D.01,
 Gaussian 09:  ES64L-G09RevD.01 24-Apr-2013

 --------------------
 #p B2PLYPD3/Def2QZVP
 --------------------

 --------
 acrolein
 --------
 Symbolic Z-matrix:
 Charge =  0 Multiplicity = 1

                         Standard orientation:
 ---------------------------------------------------------------------
 Center     Atomic      Atomic             Coordinates (Angstroms)
 Number     Number       Type             X           Y           Z
 ---------------------------------------------------------------------
      1          6           0        0.661738    0.332528   -0.069144
      2          8           0        1.786760   -0.101228    0.051953
      3          6           0       -0.541055   -0.456751   -0.061971
      4          6           0       -1.766056    0.149540   -0.006137
      5          1           0       -0.354953   -1.608724    0.044659
      6          1           0       -1.876805    1.187718    0.079644
      7          1           0       -2.669002   -0.435164    0.223887
      8          1           0        0.478920    1.514090    0.059692
 ---------------------------------------------------------------------

 SCF Done:  E(RB2PLYPD3) =  -191.598459584     A.U. after   13 cycles
 E2(B2PLYPD3) =    -0.2497398110D+00 E(B2PLYPD3) =    -0.19184819939538D+03

 The electronic state is 1-A.
 Alpha  occ. eigenvalues --  -19.72959 -10.72193 -10.66334 -10.66034  -1.19569
 Alpha  occ. eigenvalues --   -0.92683  -0.76024  -0.65072  -0.56541  -0.55809
 Alpha  occ. eigenvalues --   -0.49802  -0.47123  -0.46442  -0.34416  -0.33552
 Alpha virt. eigenvalues --   -0.02742   0.05666   0.06354   0.08167   0.09747
 Alpha virt. eigenvalues --    0.12504   0.13891   0.15240   0.16772   0.19430
 Alpha virt. eigenvalues --    0.20049   0.22106   0.24452   0.26542   0.28236

 Mulliken charges:
               1
     1  C    0.167605
     2  O   -0.345142
     3  C   -0.033355
     4  C   -0.119850
     5  H    0.101891
     6  H    0.092539
     7  H    0.099992
     8  H    0.036321
 Sum of Mulliken charges =   0.00000

 Dipole moment (field-independent basis, Debye):
    X=             -3.5701    Y=              0.5809    Z=              0.1265  Tot=              3.6193
 Quadrupole moment (field-independent basis, Debye-Ang):
   XX=            -27.3701   YY=            -21.9982   ZZ=            -25.3828
   XY=              0.4713   XZ=             -0.9414   YZ=             -0.0760

 Normal termination of Gaussian 09 at Wed Aug 26 12:34:40 2020.
