 Gaussian 09, Revision D.01,
 Gaussian 09:  ES64L-G09RevD.01 24-Apr-2013

 --------------------
 #p B2PLYPD3/Def2QZVP
 --------------------

 --------
 acrolein
 --------
 Symbolic Z-matrix:
 Charge =  0 Multiplicity = 1

                         Standard orientation:
 ---------------------------------------------------------------------
 Center     Atomic      Atomic             Coordinates (Angstroms)
 Number     Number       Type             X           Y           Z
 ---------------------------------------------------------------------
      1          6           0       -0.664921    0.347401   -0.018934
      2          8           0       -1.788588   -0.123333    0.021902
      3          6           0        0.565210   -0.436450   -0.023339
      4          6           0        1.748612    0.142339    0.014797
      5          1           0        0.430795   -1.542991   -0.053127
      6          1           0        1.825975    1.180904   -0.032335
      7          1           0        2.679139   -0.421253    0.088376
      8          1           0       -0.520607    1.450267   -0.013266
 ---------------------------------------------------------------------

 SCF Done:  E(RB2PLYPD3) =  -191.614526331     A.U. after   12 cycles
 E2(B2PLYPD3) =    -0.2472527408D+00 E(B2PLYPD3) =    -0.19186177907170D+03

 The electronic state is 1-A.
 Alpha  occ. eigenvalues --  -19.72820 -10.71647 -10.65035 -10.64499  -1.19021
 Alpha  occ. eigenvalues --   -0.93577  -0.75802  -0.66790  -0.56904  -0.56439
 Alpha  occ. eigenvalues --   -0.50480  -0.46920  -0.46362  -0.34942  -0.33873
 Alpha virt. eigenvalues --   -0.01827   0.05776   0.07002   0.08292   0.09783
 Alpha virt. eigenvalues --    0.12594   0.14037   0.15303   0.17198   0.19878
 Alpha virt. eigenvalues --    0.20154   0.21709   0.25529   0.26445   0.28791

 Mulliken charges:
               1
     1  C    0.154345
     2  O   -0.353316
     3  C   -0.028185
     4  C   -0.130668
     5  H    0.100611
     6  H    0.087142
     7  H    0.102989
     8  H    0.067083
 Sum of Mulliken charges =   0.00000

 Dipole moment (field-independent basis, Debye):
    X=              3.5542    Y=              0.7743    Z=             -0.0729  Tot=              3.6383
 Quadrupole moment (field-independent basis, Debye-Ang):
   XX=            -27.4104   YY=            -21.8108   ZZ=            -25.1502
   XY=             -0.9077   XZ=              0.2450   YZ=             -0.0264

 Normal termination of Gaussian 09 at Wed Aug 26 18:35:46 2020.
