 Gaussian 09, Revision D.01,
 Gaussian 09:  ES64L-G09RevD.01 24-Apr-2013

 --------------------
 #p B2PLYPD3/Def2QZVP
 --------------------

 --------
 acrolein
 --------
 Symbolic Z-matrix:
 Charge =  0 Multiplicity = 1

                         Standard orientation:
 ---------------------------------------------------------------------
 Center     Atomic      Atomic             Coordinates (Angstroms)
 Number     Number       Type             X           Y           Z
 ---------------------------------------------------------------------
      1          6           0       -0.686613    0.349855    0.027236
      2          8           0       -1.774339   -0.137352   -0.032669
      3          6           0        0.539681   -0.439785    0.051866
      4          6           0        1.762547    0.125226   -0.027601
      5          1           0        0.507143   -1.441024   -0.008979
      6          1           0        1.818042    1.186865   -0.034556
      7          1           0        2.676495   -0.397917   -0.051075
      8          1           0       -0.500655    1.539110    0.046961
 ---------------------------------------------------------------------

 SCF Done:  E(RB2PLYPD3) =  -191.605252523     A.U. after   13 cycles
 E2(B2PLYPD3) =    -0.2470059715D+00 E(B2PLYPD3) =    -0.19185225849483D+03

 The electronic state is 1-A.
 Alpha  occ. eigenvalues --  -19.73139 -10.72389 -10.65093 -10.63599  -1.20877
 Alpha  occ. eigenvalues --   -0.93023  -0.75616  -0.67081  -0.57121  -0.56329
 Alpha  occ. eigenvalues --   -0.50914  -0.47631  -0.47416  -0.34459  -0.33801
 Alpha virt. eigenvalues --   -0.01860   0.05868   0.07248   0.08385   0.09797
 Alpha virt. eigenvalues --    0.12562   0.13836   0.15394   0.17862   0.19806
 Alpha virt. eigenvalues --    0.19976   0.21395   0.25397   0.26156   0.28916

 Mulliken charges:
               1
     1  C    0.156473
     2  O   -0.330142
     3  C   -0.036154
     4  C   -0.125821
     5  H    0.107902
     6  H    0.077303
     7  H    0.102064
     8  H    0.048376
 Sum of Mulliken charges =   0.00000

 Dipole moment (field-independent basis, Debye):
    X=              3.4039    Y=              0.6479    Z=              0.0224  Tot=              3.4651
 Quadrupole moment (field-independent basis, Debye-Ang):
   XX=            -26.8647   YY=            -22.1134   ZZ=            -25.1692
   XY=             -1.0752   XZ=             -0.3585   YZ=              0.0422

 Normal termination of Gaussian 09 at Wed Aug 26 08:56:48 2020.
