 Gaussian 09, Revision D.01,
 Gaussian 09:  ES64L-G09RevD.01 24-Apr-2013

 --------------------
 #p B2PLYPD3/Def2QZVP
 --------------------

 --------
 acrolein
 --------
 Symbolic Z-matrix:
 Charge =  0 Multiplicity = 1

                         Standard orientation:
 ---------------------------------------------------------------------
 Center     Atomic      Atomic             Coordinates (Angstroms)
 Number     Number       Type             X           Y           Z
 ---------------------------------------------------------------------
      1          6           0       -0.694466    0.353626    0.041480
      2          8           0       -1.784259   -0.100774   -0.064561
      3          6           0        0.557732   -0.465019    0.122851
      4          6           0        1.776697    0.132086   -0.075110
      5          1           0        0.426444   -1.541721    0.003168
      6          1           0        1.988277    1.369344    0.062787
      7          1           0        2.598414   -0.436701   -0.168197
      8          1           0       -0.578845    1.291112    0.083408
 ---------------------------------------------------------------------

 SCF Done:  E(RB2PLYPD3) =  -191.571054619     A.U. after   13 cycles
 E2(B2PLYPD3) =    -0.2468393319D+00 E(B2PLYPD3) =    -0.19181789395064D+03

 The electronic state is 1-A.
 Alpha  occ. eigenvalues --  -19.72416 -10.69650 -10.66758 -10.65006  -1.20904
 Alpha  occ. eigenvalues --   -0.91607  -0.76346  -0.68680  -0.56723  -0.55634
 Alpha  occ. eigenvalues --   -0.51216  -0.47231  -0.45619  -0.34054  -0.33792
 Alpha virt. eigenvalues --   -0.01702   0.05276   0.07270   0.07928   0.09438
 Alpha virt. eigenvalues --    0.12213   0.13964   0.15549   0.18028   0.18814
 Alpha virt. eigenvalues --    0.19845   0.21907   0.23615   0.27147   0.28050

 Mulliken charges:
               1
     1  C    0.179592
     2  O   -0.342879
     3  C   -0.074162
     4  C   -0.132040
     5  H    0.105590
     6  H    0.074374
     7  H    0.106277
     8  H    0.083248
 Sum of Mulliken charges =   0.00000

 Dipole moment (field-independent basis, Debye):
    X=              3.3180    Y=              0.7982    Z=              0.1154  Tot=              3.4146
 Quadrupole moment (field-independent basis, Debye-Ang):
   XX=            -27.4250   YY=            -21.4988   ZZ=            -25.2612
   XY=             -0.8799   XZ=             -0.6855   YZ=              0.3049

 Normal termination of Gaussian 09 at Wed Aug 26 12:28:58 2020.
