 Gaussian 09, Revision D.01,
 Gaussian 09:  ES64L-G09RevD.01 24-Apr-2013

 --------------------
 #p B2PLYPD3/Def2QZVP
 --------------------

 --------
 acrolein
 --------
 Symbolic Z-matrix:
 Charge =  0 Multiplicity = 1

                         Standard orientation:
 ---------------------------------------------------------------------
 Center     Atomic      Atomic             Coordinates (Angstroms)
 Number     Number       Type             X           Y           Z
 ---------------------------------------------------------------------
      1          6           0        0.701509    0.387091    0.030160
      2          8           0        1.790551   -0.154023   -0.026373
      3          6           0       -0.542000   -0.413234   -0.016009
      4          6           0       -1.772786    0.110891    0.003494
      5          1           0       -0.443631   -1.568106    0.133456
      6          1           0       -1.874615    1.144153   -0.088582
      7          1           0       -2.719115   -0.453534   -0.033882
      8          1           0        0.392614    1.601179    0.094117
 ---------------------------------------------------------------------

 SCF Done:  E(RB2PLYPD3) =  -191.593041984     A.U. after   13 cycles
 E2(B2PLYPD3) =    -0.2501706393D+00 E(B2PLYPD3) =    -0.19184321262363D+03

 The electronic state is 1-A.
 Alpha  occ. eigenvalues --  -19.73983 -10.73841 -10.65321 -10.65192  -1.19926
 Alpha  occ. eigenvalues --   -0.92457  -0.75275  -0.64902  -0.56473  -0.55448
 Alpha  occ. eigenvalues --   -0.50734  -0.47193  -0.45060  -0.34667  -0.34062
 Alpha virt. eigenvalues --   -0.02168   0.05521   0.06415   0.07860   0.09779
 Alpha virt. eigenvalues --    0.12419   0.13168   0.14890   0.17187   0.19479
 Alpha virt. eigenvalues --    0.20046   0.22037   0.24920   0.26233   0.28338

 Mulliken charges:
               1
     1  C    0.166981
     2  O   -0.330882
     3  C   -0.032960
     4  C   -0.124285
     5  H    0.093345
     6  H    0.074612
     7  H    0.103447
     8  H    0.049742
 Sum of Mulliken charges =   0.00000

 Dipole moment (field-independent basis, Debye):
    X=             -3.3910    Y=              0.7808    Z=              0.1249  Tot=              3.4820
 Quadrupole moment (field-independent basis, Debye-Ang):
   XX=            -27.0384   YY=            -22.2296   ZZ=            -25.4643
   XY=              0.8978   XZ=              0.2577   YZ=             -0.2444

 Normal termination of Gaussian 09 at Wed Aug 26 11:19:29 2020.
