 Gaussian 09, Revision D.01,
 Gaussian 09:  ES64L-G09RevD.01 24-Apr-2013

 --------------------
 #p B2PLYPD3/Def2QZVP
 --------------------

 --------
 acrolein
 --------
 Symbolic Z-matrix:
 Charge =  0 Multiplicity = 1

                         Standard orientation:
 ---------------------------------------------------------------------
 Center     Atomic      Atomic             Coordinates (Angstroms)
 Number     Number       Type             X           Y           Z
 ---------------------------------------------------------------------
      1          6           0       -0.671302    0.355339   -0.000656
      2          8           0       -1.784195   -0.123822    0.014280
      3          6           0        0.549882   -0.442470   -0.021513
      4          6           0        1.754550    0.138461    0.001046
      5          1           0        0.419244   -1.521394   -0.034100
      6          1           0        1.828505    1.190233    0.012197
      7          1           0        2.711400   -0.432262    0.084425
      8          1           0       -0.484365    1.446025   -0.050027
 ---------------------------------------------------------------------

 SCF Done:  E(RB2PLYPD3) =  -191.614898489     A.U. after   12 cycles
 E2(B2PLYPD3) =    -0.2474117853D+00 E(B2PLYPD3) =    -0.19186231027481D+03

 The electronic state is 1-A.
 Alpha  occ. eigenvalues --  -19.72863 -10.71563 -10.65661 -10.64372  -1.19502
 Alpha  occ. eigenvalues --   -0.93038  -0.75563  -0.67114  -0.56685  -0.56102
 Alpha  occ. eigenvalues --   -0.50519  -0.47024  -0.46660  -0.34610  -0.33906
 Alpha virt. eigenvalues --   -0.01922   0.05700   0.07149   0.08208   0.09779
 Alpha virt. eigenvalues --    0.12550   0.13946   0.15352   0.17468   0.19793
 Alpha virt. eigenvalues --    0.20025   0.21495   0.25517   0.26458   0.28750

 Mulliken charges:
               1
     1  C    0.154945
     2  O   -0.350175
     3  C   -0.033043
     4  C   -0.133479
     5  H    0.105907
     6  H    0.085129
     7  H    0.101060
     8  H    0.069657
 Sum of Mulliken charges =   0.00000

 Dipole moment (field-independent basis, Debye):
    X=              3.4978    Y=              0.7783    Z=              0.0053  Tot=              3.5834
 Quadrupole moment (field-independent basis, Debye-Ang):
   XX=            -27.3678   YY=            -21.8217   ZZ=            -25.2176
   XY=             -0.8747   XZ=              0.2941   YZ=             -0.0153

 Normal termination of Gaussian 09 at Wed Aug 26 20:10:12 2020.
