 Gaussian 09, Revision D.01,
 Gaussian 09:  ES64L-G09RevD.01 24-Apr-2013

 --------------------
 #p B2PLYPD3/Def2QZVP
 --------------------

 --------
 acrolein
 --------
 Symbolic Z-matrix:
 Charge =  0 Multiplicity = 1

                         Standard orientation:
 ---------------------------------------------------------------------
 Center     Atomic      Atomic             Coordinates (Angstroms)
 Number     Number       Type             X           Y           Z
 ---------------------------------------------------------------------
      1          6           0       -0.670568    0.343492    0.020739
      2          8           0       -1.786063   -0.112790   -0.015372
      3          6           0        0.566493   -0.464351    0.009874
      4          6           0        1.755943    0.160111   -0.019343
      5          1           0        0.436736   -1.535997    0.001858
      6          1           0        1.820944    1.218251   -0.040903
      7          1           0        2.673730   -0.415183    0.049571
      8          1           0       -0.554115    1.399728    0.044826
 ---------------------------------------------------------------------

 SCF Done:  E(RB2PLYPD3) =  -191.615411467     A.U. after   12 cycles
 E2(B2PLYPD3) =    -0.2465857253D+00 E(B2PLYPD3) =    -0.19186199719240D+03

 The electronic state is 1-A.
 Alpha  occ. eigenvalues --  -19.72527 -10.70925 -10.65401 -10.64566  -1.19661
 Alpha  occ. eigenvalues --   -0.92764  -0.75402  -0.67717  -0.57041  -0.56154
 Alpha  occ. eigenvalues --   -0.50455  -0.47551  -0.46718  -0.34498  -0.33677
 Alpha virt. eigenvalues --   -0.01665   0.05803   0.07287   0.08130   0.09748
 Alpha virt. eigenvalues --    0.12640   0.14049   0.15387   0.17555   0.19741
 Alpha virt. eigenvalues --    0.20051   0.21622   0.25357   0.26487   0.28881

 Mulliken charges:
               1
     1  C    0.152147
     2  O   -0.349629
     3  C   -0.042178
     4  C   -0.135497
     5  H    0.107832
     6  H    0.090410
     7  H    0.101117
     8  H    0.075798
 Sum of Mulliken charges =   0.00000

 Dipole moment (field-independent basis, Debye):
    X=              3.4557    Y=              0.7745    Z=              0.0841  Tot=              3.5424
 Quadrupole moment (field-independent basis, Debye-Ang):
   XX=            -27.5638   YY=            -21.5796   ZZ=            -25.1865
   XY=             -0.9009   XZ=             -0.0164   YZ=             -0.0611

 Normal termination of Gaussian 09 at Wed Aug 26 20:48:19 2020.
