 Gaussian 09, Revision D.01,
 Gaussian 09:  ES64L-G09RevD.01 24-Apr-2013

 --------------------
 #p B2PLYPD3/Def2QZVP
 --------------------

 --------
 acrolein
 --------
 Symbolic Z-matrix:
 Charge =  0 Multiplicity = 1

                         Standard orientation:
 ---------------------------------------------------------------------
 Center     Atomic      Atomic             Coordinates (Angstroms)
 Number     Number       Type             X           Y           Z
 ---------------------------------------------------------------------
      1          6           0        0.667062    0.342705    0.016540
      2          8           0        1.804784   -0.110403   -0.035466
      3          6           0       -0.569096   -0.461929    0.017618
      4          6           0       -1.764903    0.152346   -0.011463
      5          1           0       -0.455138   -1.582272    0.101983
      6          1           0       -1.804600    1.265746   -0.119007
      7          1           0       -2.693095   -0.406838   -0.040927
      8          1           0        0.516184    1.407854    0.205504
 ---------------------------------------------------------------------

 SCF Done:  E(RB2PLYPD3) =  -191.611305983     A.U. after   13 cycles
 E2(B2PLYPD3) =    -0.2486729012D+00 E(B2PLYPD3) =    -0.19185997888434D+03

 The electronic state is 1-A.
 Alpha  occ. eigenvalues --  -19.72855 -10.71738 -10.66184 -10.65282  -1.18599
 Alpha  occ. eigenvalues --   -0.92695  -0.75366  -0.66482  -0.56239  -0.55971
 Alpha  occ. eigenvalues --   -0.50370  -0.46694  -0.45895  -0.34626  -0.33852
 Alpha virt. eigenvalues --   -0.02093   0.05672   0.06785   0.07769   0.09630
 Alpha virt. eigenvalues --    0.12529   0.14016   0.15196   0.17297   0.19136
 Alpha virt. eigenvalues --    0.20226   0.21400   0.24741   0.26849   0.28853

 Mulliken charges:
               1
     1  C    0.157908
     2  O   -0.354317
     3  C   -0.044340
     4  C   -0.127506
     5  H    0.102939
     6  H    0.082346
     7  H    0.106349
     8  H    0.076621
 Sum of Mulliken charges =   0.00000

 Dipole moment (field-independent basis, Debye):
    X=             -3.5771    Y=              0.7348    Z=              0.1290  Tot=              3.6541
 Quadrupole moment (field-independent basis, Debye-Ang):
   XX=            -27.6898   YY=            -21.6843   ZZ=            -25.3500
   XY=              0.9390   XZ=              0.4309   YZ=             -0.1865

 Normal termination of Gaussian 09 at Wed Aug 26 08:41:05 2020.
