 Gaussian 09, Revision D.01,
 Gaussian 09:  ES64L-G09RevD.01 24-Apr-2013

 --------------------
 #p B2PLYPD3/Def2QZVP
 --------------------

 --------
 acrolein
 --------
 Symbolic Z-matrix:
 Charge =  0 Multiplicity = 1

                         Standard orientation:
 ---------------------------------------------------------------------
 Center     Atomic      Atomic             Coordinates (Angstroms)
 Number     Number       Type             X           Y           Z
 ---------------------------------------------------------------------
      1          6           0       -0.669074    0.340577    0.031146
      2          8           0       -1.788566   -0.112734   -0.023414
      3          6           0        0.560075   -0.452061    0.024802
      4          6           0        1.760203    0.146104   -0.019530
      5          1           0        0.422968   -1.578894   -0.003135
      6          1           0        1.822605    1.233189   -0.020153
      7          1           0        2.672449   -0.411465   -0.016647
      8          1           0       -0.516714    1.451320    0.008738
 ---------------------------------------------------------------------

 SCF Done:  E(RB2PLYPD3) =  -191.614360205     A.U. after   12 cycles
 E2(B2PLYPD3) =    -0.2476457608D+00 E(B2PLYPD3) =    -0.19186200596559D+03

 The electronic state is 1-A.
 Alpha  occ. eigenvalues --  -19.72792 -10.71614 -10.65695 -10.65083  -1.19604
 Alpha  occ. eigenvalues --   -0.92844  -0.75573  -0.66190  -0.56558  -0.56232
 Alpha  occ. eigenvalues --   -0.50506  -0.46867  -0.46559  -0.34641  -0.33771
 Alpha virt. eigenvalues --   -0.01928   0.05771   0.06898   0.08266   0.09741
 Alpha virt. eigenvalues --    0.12529   0.14006   0.15345   0.17106   0.19835
 Alpha virt. eigenvalues --    0.19948   0.21638   0.25342   0.26429   0.28864

 Mulliken charges:
               1
     1  C    0.158674
     2  O   -0.346577
     3  C   -0.035413
     4  C   -0.130518
     5  H    0.099279
     6  H    0.086018
     7  H    0.107236
     8  H    0.061301
 Sum of Mulliken charges =   0.00000

 Dipole moment (field-independent basis, Debye):
    X=              3.5162    Y=              0.7098    Z=              0.0535  Tot=              3.5875
 Quadrupole moment (field-independent basis, Debye-Ang):
   XX=            -27.3911   YY=            -21.7813   ZZ=            -25.3007
   XY=             -0.8537   XZ=             -0.1856   YZ=              0.0027

 Normal termination of Gaussian 09 at Wed Aug 26 16:16:32 2020.
