 Gaussian 09, Revision D.01,
 Gaussian 09:  ES64L-G09RevD.01 24-Apr-2013

 --------------------
 #p B2PLYPD3/Def2QZVP
 --------------------

 --------
 acrolein
 --------
 Symbolic Z-matrix:
 Charge =  0 Multiplicity = 1

                         Standard orientation:
 ---------------------------------------------------------------------
 Center     Atomic      Atomic             Coordinates (Angstroms)
 Number     Number       Type             X           Y           Z
 ---------------------------------------------------------------------
      1          6           0       -0.685087    0.357312    0.011200
      2          8           0       -1.783480   -0.132016   -0.027009
      3          6           0        0.562757   -0.437801    0.016303
      4          6           0        1.760376    0.147929   -0.038508
      5          1           0        0.448828   -1.540665    0.096937
      6          1           0        1.795777    1.144026   -0.056423
      7          1           0        2.718415   -0.405112    0.060656
      8          1           0       -0.523457    1.453237    0.180931
 ---------------------------------------------------------------------

 SCF Done:  E(RB2PLYPD3) =  -191.608797514     A.U. after   12 cycles
 E2(B2PLYPD3) =    -0.2469203289D+00 E(B2PLYPD3) =    -0.19185571784277D+03

 The electronic state is 1-A.
 Alpha  occ. eigenvalues --  -19.73053 -10.71865 -10.64706 -10.64573  -1.20159
 Alpha  occ. eigenvalues --   -0.92932  -0.75452  -0.66930  -0.57032  -0.56196
 Alpha  occ. eigenvalues --   -0.50828  -0.47305  -0.46531  -0.34635  -0.33887
 Alpha virt. eigenvalues --   -0.01663   0.05869   0.06947   0.08186   0.09805
 Alpha virt. eigenvalues --    0.12645   0.14105   0.15379   0.17288   0.19552
 Alpha virt. eigenvalues --    0.20235   0.21802   0.25241   0.26618   0.28771

 Mulliken charges:
               1
     1  C    0.152744
     2  O   -0.339224
     3  C   -0.036504
     4  C   -0.134726
     5  H    0.101435
     6  H    0.085856
     7  H    0.100905
     8  H    0.069513
 Sum of Mulliken charges =   0.00000

 Dipole moment (field-independent basis, Debye):
    X=              3.3530    Y=              0.8073    Z=              0.2188  Tot=              3.4558
 Quadrupole moment (field-independent basis, Debye-Ang):
   XX=            -27.2824   YY=            -21.8826   ZZ=            -25.1733
   XY=             -0.9804   XZ=             -0.0190   YZ=             -0.1553

 Normal termination of Gaussian 09 at Wed Aug 26 09:27:58 2020.
