 Gaussian 09, Revision D.01,
 Gaussian 09:  ES64L-G09RevD.01 24-Apr-2013

 --------------------
 #p B2PLYPD3/Def2QZVP
 --------------------

 --------
 acrolein
 --------
 Symbolic Z-matrix:
 Charge =  0 Multiplicity = 1

                         Standard orientation:
 ---------------------------------------------------------------------
 Center     Atomic      Atomic             Coordinates (Angstroms)
 Number     Number       Type             X           Y           Z
 ---------------------------------------------------------------------
      1          6           0       -0.669942    0.342983   -0.004770
      2          8           0       -1.792608   -0.112283    0.001833
      3          6           0        0.568499   -0.473819   -0.010073
      4          6           0        1.746079    0.152890    0.008047
      5          1           0        0.471682   -1.535046    0.036197
      6          1           0        1.865747    1.257795    0.006489
      7          1           0        2.663730   -0.403800   -0.025302
      8          1           0       -0.528112    1.446990    0.008728
 ---------------------------------------------------------------------

 SCF Done:  E(RB2PLYPD3) =  -191.615534989     A.U. after   12 cycles
 E2(B2PLYPD3) =    -0.2472305220D+00 E(B2PLYPD3) =    -0.19186276551090D+03

 The electronic state is 1-A.
 Alpha  occ. eigenvalues --  -19.72713 -10.71663 -10.65654 -10.64526  -1.19381
 Alpha  occ. eigenvalues --   -0.92862  -0.74999  -0.67029  -0.56401  -0.56312
 Alpha  occ. eigenvalues --   -0.50479  -0.47100  -0.46567  -0.34714  -0.33669
 Alpha virt. eigenvalues --   -0.01572   0.05713   0.07171   0.07983   0.09640
 Alpha virt. eigenvalues --    0.12514   0.14071   0.15329   0.17551   0.19674
 Alpha virt. eigenvalues --    0.19969   0.21514   0.25336   0.26398   0.28628

 Mulliken charges:
               1
     1  C    0.155212
     2  O   -0.347910
     3  C   -0.047006
     4  C   -0.125684
     5  H    0.109959
     6  H    0.085720
     7  H    0.097760
     8  H    0.071950
 Sum of Mulliken charges =   0.00000

 Dipole moment (field-independent basis, Debye):
    X=              3.5044    Y=              0.7228    Z=              0.0113  Tot=              3.5782
 Quadrupole moment (field-independent basis, Debye-Ang):
   XX=            -27.5528   YY=            -21.6069   ZZ=            -25.2560
   XY=             -0.8184   XZ=             -0.0228   YZ=             -0.0351

 Normal termination of Gaussian 09 at Wed Aug 26 16:04:38 2020.
