 Gaussian 09, Revision D.01,
 Gaussian 09:  ES64L-G09RevD.01 24-Apr-2013

 --------------------
 #p B2PLYPD3/Def2QZVP
 --------------------

 --------
 acrolein
 --------
 Symbolic Z-matrix:
 Charge =  0 Multiplicity = 1

                         Standard orientation:
 ---------------------------------------------------------------------
 Center     Atomic      Atomic             Coordinates (Angstroms)
 Number     Number       Type             X           Y           Z
 ---------------------------------------------------------------------
      1          6           0        0.640148    0.334632    0.069776
      2          8           0        1.795679   -0.094118   -0.072270
      3          6           0       -0.579052   -0.468632    0.068194
      4          6           0       -1.732572    0.128794   -0.078888
      5          1           0       -0.416452   -1.559796    0.047853
      6          1           0       -1.901653    1.327872   -0.129598
      7          1           0       -2.559463   -0.355857    0.066028
      8          1           0        0.540996    1.371965    0.239384
 ---------------------------------------------------------------------

 SCF Done:  E(RB2PLYPD3) =  -191.588459788     A.U. after   13 cycles
 E2(B2PLYPD3) =    -0.2482630838D+00 E(B2PLYPD3) =    -0.19183672287134D+03

 The electronic state is 1-A.
 Alpha  occ. eigenvalues --  -19.72566 -10.71103 -10.65334 -10.64689  -1.17576
 Alpha  occ. eigenvalues --   -0.94055  -0.76670  -0.67144  -0.57722  -0.55730
 Alpha  occ. eigenvalues --   -0.50540  -0.46082  -0.45509  -0.35182  -0.33768
 Alpha virt. eigenvalues --   -0.02115   0.05449   0.06939   0.08036   0.09575
 Alpha virt. eigenvalues --    0.12316   0.13940   0.15594   0.17266   0.18435
 Alpha virt. eigenvalues --    0.20111   0.22390   0.25086   0.26577   0.28810

 Mulliken charges:
               1
     1  C    0.157336
     2  O   -0.368055
     3  C   -0.047103
     4  C   -0.106586
     5  H    0.107629
     6  H    0.068819
     7  H    0.105061
     8  H    0.082898
 Sum of Mulliken charges =   0.00000

 Dipole moment (field-independent basis, Debye):
    X=             -3.6758    Y=              0.6875    Z=              0.3354  Tot=              3.7546
 Quadrupole moment (field-independent basis, Debye-Ang):
   XX=            -27.8070   YY=            -21.5340   ZZ=            -25.1179
   XY=              0.6562   XZ=              0.3991   YZ=             -0.1071

 Normal termination of Gaussian 09 at Wed Aug 26 11:56:53 2020.
