 Gaussian 09, Revision D.01,
 Gaussian 09:  ES64L-G09RevD.01 24-Apr-2013

 --------------------
 #p B2PLYPD3/Def2QZVP
 --------------------

 --------
 acrolein
 --------
 Symbolic Z-matrix:
 Charge =  0 Multiplicity = 1

                         Standard orientation:
 ---------------------------------------------------------------------
 Center     Atomic      Atomic             Coordinates (Angstroms)
 Number     Number       Type             X           Y           Z
 ---------------------------------------------------------------------
      1          6           0       -0.685071    0.357829    0.057800
      2          8           0       -1.766315   -0.132519   -0.044267
      3          6           0        0.535593   -0.446620    0.021193
      4          6           0        1.749293    0.130115   -0.032303
      5          1           0        0.488389   -1.453496    0.064515
      6          1           0        1.824775    1.214750   -0.083466
      7          1           0        2.722610   -0.405698    0.015703
      8          1           0       -0.504146    1.456646    0.077246
 ---------------------------------------------------------------------

 SCF Done:  E(RB2PLYPD3) =  -191.610484449     A.U. after   13 cycles
 E2(B2PLYPD3) =    -0.2463806017D+00 E(B2PLYPD3) =    -0.19185686505098D+03

 The electronic state is 1-A.
 Alpha  occ. eigenvalues --  -19.72836 -10.71462 -10.65698 -10.63452  -1.20821
 Alpha  occ. eigenvalues --   -0.92748  -0.75033  -0.67863  -0.56845  -0.56372
 Alpha  occ. eigenvalues --   -0.50839  -0.47493  -0.46907  -0.34399  -0.33850
 Alpha virt. eigenvalues --   -0.01603   0.05744   0.07445   0.08235   0.09729
 Alpha virt. eigenvalues --    0.12491   0.14157   0.15464   0.18062   0.19660
 Alpha virt. eigenvalues --    0.19917   0.21164   0.25500   0.26351   0.29025

 Mulliken charges:
               1
     1  C    0.152316
     2  O   -0.335200
     3  C   -0.042253
     4  C   -0.131195
     5  H    0.111196
     6  H    0.075272
     7  H    0.097084
     8  H    0.072779
 Sum of Mulliken charges =   0.00000

 Dipole moment (field-independent basis, Debye):
    X=              3.3298    Y=              0.7720    Z=              0.1945  Tot=              3.4236
 Quadrupole moment (field-independent basis, Debye-Ang):
   XX=            -27.0844   YY=            -21.8845   ZZ=            -25.1562
   XY=             -1.0553   XZ=             -0.2504   YZ=             -0.1601

 Normal termination of Gaussian 09 at Wed Aug 26 08:59:34 2020.
