 Gaussian 09, Revision D.01,
 Gaussian 09:  ES64L-G09RevD.01 24-Apr-2013

 --------------------
 #p B2PLYPD3/Def2QZVP
 --------------------

 --------
 acrolein
 --------
 Symbolic Z-matrix:
 Charge =  0 Multiplicity = 1

                         Standard orientation:
 ---------------------------------------------------------------------
 Center     Atomic      Atomic             Coordinates (Angstroms)
 Number     Number       Type             X           Y           Z
 ---------------------------------------------------------------------
      1          6           0       -0.702559    0.361413    0.068672
      2          8           0       -1.767961   -0.134672   -0.068959
      3          6           0        0.531400   -0.404794    0.057123
      4          6           0        1.783400    0.128236   -0.069524
      5          1           0        0.370015   -1.443706    0.078754
      6          1           0        1.893963    1.157805   -0.120702
      7          1           0        2.777119   -0.488014    0.066174
      8          1           0       -0.570856    1.342164    0.189815
 ---------------------------------------------------------------------

 SCF Done:  E(RB2PLYPD3) =  -191.596678020     A.U. after   13 cycles
 E2(B2PLYPD3) =    -0.2459944517D+00 E(B2PLYPD3) =    -0.19184267247131D+03

 The electronic state is 1-A.
 Alpha  occ. eigenvalues --  -19.72652 -10.69927 -10.66257 -10.63952  -1.21271
 Alpha  occ. eigenvalues --   -0.92135  -0.76247  -0.68959  -0.57618  -0.55565
 Alpha  occ. eigenvalues --   -0.51010  -0.47536  -0.46627  -0.34276  -0.33691
 Alpha virt. eigenvalues --   -0.02111   0.05560   0.07651   0.08658   0.09771
 Alpha virt. eigenvalues --    0.12402   0.13972   0.15625   0.18157   0.19030
 Alpha virt. eigenvalues --    0.19883   0.21419   0.25336   0.26819   0.28680

 Mulliken charges:
               1
     1  C    0.158210
     2  O   -0.340845
     3  C   -0.046748
     4  C   -0.140513
     5  H    0.107714
     6  H    0.083856
     7  H    0.096995
     8  H    0.081331
 Sum of Mulliken charges =   0.00000

 Dipole moment (field-independent basis, Debye):
    X=              3.2419    Y=              0.9278    Z=              0.3233  Tot=              3.3875
 Quadrupole moment (field-independent basis, Debye-Ang):
   XX=            -27.0025   YY=            -21.9088   ZZ=            -25.1244
   XY=             -0.9786   XZ=             -0.3407   YZ=             -0.2023

 Normal termination of Gaussian 09 at Wed Aug 26 12:21:47 2020.
