 Gaussian 09, Revision D.01,
 Gaussian 09:  ES64L-G09RevD.01 24-Apr-2013

 --------------------
 #p B2PLYPD3/Def2QZVP
 --------------------

 --------
 acrolein
 --------
 Symbolic Z-matrix:
 Charge =  0 Multiplicity = 1

                         Standard orientation:
 ---------------------------------------------------------------------
 Center     Atomic      Atomic             Coordinates (Angstroms)
 Number     Number       Type             X           Y           Z
 ---------------------------------------------------------------------
      1          6           0        0.692188    0.345869   -0.078536
      2          8           0        1.790321   -0.101736    0.062893
      3          6           0       -0.575216   -0.504999   -0.076572
      4          6           0       -1.766603    0.173126    0.010781
      5          1           0       -0.433699   -1.540919    0.031127
      6          1           0       -1.880098    1.236076    0.028458
      7          1           0       -2.725406   -0.339156    0.252687
      8          1           0        0.614423    1.373908    0.050545
 ---------------------------------------------------------------------

 SCF Done:  E(RB2PLYPD3) =  -191.602034607     A.U. after   13 cycles
 E2(B2PLYPD3) =    -0.2470991716D+00 E(B2PLYPD3) =    -0.19184913377897D+03

 The electronic state is 1-A.
 Alpha  occ. eigenvalues --  -19.72521 -10.70885 -10.66064 -10.65340  -1.20448
 Alpha  occ. eigenvalues --   -0.91369  -0.74556  -0.68444  -0.56922  -0.55717
 Alpha  occ. eigenvalues --   -0.50989  -0.47103  -0.46826  -0.33987  -0.33397
 Alpha virt. eigenvalues --   -0.01509   0.05756   0.07109   0.07742   0.09579
 Alpha virt. eigenvalues --    0.12523   0.14352   0.15430   0.17917   0.19456
 Alpha virt. eigenvalues --    0.19806   0.21547   0.24112   0.26883   0.28698

 Mulliken charges:
               1
     1  C    0.161251
     2  O   -0.340192
     3  C   -0.071483
     4  C   -0.126613
     5  H    0.119640
     6  H    0.088079
     7  H    0.087940
     8  H    0.081379
 Sum of Mulliken charges =   0.00000

 Dipole moment (field-independent basis, Debye):
    X=             -3.2776    Y=              0.8177    Z=              0.0658  Tot=              3.3788
 Quadrupole moment (field-independent basis, Debye-Ang):
   XX=            -27.5211   YY=            -21.5481   ZZ=            -25.2665
   XY=              0.6410   XZ=             -0.9863   YZ=             -0.1251

 Normal termination of Gaussian 09 at Wed Aug 26 12:56:58 2020.
