 Gaussian 09, Revision D.01,
 Gaussian 09:  ES64L-G09RevD.01 24-Apr-2013

 --------------------
 #p B2PLYPD3/Def2QZVP
 --------------------

 --------
 acrolein
 --------
 Symbolic Z-matrix:
 Charge =  0 Multiplicity = 1

                         Standard orientation:
 ---------------------------------------------------------------------
 Center     Atomic      Atomic             Coordinates (Angstroms)
 Number     Number       Type             X           Y           Z
 ---------------------------------------------------------------------
      1          6           0       -0.678620    0.348867    0.019613
      2          8           0       -1.781537   -0.127307   -0.008172
      3          6           0        0.561267   -0.435373   -0.005705
      4          6           0        1.765388    0.142516   -0.009765
      5          1           0        0.422867   -1.511521    0.010078
      6          1           0        1.811654    1.177981   -0.024391
      7          1           0        2.664219   -0.434239    0.048544
      8          1           0       -0.534656    1.450172    0.006286
 ---------------------------------------------------------------------

 SCF Done:  E(RB2PLYPD3) =  -191.615702479     A.U. after   12 cycles
 E2(B2PLYPD3) =    -0.2464673459D+00 E(B2PLYPD3) =    -0.19186216982506D+03

 The electronic state is 1-A.
 Alpha  occ. eigenvalues --  -19.72844 -10.71450 -10.64866 -10.64274  -1.20118
 Alpha  occ. eigenvalues --   -0.93061  -0.75773  -0.67034  -0.56976  -0.56584
 Alpha  occ. eigenvalues --   -0.50839  -0.47250  -0.47095  -0.34642  -0.33795
 Alpha virt. eigenvalues --   -0.01742   0.05884   0.07242   0.08389   0.09857
 Alpha virt. eigenvalues --    0.12645   0.13942   0.15403   0.17434   0.19897
 Alpha virt. eigenvalues --    0.20021   0.21809   0.25586   0.26404   0.28831

 Mulliken charges:
               1
     1  C    0.155014
     2  O   -0.343659
     3  C   -0.033755
     4  C   -0.137963
     5  H    0.101714
     6  H    0.088159
     7  H    0.106455
     8  H    0.064035
 Sum of Mulliken charges =   0.00000

 Dipole moment (field-independent basis, Debye):
    X=              3.4131    Y=              0.7594    Z=              0.0742  Tot=              3.4973
 Quadrupole moment (field-independent basis, Debye-Ang):
   XX=            -27.2935   YY=            -21.8392   ZZ=            -25.1387
   XY=             -1.0004   XZ=              0.0598   YZ=             -0.0765

 Normal termination of Gaussian 09 at Wed Aug 26 16:14:50 2020.
