 Gaussian 09, Revision D.01,
 Gaussian 09:  ES64L-G09RevD.01 24-Apr-2013

 --------------------
 #p B2PLYPD3/Def2QZVP
 --------------------

 --------
 acrolein
 --------
 Symbolic Z-matrix:
 Charge =  0 Multiplicity = 1

                         Standard orientation:
 ---------------------------------------------------------------------
 Center     Atomic      Atomic             Coordinates (Angstroms)
 Number     Number       Type             X           Y           Z
 ---------------------------------------------------------------------
      1          6           0        0.682053    0.355239   -0.014479
      2          8           0        1.781674   -0.127492    0.016116
      3          6           0       -0.549002   -0.443004   -0.019316
      4          6           0       -1.757130    0.127146    0.015908
      5          1           0       -0.460526   -1.489662   -0.031403
      6          1           0       -1.858952    1.243823   -0.022818
      7          1           0       -2.693030   -0.423073    0.043693
      8          1           0        0.503586    1.452562   -0.011080
 ---------------------------------------------------------------------

 SCF Done:  E(RB2PLYPD3) =  -191.615326525     A.U. after   13 cycles
 E2(B2PLYPD3) =    -0.2468503773D+00 E(B2PLYPD3) =    -0.19186217690211D+03

 The electronic state is 1-A.
 Alpha  occ. eigenvalues --  -19.72897 -10.71586 -10.65849 -10.63975  -1.20184
 Alpha  occ. eigenvalues --   -0.92793  -0.75256  -0.67129  -0.56661  -0.56223
 Alpha  occ. eigenvalues --   -0.50898  -0.47192  -0.46475  -0.34586  -0.33924
 Alpha virt. eigenvalues --   -0.01676   0.05689   0.07314   0.08289   0.09696
 Alpha virt. eigenvalues --    0.12431   0.14056   0.15419   0.17770   0.19584
 Alpha virt. eigenvalues --    0.19933   0.21395   0.25544   0.26416   0.28742

 Mulliken charges:
               1
     1  C    0.157293
     2  O   -0.341856
     3  C   -0.042587
     4  C   -0.129116
     5  H    0.107570
     6  H    0.075867
     7  H    0.101887
     8  H    0.070942
 Sum of Mulliken charges =   0.00000

 Dipole moment (field-independent basis, Debye):
    X=             -3.4196    Y=              0.7498    Z=             -0.0638  Tot=              3.5014
 Quadrupole moment (field-independent basis, Debye-Ang):
   XX=            -27.2285   YY=            -21.8552   ZZ=            -25.2163
   XY=              0.9956   XZ=             -0.1347   YZ=             -0.0240

 Normal termination of Gaussian 09 at Wed Aug 26 20:16:00 2020.
