 Gaussian 09, Revision D.01,
 Gaussian 09:  ES64L-G09RevD.01 24-Apr-2013

 --------------------
 #p B2PLYPD3/Def2QZVP
 --------------------

 --------
 acrolein
 --------
 Symbolic Z-matrix:
 Charge =  0 Multiplicity = 1

                         Standard orientation:
 ---------------------------------------------------------------------
 Center     Atomic      Atomic             Coordinates (Angstroms)
 Number     Number       Type             X           Y           Z
 ---------------------------------------------------------------------
      1          6           0       -0.667871    0.341762    0.013169
      2          8           0       -1.785117   -0.112388   -0.019317
      3          6           0        0.558791   -0.457928    0.008561
      4          6           0        1.750220    0.137492   -0.005055
      5          1           0        0.430852   -1.545080    0.043120
      6          1           0        1.882365    1.260538   -0.073874
      7          1           0        2.658555   -0.401564   -0.010138
      8          1           0       -0.537672    1.457253    0.095382
 ---------------------------------------------------------------------

 SCF Done:  E(RB2PLYPD3) =  -191.614289823     A.U. after   12 cycles
 E2(B2PLYPD3) =    -0.2471623118D+00 E(B2PLYPD3) =    -0.19186145213483D+03

 The electronic state is 1-A.
 Alpha  occ. eigenvalues --  -19.72694 -10.71546 -10.65770 -10.64667  -1.19720
 Alpha  occ. eigenvalues --   -0.92948  -0.75413  -0.66382  -0.56869  -0.56030
 Alpha  occ. eigenvalues --   -0.50610  -0.46892  -0.46461  -0.34775  -0.33691
 Alpha virt. eigenvalues --   -0.01700   0.05698   0.07074   0.08253   0.09654
 Alpha virt. eigenvalues --    0.12446   0.14153   0.15329   0.17337   0.19504
 Alpha virt. eigenvalues --    0.20047   0.21654   0.25330   0.26440   0.28694

 Mulliken charges:
               1
     1  C    0.158621
     2  O   -0.345734
     3  C   -0.044267
     4  C   -0.123562
     5  H    0.105884
     6  H    0.081599
     7  H    0.102372
     8  H    0.065087
 Sum of Mulliken charges =   0.00000

 Dipole moment (field-independent basis, Debye):
    X=              3.5071    Y=              0.6897    Z=              0.0568  Tot=              3.5747
 Quadrupole moment (field-independent basis, Debye-Ang):
   XX=            -27.3261   YY=            -21.7621   ZZ=            -25.2452
   XY=             -0.7956   XZ=             -0.2247   YZ=             -0.1116

 Normal termination of Gaussian 09 at Wed Aug 26 19:06:08 2020.
