 Gaussian 09, Revision D.01,
 Gaussian 09:  ES64L-G09RevD.01 24-Apr-2013

 --------------------
 #p B2PLYPD3/Def2QZVP
 --------------------

 --------
 acrolein
 --------
 Symbolic Z-matrix:
 Charge =  0 Multiplicity = 1

                         Standard orientation:
 ---------------------------------------------------------------------
 Center     Atomic      Atomic             Coordinates (Angstroms)
 Number     Number       Type             X           Y           Z
 ---------------------------------------------------------------------
      1          6           0       -0.672302    0.357748    0.008046
      2          8           0       -1.775732   -0.126617   -0.006485
      3          6           0        0.548269   -0.439706   -0.008085
      4          6           0        1.756769    0.131813   -0.011107
      5          1           0        0.436600   -1.509679    0.045445
      6          1           0        1.837572    1.218487   -0.010973
      7          1           0        2.673888   -0.416234    0.040379
      8          1           0       -0.538621    1.421233    0.043905
 ---------------------------------------------------------------------

 SCF Done:  E(RB2PLYPD3) =  -191.616677880     A.U. after   12 cycles
 E2(B2PLYPD3) =    -0.2464998692D+00 E(B2PLYPD3) =    -0.19186317774922D+03

 The electronic state is 1-A.
 Alpha  occ. eigenvalues --  -19.72613 -10.71016 -10.65395 -10.64164  -1.19810
 Alpha  occ. eigenvalues --   -0.92943  -0.75738  -0.67490  -0.56844  -0.56568
 Alpha  occ. eigenvalues --   -0.50772  -0.47032  -0.46649  -0.34528  -0.33927
 Alpha virt. eigenvalues --   -0.01743   0.05772   0.07303   0.08332   0.09746
 Alpha virt. eigenvalues --    0.12549   0.14204   0.15387   0.17627   0.19696
 Alpha virt. eigenvalues --    0.19961   0.21654   0.25553   0.26512   0.28951

 Mulliken charges:
               1
     1  C    0.153494
     2  O   -0.348315
     3  C   -0.040164
     4  C   -0.131772
     5  H    0.106101
     6  H    0.079572
     7  H    0.103362
     8  H    0.077722
 Sum of Mulliken charges =   0.00000

 Dipole moment (field-independent basis, Debye):
    X=              3.4526    Y=              0.8117    Z=              0.1077  Tot=              3.5484
 Quadrupole moment (field-independent basis, Debye-Ang):
   XX=            -27.3052   YY=            -21.7318   ZZ=            -25.1464
   XY=             -1.0317   XZ=              0.0816   YZ=             -0.0859

 Normal termination of Gaussian 09 at Wed Aug 26 15:30:05 2020.
