 Gaussian 09, Revision D.01,
 Gaussian 09:  ES64L-G09RevD.01 24-Apr-2013

 --------------------
 #p B2PLYPD3/Def2QZVP
 --------------------

 --------
 acrolein
 --------
 Symbolic Z-matrix:
 Charge =  0 Multiplicity = 1

                         Standard orientation:
 ---------------------------------------------------------------------
 Center     Atomic      Atomic             Coordinates (Angstroms)
 Number     Number       Type             X           Y           Z
 ---------------------------------------------------------------------
      1          6           0        0.685650    0.363808   -0.004161
      2          8           0        1.761050   -0.136905    0.030568
      3          6           0       -0.524301   -0.430294   -0.068166
      4          6           0       -1.775844    0.120724    0.034270
      5          1           0       -0.428695   -1.505767   -0.065860
      6          1           0       -1.802296    1.216710   -0.117702
      7          1           0       -2.643077   -0.453091    0.186890
      8          1           0        0.472635    1.511957   -0.019531
 ---------------------------------------------------------------------

 SCF Done:  E(RB2PLYPD3) =  -191.606964256     A.U. after   13 cycles
 E2(B2PLYPD3) =    -0.2477128991D+00 E(B2PLYPD3) =    -0.19185467715477D+03

 The electronic state is 1-A.
 Alpha  occ. eigenvalues --  -19.72976 -10.71843 -10.65896 -10.64354  -1.21233
 Alpha  occ. eigenvalues --   -0.92253  -0.75591  -0.66105  -0.57005  -0.55834
 Alpha  occ. eigenvalues --   -0.51185  -0.47940  -0.46442  -0.34018  -0.33666
 Alpha virt. eigenvalues --   -0.02116   0.05811   0.07060   0.08317   0.09901
 Alpha virt. eigenvalues --    0.12390   0.13824   0.15387   0.17307   0.19671
 Alpha virt. eigenvalues --    0.20018   0.21685   0.24851   0.26392   0.28741

 Mulliken charges:
               1
     1  C    0.160979
     2  O   -0.330106
     3  C   -0.038061
     4  C   -0.142280
     5  H    0.102592
     6  H    0.083204
     7  H    0.111772
     8  H    0.051901
 Sum of Mulliken charges =   0.00000

 Dipole moment (field-independent basis, Debye):
    X=             -3.3338    Y=              0.6781    Z=             -0.0535  Tot=              3.4025
 Quadrupole moment (field-independent basis, Debye-Ang):
   XX=            -27.1180   YY=            -22.0023   ZZ=            -25.2676
   XY=              1.1513   XZ=             -0.4390   YZ=             -0.2290

 Normal termination of Gaussian 09 at Wed Aug 26 11:37:37 2020.
