 Gaussian 09, Revision D.01,
 Gaussian 09:  ES64L-G09RevD.01 24-Apr-2013

 --------------------
 #p B2PLYPD3/Def2QZVP
 --------------------

 --------
 acrolein
 --------
 Symbolic Z-matrix:
 Charge =  0 Multiplicity = 1

                         Standard orientation:
 ---------------------------------------------------------------------
 Center     Atomic      Atomic             Coordinates (Angstroms)
 Number     Number       Type             X           Y           Z
 ---------------------------------------------------------------------
      1          6           0       -0.712689    0.409938    0.023140
      2          8           0       -1.757524   -0.168309   -0.067225
      3          6           0        0.530136   -0.414462    0.041400
      4          6           0        1.781781    0.116150   -0.038379
      5          1           0        0.439900   -1.494171    0.230905
      6          1           0        1.919643    1.172615   -0.189308
      7          1           0        2.718593   -0.455707   -0.029334
      8          1           0       -0.613309    1.453982    0.368571
 ---------------------------------------------------------------------

 SCF Done:  E(RB2PLYPD3) =  -191.606880960     A.U. after   13 cycles
 E2(B2PLYPD3) =    -0.2475152995D+00 E(B2PLYPD3) =    -0.19185439625916D+03

 The electronic state is 1-A.
 Alpha  occ. eigenvalues --  -19.73086 -10.71926 -10.65268 -10.64708  -1.20738
 Alpha  occ. eigenvalues --   -0.91268  -0.74961  -0.66820  -0.56869  -0.55764
 Alpha  occ. eigenvalues --   -0.51168  -0.47277  -0.45468  -0.34131  -0.33631
 Alpha virt. eigenvalues --   -0.01625   0.05867   0.06473   0.07991   0.09588
 Alpha virt. eigenvalues --    0.12365   0.14202   0.15310   0.17922   0.18666
 Alpha virt. eigenvalues --    0.20252   0.21424   0.24700   0.27303   0.28703

 Mulliken charges:
               1
     1  C    0.164556
     2  O   -0.329835
     3  C   -0.074419
     4  C   -0.136095
     5  H    0.111625
     6  H    0.075507
     7  H    0.098280
     8  H    0.090380
 Sum of Mulliken charges =   0.00000

 Dipole moment (field-independent basis, Debye):
    X=              3.0878    Y=              0.9984    Z=              0.3216  Tot=              3.2611
 Quadrupole moment (field-independent basis, Debye-Ang):
   XX=            -27.1017   YY=            -21.7951   ZZ=            -25.2536
   XY=             -1.2894   XZ=             -0.6168   YZ=             -0.3366

 Normal termination of Gaussian 09 at Wed Aug 26 14:56:21 2020.
