 Gaussian 09, Revision D.01,
 Gaussian 09:  ES64L-G09RevD.01 24-Apr-2013

 --------------------
 #p B2PLYPD3/Def2QZVP
 --------------------

 --------
 acrolein
 --------
 Symbolic Z-matrix:
 Charge =  0 Multiplicity = 1

                         Standard orientation:
 ---------------------------------------------------------------------
 Center     Atomic      Atomic             Coordinates (Angstroms)
 Number     Number       Type             X           Y           Z
 ---------------------------------------------------------------------
      1          6           0       -0.674973    0.351448    0.037298
      2          8           0       -1.766024   -0.126298   -0.044525
      3          6           0        0.544167   -0.417103   -0.017593
      4          6           0        1.761754    0.127344   -0.008731
      5          1           0        0.278235   -1.558949    0.212376
      6          1           0        1.766477    1.142231   -0.157374
      7          1           0        2.776009   -0.437530    0.000980
      8          1           0       -0.478215    1.494500    0.234375
 ---------------------------------------------------------------------

 SCF Done:  E(RB2PLYPD3) =  -191.593957650     A.U. after   13 cycles
 E2(B2PLYPD3) =    -0.2482448928D+00 E(B2PLYPD3) =    -0.19184220254233D+03

 The electronic state is 1-A.
 Alpha  occ. eigenvalues --  -19.73197 -10.71966 -10.65911 -10.65192  -1.20910
 Alpha  occ. eigenvalues --   -0.93158  -0.75672  -0.65147  -0.56683  -0.55899
 Alpha  occ. eigenvalues --   -0.50938  -0.47788  -0.44696  -0.34918  -0.33785
 Alpha virt. eigenvalues --   -0.01974   0.05730   0.06362   0.08344   0.09818
 Alpha virt. eigenvalues --    0.12375   0.13572   0.14805   0.16959   0.19354
 Alpha virt. eigenvalues --    0.20348   0.21498   0.24469   0.27007   0.29089

 Mulliken charges:
               1
     1  C    0.158514
     2  O   -0.332695
     3  C   -0.026831
     4  C   -0.129371
     5  H    0.090634
     6  H    0.086442
     7  H    0.108378
     8  H    0.044929
 Sum of Mulliken charges =   0.00000

 Dipole moment (field-independent basis, Debye):
    X=              3.3575    Y=              0.7282    Z=              0.2388  Tot=              3.4438
 Quadrupole moment (field-independent basis, Debye-Ang):
   XX=            -26.8769   YY=            -22.4099   ZZ=            -25.2575
   XY=             -0.7385   XZ=             -0.3606   YZ=             -0.4274

 Normal termination of Gaussian 09 at Wed Aug 26 10:46:49 2020.
