 Gaussian 09, Revision D.01,
 Gaussian 09:  ES64L-G09RevD.01 24-Apr-2013

 --------------------
 #p B2PLYPD3/Def2QZVP
 --------------------

 --------
 acrolein
 --------
 Symbolic Z-matrix:
 Charge =  0 Multiplicity = 1

                         Standard orientation:
 ---------------------------------------------------------------------
 Center     Atomic      Atomic             Coordinates (Angstroms)
 Number     Number       Type             X           Y           Z
 ---------------------------------------------------------------------
      1          6           0        0.658750    0.349717    0.001393
      2          8           0        1.783100   -0.126634   -0.025441
      3          6           0       -0.562143   -0.431476    0.052049
      4          6           0       -1.737604    0.137828   -0.036453
      5          1           0       -0.470067   -1.513412    0.054146
      6          1           0       -1.836055    1.229747    0.051276
      7          1           0       -2.649394   -0.450982   -0.086175
      8          1           0        0.536696    1.411304    0.082350
 ---------------------------------------------------------------------

 SCF Done:  E(RB2PLYPD3) =  -191.613898781     A.U. after   12 cycles
 E2(B2PLYPD3) =    -0.2469946201D+00 E(B2PLYPD3) =    -0.19186089340095D+03

 The electronic state is 1-A.
 Alpha  occ. eigenvalues --  -19.72617 -10.71145 -10.65367 -10.63933  -1.18784
 Alpha  occ. eigenvalues --   -0.93844  -0.75783  -0.67278  -0.56860  -0.56494
 Alpha  occ. eigenvalues --   -0.50446  -0.46886  -0.46125  -0.35035  -0.33898
 Alpha virt. eigenvalues --   -0.01761   0.05717   0.07028   0.08280   0.09741
 Alpha virt. eigenvalues --    0.12559   0.14064   0.15251   0.17578   0.19692
 Alpha virt. eigenvalues --    0.19932   0.21691   0.25366   0.26504   0.28685

 Mulliken charges:
               1
     1  C    0.154971
     2  O   -0.357056
     3  C   -0.035053
     4  C   -0.124249
     5  H    0.102743
     6  H    0.082224
     7  H    0.100201
     8  H    0.076218
 Sum of Mulliken charges =   0.00000

 Dipole moment (field-independent basis, Debye):
    X=             -3.5687    Y=              0.7919    Z=              0.1052  Tot=              3.6570
 Quadrupole moment (field-independent basis, Debye-Ang):
   XX=            -27.5704   YY=            -21.6932   ZZ=            -25.0851
   XY=              1.0953   XZ=              0.2438   YZ=              0.1088

 Normal termination of Gaussian 09 at Wed Aug 26 20:47:54 2020.
