 Gaussian 09, Revision D.01,
 Gaussian 09:  ES64L-G09RevD.01 24-Apr-2013

 --------------------
 #p B2PLYPD3/Def2QZVP
 --------------------

 --------
 acrolein
 --------
 Symbolic Z-matrix:
 Charge =  0 Multiplicity = 1

                         Standard orientation:
 ---------------------------------------------------------------------
 Center     Atomic      Atomic             Coordinates (Angstroms)
 Number     Number       Type             X           Y           Z
 ---------------------------------------------------------------------
      1          6           0        0.648318    0.290713   -0.082936
      2          8           0        1.797849   -0.080046    0.069660
      3          6           0       -0.549861   -0.482460   -0.067670
      4          6           0       -1.757476    0.174301    0.051872
      5          1           0       -0.466287   -1.564384   -0.052527
      6          1           0       -1.758385    1.258517   -0.029997
      7          1           0       -2.726203   -0.369853    0.152146
      8          1           0        0.522199    1.420763   -0.034498
 ---------------------------------------------------------------------

 SCF Done:  E(RB2PLYPD3) =  -191.606561231     A.U. after   13 cycles
 E2(B2PLYPD3) =    -0.2492725859D+00 E(B2PLYPD3) =    -0.19185583381696D+03

 The electronic state is 1-A.
 Alpha  occ. eigenvalues --  -19.72389 -10.71355 -10.67279 -10.65356  -1.18844
 Alpha  occ. eigenvalues --   -0.93022  -0.75793  -0.66517  -0.56301  -0.56017
 Alpha  occ. eigenvalues --   -0.49568  -0.47876  -0.46527  -0.34212  -0.33379
 Alpha virt. eigenvalues --   -0.02820   0.05631   0.06866   0.08184   0.09640
 Alpha virt. eigenvalues --    0.12490   0.13953   0.15175   0.17413   0.19777
 Alpha virt. eigenvalues --    0.20309   0.21013   0.24335   0.26430   0.29488

 Mulliken charges:
               1
     1  C    0.152083
     2  O   -0.351936
     3  C   -0.022590
     4  C   -0.126551
     5  H    0.103506
     6  H    0.096027
     7  H    0.106425
     8  H    0.043036
 Sum of Mulliken charges =   0.00000

 Dipole moment (field-independent basis, Debye):
    X=             -3.8002    Y=              0.5120    Z=             -0.1862  Tot=              3.8391
 Quadrupole moment (field-independent basis, Debye-Ang):
   XX=            -27.3278   YY=            -21.8913   ZZ=            -25.3706
   XY=              0.7495   XZ=             -0.6566   YZ=             -0.0427

 Normal termination of Gaussian 09 at Wed Aug 26 14:32:20 2020.
