 Gaussian 09, Revision D.01,
 Gaussian 09:  ES64L-G09RevD.01 24-Apr-2013

 --------------------
 #p B2PLYPD3/Def2QZVP
 --------------------

 --------
 acrolein
 --------
 Symbolic Z-matrix:
 Charge =  0 Multiplicity = 1

                         Standard orientation:
 ---------------------------------------------------------------------
 Center     Atomic      Atomic             Coordinates (Angstroms)
 Number     Number       Type             X           Y           Z
 ---------------------------------------------------------------------
      1          6           0       -0.679165    0.349498    0.019617
      2          8           0       -1.774540   -0.116771   -0.038370
      3          6           0        0.533673   -0.447767    0.021081
      4          6           0        1.765287    0.136543   -0.020265
      5          1           0        0.388239   -1.550731    0.102724
      6          1           0        1.850870    1.232012   -0.122757
      7          1           0        2.769990   -0.418079   -0.006559
      8          1           0       -0.531552    1.441318    0.210954
 ---------------------------------------------------------------------

 SCF Done:  E(RB2PLYPD3) =  -191.609439452     A.U. after   13 cycles
 E2(B2PLYPD3) =    -0.2476764048D+00 E(B2PLYPD3) =    -0.19185711585669D+03

 The electronic state is 1-A.
 Alpha  occ. eigenvalues --  -19.72705 -10.71270 -10.66888 -10.65054  -1.20712
 Alpha  occ. eigenvalues --   -0.92101  -0.75047  -0.66339  -0.56593  -0.55616
 Alpha  occ. eigenvalues --   -0.50553  -0.47338  -0.46048  -0.34243  -0.33740
 Alpha virt. eigenvalues --   -0.01985   0.05592   0.06941   0.08268   0.09650
 Alpha virt. eigenvalues --    0.12298   0.14101   0.15354   0.17435   0.19187
 Alpha virt. eigenvalues --    0.20162   0.21047   0.25011   0.26753   0.28890

 Mulliken charges:
               1
     1  C    0.158632
     2  O   -0.337725
     3  C   -0.046305
     4  C   -0.130201
     5  H    0.106502
     6  H    0.082791
     7  H    0.101182
     8  H    0.065124
 Sum of Mulliken charges =   0.00000

 Dipole moment (field-independent basis, Debye):
    X=              3.4054    Y=              0.7300    Z=              0.1535  Tot=              3.4862
 Quadrupole moment (field-independent basis, Debye-Ang):
   XX=            -27.0796   YY=            -21.9382   ZZ=            -25.3666
   XY=             -0.8075   XZ=             -0.3641   YZ=             -0.2163

 Normal termination of Gaussian 09 at Wed Aug 26 20:42:20 2020.
