 Gaussian 09, Revision D.01,
 Gaussian 09:  ES64L-G09RevD.01 24-Apr-2013

 --------------------
 #p B2PLYPD3/Def2QZVP
 --------------------

 --------
 acrolein
 --------
 Symbolic Z-matrix:
 Charge =  0 Multiplicity = 1

                         Standard orientation:
 ---------------------------------------------------------------------
 Center     Atomic      Atomic             Coordinates (Angstroms)
 Number     Number       Type             X           Y           Z
 ---------------------------------------------------------------------
      1          6           0       -0.674347    0.355614   -0.010223
      2          8           0       -1.782473   -0.130146    0.011642
      3          6           0        0.560007   -0.440391   -0.027215
      4          6           0        1.748905    0.135067    0.003111
      5          1           0        0.460401   -1.498304    0.039154
      6          1           0        1.810195    1.227597    0.026657
      7          1           0        2.694299   -0.426987    0.044050
      8          1           0       -0.512502    1.437127    0.002958
 ---------------------------------------------------------------------

 SCF Done:  E(RB2PLYPD3) =  -191.616290567     A.U. after   12 cycles
 E2(B2PLYPD3) =    -0.2468202654D+00 E(B2PLYPD3) =    -0.19186311083281D+03

 The electronic state is 1-A.
 Alpha  occ. eigenvalues --  -19.72855 -10.71507 -10.65491 -10.63892  -1.19602
 Alpha  occ. eigenvalues --   -0.93235  -0.75271  -0.67306  -0.56541  -0.56432
 Alpha  occ. eigenvalues --   -0.50756  -0.46947  -0.46476  -0.34848  -0.33944
 Alpha virt. eigenvalues --   -0.01586   0.05721   0.07220   0.08222   0.09757
 Alpha virt. eigenvalues --    0.12515   0.13966   0.15357   0.17713   0.19714
 Alpha virt. eigenvalues --    0.19913   0.21433   0.25586   0.26504   0.28906

 Mulliken charges:
               1
     1  C    0.153900
     2  O   -0.348061
     3  C   -0.038146
     4  C   -0.128666
     5  H    0.106009
     6  H    0.078654
     7  H    0.101816
     8  H    0.074495
 Sum of Mulliken charges =   0.00000

 Dipole moment (field-independent basis, Debye):
    X=              3.4441    Y=              0.7919    Z=              0.0615  Tot=              3.5345
 Quadrupole moment (field-independent basis, Debye-Ang):
   XX=            -27.4092   YY=            -21.7897   ZZ=            -25.1614
   XY=             -1.0753   XZ=              0.2366   YZ=             -0.0613

 Normal termination of Gaussian 09 at Wed Aug 26 15:34:46 2020.
