 Gaussian 09, Revision D.01,
 Gaussian 09:  ES64L-G09RevD.01 24-Apr-2013

 --------------------
 #p B2PLYPD3/Def2QZVP
 --------------------

 --------
 acrolein
 --------
 Symbolic Z-matrix:
 Charge =  0 Multiplicity = 1

                         Standard orientation:
 ---------------------------------------------------------------------
 Center     Atomic      Atomic             Coordinates (Angstroms)
 Number     Number       Type             X           Y           Z
 ---------------------------------------------------------------------
      1          6           0        0.687617    0.376770   -0.008328
      2          8           0        1.765420   -0.150457    0.048305
      3          6           0       -0.524407   -0.393812   -0.082456
      4          6           0       -1.770551    0.100822    0.013721
      5          1           0       -0.374486   -1.431845   -0.074420
      6          1           0       -1.832578    1.223109    0.035338
      7          1           0       -2.821946   -0.476817    0.233680
      8          1           0        0.549692    1.386525   -0.118658
 ---------------------------------------------------------------------

 SCF Done:  E(RB2PLYPD3) =  -191.593656217     A.U. after   13 cycles
 E2(B2PLYPD3) =    -0.2475471315D+00 E(B2PLYPD3) =    -0.19184120334808D+03

 The electronic state is 1-A.
 Alpha  occ. eigenvalues --  -19.72732 -10.70541 -10.67388 -10.63655  -1.20253
 Alpha  occ. eigenvalues --   -0.92710  -0.75639  -0.68186  -0.56805  -0.55435
 Alpha  occ. eigenvalues --   -0.50785  -0.47340  -0.44987  -0.34514  -0.34028
 Alpha virt. eigenvalues --   -0.02137   0.05154   0.07385   0.08414   0.09683
 Alpha virt. eigenvalues --    0.11900   0.14034   0.15398   0.18121   0.19067
 Alpha virt. eigenvalues --    0.19604   0.20879   0.25358   0.26755   0.28782

 Mulliken charges:
               1
     1  C    0.161565
     2  O   -0.349848
     3  C   -0.044519
     4  C   -0.128635
     5  H    0.108910
     6  H    0.066840
     7  H    0.104092
     8  H    0.081595
 Sum of Mulliken charges =   0.00000

 Dipole moment (field-independent basis, Debye):
    X=             -3.3654    Y=              0.9230    Z=              0.0169  Tot=              3.4897
 Quadrupole moment (field-independent basis, Debye-Ang):
   XX=            -26.9934   YY=            -22.0660   ZZ=            -25.1831
   XY=              1.2879   XZ=             -0.9061   YZ=             -0.0932

 Normal termination of Gaussian 09 at Wed Aug 26 14:11:17 2020.
