 Gaussian 09, Revision D.01,
 Gaussian 09:  ES64L-G09RevD.01 24-Apr-2013

 --------------------
 #p B2PLYPD3/Def2QZVP
 --------------------

 --------
 acrolein
 --------
 Symbolic Z-matrix:
 Charge =  0 Multiplicity = 1

                         Standard orientation:
 ---------------------------------------------------------------------
 Center     Atomic      Atomic             Coordinates (Angstroms)
 Number     Number       Type             X           Y           Z
 ---------------------------------------------------------------------
      1          6           0       -0.676085    0.347333    0.017680
      2          8           0       -1.793175   -0.109478   -0.015923
      3          6           0        0.562601   -0.468641    0.008236
      4          6           0        1.766217    0.147456   -0.016125
      5          1           0        0.437590   -1.566512    0.014171
      6          1           0        1.879876    1.269432   -0.051816
      7          1           0        2.620942   -0.423454    0.042078
      8          1           0       -0.509403    1.439472    0.064208
 ---------------------------------------------------------------------

 SCF Done:  E(RB2PLYPD3) =  -191.612257313     A.U. after   13 cycles
 E2(B2PLYPD3) =    -0.2475364328D+00 E(B2PLYPD3) =    -0.19185979374549D+03

 The electronic state is 1-A.
 Alpha  occ. eigenvalues --  -19.72787 -10.71567 -10.65649 -10.65025  -1.19667
 Alpha  occ. eigenvalues --   -0.92380  -0.75478  -0.66548  -0.56590  -0.55981
 Alpha  occ. eigenvalues --   -0.50567  -0.47107  -0.46719  -0.34376  -0.33730
 Alpha virt. eigenvalues --   -0.01804   0.05732   0.07100   0.08046   0.09666
 Alpha virt. eigenvalues --    0.12511   0.14016   0.15402   0.17326   0.19418
 Alpha virt. eigenvalues --    0.20036   0.21872   0.25199   0.26513   0.28527

 Mulliken charges:
               1
     1  C    0.160256
     2  O   -0.345789
     3  C   -0.048896
     4  C   -0.132923
     5  H    0.104114
     6  H    0.086768
     7  H    0.105822
     8  H    0.070649
 Sum of Mulliken charges =   0.00000

 Dipole moment (field-independent basis, Debye):
    X=              3.4690    Y=              0.7203    Z=              0.0826  Tot=              3.5440
 Quadrupole moment (field-independent basis, Debye-Ang):
   XX=            -27.5759   YY=            -21.5728   ZZ=            -25.3247
   XY=             -0.7829   XZ=             -0.0514   YZ=             -0.0827

 Normal termination of Gaussian 09 at Wed Aug 26 18:48:28 2020.
