 Gaussian 09, Revision D.01,
 Gaussian 09:  ES64L-G09RevD.01 24-Apr-2013

 --------------------
 #p B2PLYPD3/Def2QZVP
 --------------------

 --------
 acrolein
 --------
 Symbolic Z-matrix:
 Charge =  0 Multiplicity = 1

                         Standard orientation:
 ---------------------------------------------------------------------
 Center     Atomic      Atomic             Coordinates (Angstroms)
 Number     Number       Type             X           Y           Z
 ---------------------------------------------------------------------
      1          6           0       -0.669096    0.345081   -0.011562
      2          8           0       -1.791806   -0.114791    0.015277
      3          6           0        0.560441   -0.448667   -0.015505
      4          6           0        1.757956    0.144962    0.004824
      5          1           0        0.451424   -1.523732    0.003146
      6          1           0        1.833252    1.241611    0.072382
      7          1           0        2.665984   -0.434619    0.002141
      8          1           0       -0.512017    1.386817   -0.066421
 ---------------------------------------------------------------------

 SCF Done:  E(RB2PLYPD3) =  -191.615294431     A.U. after   12 cycles
 E2(B2PLYPD3) =    -0.2470012575D+00 E(B2PLYPD3) =    -0.19186229568839D+03

 The electronic state is 1-A.
 Alpha  occ. eigenvalues --  -19.72664 -10.70972 -10.65725 -10.64328  -1.19239
 Alpha  occ. eigenvalues --   -0.93062  -0.75803  -0.67560  -0.56640  -0.56411
 Alpha  occ. eigenvalues --   -0.50596  -0.46977  -0.46603  -0.34610  -0.33911
 Alpha virt. eigenvalues --   -0.01879   0.05707   0.07242   0.08217   0.09712
 Alpha virt. eigenvalues --    0.12625   0.14000   0.15363   0.17640   0.19476
 Alpha virt. eigenvalues --    0.20085   0.21617   0.25420   0.26639   0.28777

 Mulliken charges:
               1
     1  C    0.155338
     2  O   -0.353820
     3  C   -0.038246
     4  C   -0.133393
     5  H    0.104008
     6  H    0.084330
     7  H    0.104358
     8  H    0.077424
 Sum of Mulliken charges =   0.00000

 Dipole moment (field-independent basis, Debye):
    X=              3.5375    Y=              0.7721    Z=             -0.0049  Tot=              3.6208
 Quadrupole moment (field-independent basis, Debye-Ang):
   XX=            -27.5506   YY=            -21.6704   ZZ=            -25.1784
   XY=             -0.9547   XZ=              0.2068   YZ=              0.0515

 Normal termination of Gaussian 09 at Wed Aug 26 18:39:58 2020.
