 Gaussian 09, Revision D.01,
 Gaussian 09:  ES64L-G09RevD.01 24-Apr-2013

 --------------------
 #p B2PLYPD3/Def2QZVP
 --------------------

 --------
 acrolein
 --------
 Symbolic Z-matrix:
 Charge =  0 Multiplicity = 1

                         Standard orientation:
 ---------------------------------------------------------------------
 Center     Atomic      Atomic             Coordinates (Angstroms)
 Number     Number       Type             X           Y           Z
 ---------------------------------------------------------------------
      1          6           0        0.670450    0.344803    0.010731
      2          8           0        1.802380   -0.112387   -0.019297
      3          6           0       -0.573148   -0.470719    0.020855
      4          6           0       -1.750066    0.153984   -0.012873
      5          1           0       -0.475836   -1.530265    0.033000
      6          1           0       -1.848514    1.263150   -0.032800
      7          1           0       -2.658826   -0.432788   -0.033939
      8          1           0        0.480713    1.430595    0.075832
 ---------------------------------------------------------------------

 SCF Done:  E(RB2PLYPD3) =  -191.614908720     A.U. after   12 cycles
 E2(B2PLYPD3) =    -0.2478092409D+00 E(B2PLYPD3) =    -0.19186271796069D+03

 The electronic state is 1-A.
 Alpha  occ. eigenvalues --  -19.72907 -10.71844 -10.65775 -10.64438  -1.18858
 Alpha  occ. eigenvalues --   -0.92966  -0.75093  -0.67150  -0.56326  -0.56028
 Alpha  occ. eigenvalues --   -0.50478  -0.47152  -0.46325  -0.34736  -0.33806
 Alpha virt. eigenvalues --   -0.01708   0.05667   0.07125   0.07877   0.09666
 Alpha virt. eigenvalues --    0.12571   0.13871   0.15316   0.17601   0.19488
 Alpha virt. eigenvalues --    0.20032   0.21495   0.25284   0.26592   0.28529

 Mulliken charges:
               1
     1  C    0.157505
     2  O   -0.352907
     3  C   -0.044105
     4  C   -0.129286
     5  H    0.108070
     6  H    0.086915
     7  H    0.099674
     8  H    0.074134
 Sum of Mulliken charges =   0.00000

 Dipole moment (field-independent basis, Debye):
    X=             -3.5409    Y=              0.7284    Z=              0.0545  Tot=              3.6154
 Quadrupole moment (field-independent basis, Debye-Ang):
   XX=            -27.7495   YY=            -21.5870   ZZ=            -25.2789
   XY=              0.8297   XZ=              0.2188   YZ=             -0.0280

 Normal termination of Gaussian 09 at Wed Aug 26 18:42:07 2020.
