 Gaussian 09, Revision D.01,
 Gaussian 09:  ES64L-G09RevD.01 24-Apr-2013

 --------------------
 #p B2PLYPD3/Def2QZVP
 --------------------

 --------
 acrolein
 --------
 Symbolic Z-matrix:
 Charge =  0 Multiplicity = 1

                         Standard orientation:
 ---------------------------------------------------------------------
 Center     Atomic      Atomic             Coordinates (Angstroms)
 Number     Number       Type             X           Y           Z
 ---------------------------------------------------------------------
      1          6           0       -0.659708    0.351278   -0.092466
      2          8           0       -1.811171   -0.141027    0.059811
      3          6           0        0.563110   -0.443825   -0.012350
      4          6           0        1.765963    0.148498    0.020166
      5          1           0        0.463037   -1.443946   -0.076603
      6          1           0        1.682531    1.126787    0.214558
      7          1           0        2.777849   -0.450577   -0.014164
      8          1           0       -0.450239    1.560246   -0.094373
 ---------------------------------------------------------------------

 SCF Done:  E(RB2PLYPD3) =  -191.580785445     A.U. after   13 cycles
 E2(B2PLYPD3) =    -0.2515881335D+00 E(B2PLYPD3) =    -0.19183237357832D+03

 The electronic state is 1-A.
 Alpha  occ. eigenvalues --  -19.73499 -10.73630 -10.65979 -10.64056  -1.16970
 Alpha  occ. eigenvalues --   -0.93925  -0.75500  -0.67491  -0.56178  -0.55057
 Alpha  occ. eigenvalues --   -0.49549  -0.47984  -0.45580  -0.34605  -0.33980
 Alpha virt. eigenvalues --   -0.03006   0.05480   0.06707   0.07341   0.09841
 Alpha virt. eigenvalues --    0.12110   0.13342   0.15083   0.17162   0.19629
 Alpha virt. eigenvalues --    0.20677   0.21012   0.24664   0.25953   0.29412

 Mulliken charges:
               1
     1  C    0.162827
     2  O   -0.364363
     3  C   -0.022022
     4  C   -0.132211
     5  H    0.108012
     6  H    0.091851
     7  H    0.106934
     8  H    0.048971
 Sum of Mulliken charges =   0.00000

 Dipole moment (field-independent basis, Debye):
    X=              3.7121    Y=              0.6677    Z=             -0.1637  Tot=              3.7752
 Quadrupole moment (field-independent basis, Debye-Ang):
   XX=            -27.5959   YY=            -22.0542   ZZ=            -25.3307
   XY=             -1.2772   XZ=              0.4529   YZ=              0.3371

 Normal termination of Gaussian 09 at Wed Aug 26 12:23:03 2020.
