 Gaussian 09, Revision D.01,
 Gaussian 09:  ES64L-G09RevD.01 24-Apr-2013

 --------------------
 #p B2PLYPD3/Def2QZVP
 --------------------

 --------
 acrolein
 --------
 Symbolic Z-matrix:
 Charge =  0 Multiplicity = 1

                         Standard orientation:
 ---------------------------------------------------------------------
 Center     Atomic      Atomic             Coordinates (Angstroms)
 Number     Number       Type             X           Y           Z
 ---------------------------------------------------------------------
      1          6           0       -0.662295    0.348595   -0.031121
      2          8           0       -1.794023   -0.125096    0.024633
      3          6           0        0.561273   -0.440963   -0.025372
      4          6           0        1.759063    0.130233    0.005605
      5          1           0        0.426341   -1.510228   -0.001740
      6          1           0        1.819726    1.226035    0.036068
      7          1           0        2.657725   -0.430118    0.072279
      8          1           0       -0.499847    1.487889    0.001663
 ---------------------------------------------------------------------

 SCF Done:  E(RB2PLYPD3) =  -191.613699131     A.U. after   12 cycles
 E2(B2PLYPD3) =    -0.2482936305D+00 E(B2PLYPD3) =    -0.19186199276123D+03

 The electronic state is 1-A.
 Alpha  occ. eigenvalues --  -19.72977 -10.72175 -10.65553 -10.64371  -1.18569
 Alpha  occ. eigenvalues --   -0.93454  -0.75802  -0.66466  -0.56921  -0.55954
 Alpha  occ. eigenvalues --   -0.50432  -0.46847  -0.46398  -0.34846  -0.33908
 Alpha virt. eigenvalues --   -0.02137   0.05708   0.07027   0.08169   0.09795
 Alpha virt. eigenvalues --    0.12477   0.13815   0.15308   0.17330   0.19742
 Alpha virt. eigenvalues --    0.19915   0.21702   0.25420   0.26413   0.28931

 Mulliken charges:
               1
     1  C    0.160860
     2  O   -0.356136
     3  C   -0.032715
     4  C   -0.126078
     5  H    0.104595
     6  H    0.082832
     7  H    0.106820
     8  H    0.059823
 Sum of Mulliken charges =   0.00000

 Dipole moment (field-independent basis, Debye):
    X=              3.6041    Y=              0.7082    Z=              0.0047  Tot=              3.6730
 Quadrupole moment (field-independent basis, Debye-Ang):
   XX=            -27.4719   YY=            -21.8417   ZZ=            -25.2398
   XY=             -0.9670   XZ=              0.3523   YZ=             -0.0007

 Normal termination of Gaussian 09 at Wed Aug 26 15:43:39 2020.
