 Gaussian 09, Revision D.01,
 Gaussian 09:  ES64L-G09RevD.01 24-Apr-2013

 --------------------
 #p B2PLYPD3/Def2QZVP
 --------------------

 --------
 acrolein
 --------
 Symbolic Z-matrix:
 Charge =  0 Multiplicity = 1

                         Standard orientation:
 ---------------------------------------------------------------------
 Center     Atomic      Atomic             Coordinates (Angstroms)
 Number     Number       Type             X           Y           Z
 ---------------------------------------------------------------------
      1          6           0        0.657370    0.345447    0.053926
      2          8           0        1.807504   -0.103357   -0.038501
      3          6           0       -0.580777   -0.460922    0.033291
      4          6           0       -1.761578    0.148912   -0.030737
      5          1           0       -0.390387   -1.572651    0.020970
      6          1           0       -1.848614    1.214537   -0.013678
      7          1           0       -2.614794   -0.396115   -0.044022
      8          1           0        0.503666    1.380464    0.005851
 ---------------------------------------------------------------------

 SCF Done:  E(RB2PLYPD3) =  -191.606883408     A.U. after   13 cycles
 E2(B2PLYPD3) =    -0.2480255755D+00 E(B2PLYPD3) =    -0.19185490898361D+03

 The electronic state is 1-A.
 Alpha  occ. eigenvalues --  -19.72771 -10.71257 -10.65125 -10.64795  -1.17790
 Alpha  occ. eigenvalues --   -0.93376  -0.76555  -0.67433  -0.57019  -0.56615
 Alpha  occ. eigenvalues --   -0.50448  -0.47043  -0.45805  -0.34787  -0.33864
 Alpha virt. eigenvalues --   -0.02124   0.05783   0.07207   0.07794   0.09722
 Alpha virt. eigenvalues --    0.12764   0.14058   0.15264   0.17206   0.19824
 Alpha virt. eigenvalues --    0.20031   0.22115   0.25083   0.26873   0.28682

 Mulliken charges:
               1
     1  C    0.160514
     2  O   -0.367272
     3  C   -0.037748
     4  C   -0.131170
     5  H    0.102263
     6  H    0.088009
     7  H    0.105794
     8  H    0.079609
 Sum of Mulliken charges =   0.00000

 Dipole moment (field-independent basis, Debye):
    X=             -3.6593    Y=              0.7916    Z=              0.1180  Tot=              3.7458
 Quadrupole moment (field-independent basis, Debye-Ang):
   XX=            -27.7454   YY=            -21.5711   ZZ=            -25.1730
   XY=              0.6740   XZ=              0.2969   YZ=              0.0001

 Normal termination of Gaussian 09 at Wed Aug 26 10:12:09 2020.
