 Gaussian 09, Revision D.01,
 Gaussian 09:  ES64L-G09RevD.01 24-Apr-2013

 --------------------
 #p B2PLYPD3/Def2QZVP
 --------------------

 --------
 acrolein
 --------
 Symbolic Z-matrix:
 Charge =  0 Multiplicity = 1

                         Standard orientation:
 ---------------------------------------------------------------------
 Center     Atomic      Atomic             Coordinates (Angstroms)
 Number     Number       Type             X           Y           Z
 ---------------------------------------------------------------------
      1          6           0       -0.671621    0.357206   -0.007094
      2          8           0       -1.779439   -0.130312    0.010860
      3          6           0        0.558268   -0.435640   -0.007303
      4          6           0        1.751042    0.134812    0.002029
      5          1           0        0.461531   -1.524291   -0.046396
      6          1           0        1.820746    1.224440   -0.011678
      7          1           0        2.643317   -0.436873    0.061801
      8          1           0       -0.516220    1.440954   -0.016399
 ---------------------------------------------------------------------

 SCF Done:  E(RB2PLYPD3) =  -191.616655212     A.U. after   12 cycles
 E2(B2PLYPD3) =    -0.2467687815D+00 E(B2PLYPD3) =    -0.19186342399307D+03

 The electronic state is 1-A.
 Alpha  occ. eigenvalues --  -19.72800 -10.71448 -10.65072 -10.64121  -1.19551
 Alpha  occ. eigenvalues --   -0.93279  -0.75644  -0.66952  -0.56744  -0.56550
 Alpha  occ. eigenvalues --   -0.50737  -0.46985  -0.46470  -0.34799  -0.33936
 Alpha virt. eigenvalues --   -0.01638   0.05800   0.07116   0.08298   0.09781
 Alpha virt. eigenvalues --    0.12576   0.14032   0.15360   0.17479   0.19723
 Alpha virt. eigenvalues --    0.19915   0.21778   0.25714   0.26449   0.28836

 Mulliken charges:
               1
     1  C    0.154202
     2  O   -0.348138
     3  C   -0.035519
     4  C   -0.131825
     5  H    0.101363
     6  H    0.080509
     7  H    0.105363
     8  H    0.074045
 Sum of Mulliken charges =   0.00000

 Dipole moment (field-independent basis, Debye):
    X=              3.4539    Y=              0.7919    Z=             -0.0351  Tot=              3.5437
 Quadrupole moment (field-independent basis, Debye-Ang):
   XX=            -27.4647   YY=            -21.7156   ZZ=            -25.1476
   XY=             -1.0948   XZ=              0.1640   YZ=              0.0060

 Normal termination of Gaussian 09 at Wed Aug 26 08:49:36 2020.
