 Gaussian 09, Revision D.01,
 Gaussian 09:  ES64L-G09RevD.01 24-Apr-2013

 --------------------
 #p B2PLYPD3/Def2QZVP
 --------------------

 --------
 acrolein
 --------
 Symbolic Z-matrix:
 Charge =  0 Multiplicity = 1

                         Standard orientation:
 ---------------------------------------------------------------------
 Center     Atomic      Atomic             Coordinates (Angstroms)
 Number     Number       Type             X           Y           Z
 ---------------------------------------------------------------------
      1          6           0       -0.669252    0.355280   -0.023189
      2          8           0       -1.791042   -0.128496    0.023935
      3          6           0        0.551387   -0.441054   -0.025901
      4          6           0        1.759269    0.134962    0.021392
      5          1           0        0.436185   -1.499122   -0.050210
      6          1           0        1.854286    1.214788   -0.032498
      7          1           0        2.706146   -0.450862    0.068739
      8          1           0       -0.516701    1.468036   -0.011327
 ---------------------------------------------------------------------

 SCF Done:  E(RB2PLYPD3) =  -191.614593979     A.U. after   13 cycles
 E2(B2PLYPD3) =    -0.2480709990D+00 E(B2PLYPD3) =    -0.19186266497799D+03

 The electronic state is 1-A.
 Alpha  occ. eigenvalues --  -19.72834 -10.71839 -10.66062 -10.64346  -1.18844
 Alpha  occ. eigenvalues --   -0.93026  -0.75445  -0.67021  -0.56409  -0.56150
 Alpha  occ. eigenvalues --   -0.50272  -0.47009  -0.46391  -0.34556  -0.33934
 Alpha virt. eigenvalues --   -0.02098   0.05621   0.07122   0.08111   0.09736
 Alpha virt. eigenvalues --    0.12378   0.13869   0.15338   0.17601   0.19735
 Alpha virt. eigenvalues --    0.19988   0.21382   0.25339   0.26369   0.28850

 Mulliken charges:
               1
     1  C    0.155758
     2  O   -0.354841
     3  C   -0.036599
     4  C   -0.129907
     5  H    0.109028
     6  H    0.085613
     7  H    0.101077
     8  H    0.069870
 Sum of Mulliken charges =   0.00000

 Dipole moment (field-independent basis, Debye):
    X=              3.5705    Y=              0.7733    Z=             -0.0955  Tot=              3.6546
 Quadrupole moment (field-independent basis, Debye-Ang):
   XX=            -27.4302   YY=            -21.7750   ZZ=            -25.2766
   XY=             -0.9796   XZ=              0.2051   YZ=             -0.0259

 Normal termination of Gaussian 09 at Wed Aug 26 15:08:17 2020.
