 Gaussian 09, Revision D.01,
 Gaussian 09:  ES64L-G09RevD.01 24-Apr-2013

 --------------------
 #p B2PLYPD3/Def2QZVP
 --------------------

 --------
 acrolein
 --------
 Symbolic Z-matrix:
 Charge =  0 Multiplicity = 1

                         Standard orientation:
 ---------------------------------------------------------------------
 Center     Atomic      Atomic             Coordinates (Angstroms)
 Number     Number       Type             X           Y           Z
 ---------------------------------------------------------------------
      1          6           0       -0.674507    0.360915   -0.004136
      2          8           0       -1.789372   -0.125033    0.005138
      3          6           0        0.566289   -0.449806   -0.020821
      4          6           0        1.763983    0.136541   -0.000243
      5          1           0        0.422831   -1.545665    0.041404
      6          1           0        1.836490    1.231268    0.008824
      7          1           0        2.635055   -0.420732    0.040389
      8          1           0       -0.513991    1.449490    0.019474
 ---------------------------------------------------------------------

 SCF Done:  E(RB2PLYPD3) =  -191.614628636     A.U. after   12 cycles
 E2(B2PLYPD3) =    -0.2473975014D+00 E(B2PLYPD3) =    -0.19186202613779D+03

 The electronic state is 1-A.
 Alpha  occ. eigenvalues --  -19.72904 -10.71731 -10.65078 -10.64668  -1.19229
 Alpha  occ. eigenvalues --   -0.92833  -0.75628  -0.66755  -0.56838  -0.56184
 Alpha  occ. eigenvalues --   -0.50758  -0.46853  -0.46463  -0.34632  -0.33902
 Alpha virt. eigenvalues --   -0.01733   0.05792   0.07140   0.08022   0.09759
 Alpha virt. eigenvalues --    0.12558   0.13983   0.15352   0.17314   0.19692
 Alpha virt. eigenvalues --    0.19963   0.21914   0.25369   0.26556   0.28770

 Mulliken charges:
               1
     1  C    0.159256
     2  O   -0.350583
     3  C   -0.043421
     4  C   -0.132178
     5  H    0.103114
     6  H    0.082498
     7  H    0.106670
     8  H    0.074644
 Sum of Mulliken charges =   0.00000

 Dipole moment (field-independent basis, Debye):
    X=              3.4574    Y=              0.7980    Z=              0.0730  Tot=              3.5490
 Quadrupole moment (field-independent basis, Debye-Ang):
   XX=            -27.5466   YY=            -21.6528   ZZ=            -25.2406
   XY=             -0.9534   XZ=              0.1681   YZ=             -0.0761

 Normal termination of Gaussian 09 at Wed Aug 26 16:22:51 2020.
