 Gaussian 09, Revision D.01,
 Gaussian 09:  ES64L-G09RevD.01 24-Apr-2013

 --------------------
 #p B2PLYPD3/Def2QZVP
 --------------------

 --------
 acrolein
 --------
 Symbolic Z-matrix:
 Charge =  0 Multiplicity = 1

                         Standard orientation:
 ---------------------------------------------------------------------
 Center     Atomic      Atomic             Coordinates (Angstroms)
 Number     Number       Type             X           Y           Z
 ---------------------------------------------------------------------
      1          6           0        0.675974    0.347566   -0.013112
      2          8           0        1.778046   -0.124309    0.015050
      3          6           0       -0.544164   -0.447159   -0.020026
      4          6           0       -1.753756    0.138161    0.000892
      5          1           0       -0.470535   -1.501149   -0.002813
      6          1           0       -1.848753    1.242481    0.021077
      7          1           0       -2.695800   -0.437922    0.064596
      8          1           0        0.522399    1.459660   -0.009783
 ---------------------------------------------------------------------

 SCF Done:  E(RB2PLYPD3) =  -191.615303527     A.U. after   13 cycles
 E2(B2PLYPD3) =    -0.2469892136D+00 E(B2PLYPD3) =    -0.19186229274029D+03

 The electronic state is 1-A.
 Alpha  occ. eigenvalues --  -19.72720 -10.71473 -10.66106 -10.64142  -1.20227
 Alpha  occ. eigenvalues --   -0.92793  -0.75145  -0.66974  -0.56536  -0.56273
 Alpha  occ. eigenvalues --   -0.50467  -0.47220  -0.46806  -0.34500  -0.33823
 Alpha virt. eigenvalues --   -0.01772   0.05678   0.07172   0.08373   0.09702
 Alpha virt. eigenvalues --    0.12424   0.14008   0.15400   0.17741   0.19648
 Alpha virt. eigenvalues --    0.19902   0.21331   0.25516   0.26281   0.28810

 Mulliken charges:
               1
     1  C    0.154174
     2  O   -0.341439
     3  C   -0.039996
     4  C   -0.129172
     5  H    0.107852
     6  H    0.081877
     7  H    0.100287
     8  H    0.066417
 Sum of Mulliken charges =   0.00000

 Dipole moment (field-independent basis, Debye):
    X=             -3.4493    Y=              0.7213    Z=              0.0215  Tot=              3.5240
 Quadrupole moment (field-independent basis, Debye-Ang):
   XX=            -27.2780   YY=            -21.8045   ZZ=            -25.2467
   XY=              1.0067   XZ=             -0.2715   YZ=             -0.0181

 Normal termination of Gaussian 09 at Wed Aug 26 19:16:51 2020.
