 Gaussian 09, Revision D.01,
 Gaussian 09:  ES64L-G09RevD.01 24-Apr-2013

 --------------------
 #p B2PLYPD3/Def2QZVP
 --------------------

 --------
 acrolein
 --------
 Symbolic Z-matrix:
 Charge =  0 Multiplicity = 1

                         Standard orientation:
 ---------------------------------------------------------------------
 Center     Atomic      Atomic             Coordinates (Angstroms)
 Number     Number       Type             X           Y           Z
 ---------------------------------------------------------------------
      1          6           0       -0.663830    0.355416    0.001260
      2          8           0       -1.778277   -0.128500   -0.009524
      3          6           0        0.555978   -0.433710   -0.009843
      4          6           0        1.754603    0.130618   -0.002582
      5          1           0        0.437257   -1.541031    0.070760
      6          1           0        1.838256    1.227802   -0.057358
      7          1           0        2.627566   -0.424296    0.023980
      8          1           0       -0.557367    1.451580    0.105799
 ---------------------------------------------------------------------

 SCF Done:  E(RB2PLYPD3) =  -191.613936715     A.U. after   12 cycles
 E2(B2PLYPD3) =    -0.2471086617D+00 E(B2PLYPD3) =    -0.19186104537619D+03

 The electronic state is 1-A.
 Alpha  occ. eigenvalues --  -19.72654 -10.71434 -10.65074 -10.64495  -1.19227
 Alpha  occ. eigenvalues --   -0.93314  -0.75947  -0.66528  -0.56989  -0.56557
 Alpha  occ. eigenvalues --   -0.50615  -0.46848  -0.46202  -0.34798  -0.33868
 Alpha virt. eigenvalues --   -0.01818   0.05819   0.06977   0.08279   0.09756
 Alpha virt. eigenvalues --    0.12515   0.14162   0.15288   0.17288   0.19516
 Alpha virt. eigenvalues --    0.20105   0.21934   0.25357   0.26587   0.28973

 Mulliken charges:
               1
     1  C    0.154516
     2  O   -0.350766
     3  C   -0.038449
     4  C   -0.127823
     5  H    0.101405
     6  H    0.081442
     7  H    0.107176
     8  H    0.072499
 Sum of Mulliken charges =   0.00000

 Dipole moment (field-independent basis, Debye):
    X=              3.5117    Y=              0.7834    Z=              0.0960  Tot=              3.5993
 Quadrupole moment (field-independent basis, Debye-Ang):
   XX=            -27.4086   YY=            -21.7151   ZZ=            -25.1632
   XY=             -1.0790   XZ=             -0.0477   YZ=             -0.1462

 Normal termination of Gaussian 09 at Wed Aug 26 20:47:44 2020.
