 Gaussian 09, Revision D.01,
 Gaussian 09:  ES64L-G09RevD.01 24-Apr-2013

 --------------------
 #p B2PLYPD3/Def2QZVP
 --------------------

 --------
 acrolein
 --------
 Symbolic Z-matrix:
 Charge =  0 Multiplicity = 1

                         Standard orientation:
 ---------------------------------------------------------------------
 Center     Atomic      Atomic             Coordinates (Angstroms)
 Number     Number       Type             X           Y           Z
 ---------------------------------------------------------------------
      1          6           0        0.669199    0.332881   -0.020789
      2          8           0        1.790835   -0.109181    0.023025
      3          6           0       -0.565641   -0.460291   -0.036040
      4          6           0       -1.758771    0.153973    0.007460
      5          1           0       -0.448479   -1.523342    0.018914
      6          1           0       -1.821034    1.228693    0.035604
      7          1           0       -2.661986   -0.407689    0.077392
      8          1           0        0.536098    1.416410   -0.019892
 ---------------------------------------------------------------------

 SCF Done:  E(RB2PLYPD3) =  -191.616555541     A.U. after   12 cycles
 E2(B2PLYPD3) =    -0.2467842551D+00 E(B2PLYPD3) =    -0.19186333979586D+03

 The electronic state is 1-A.
 Alpha  occ. eigenvalues --  -19.72623 -10.71194 -10.65499 -10.64472  -1.19652
 Alpha  occ. eigenvalues --   -0.92994  -0.75637  -0.67297  -0.56764  -0.56494
 Alpha  occ. eigenvalues --   -0.50539  -0.47531  -0.46798  -0.34600  -0.33696
 Alpha virt. eigenvalues --   -0.01820   0.05806   0.07257   0.08273   0.09735
 Alpha virt. eigenvalues --    0.12664   0.14004   0.15355   0.17575   0.19825
 Alpha virt. eigenvalues --    0.19963   0.21632   0.25251   0.26480   0.28842

 Mulliken charges:
               1
     1  C    0.153661
     2  O   -0.348398
     3  C   -0.038124
     4  C   -0.131466
     5  H    0.105577
     6  H    0.088530
     7  H    0.103544
     8  H    0.066677
 Sum of Mulliken charges =   0.00000

 Dipole moment (field-independent basis, Debye):
    X=             -3.5207    Y=              0.7092    Z=              0.0363  Tot=              3.5916
 Quadrupole moment (field-independent basis, Debye-Ang):
   XX=            -27.4432   YY=            -21.7295   ZZ=            -25.1765
   XY=              0.8757   XZ=             -0.3820   YZ=             -0.0478

 Normal termination of Gaussian 09 at Wed Aug 26 19:49:57 2020.
