 Gaussian 09, Revision D.01,
 Gaussian 09:  ES64L-G09RevD.01 24-Apr-2013

 --------------------
 #p B2PLYPD3/Def2QZVP
 --------------------

 --------
 acrolein
 --------
 Symbolic Z-matrix:
 Charge =  0 Multiplicity = 1

                         Standard orientation:
 ---------------------------------------------------------------------
 Center     Atomic      Atomic             Coordinates (Angstroms)
 Number     Number       Type             X           Y           Z
 ---------------------------------------------------------------------
      1          6           0        0.696691    0.346550   -0.008165
      2          8           0        1.780631   -0.142006    0.057121
      3          6           0       -0.520356   -0.415138   -0.093501
      4          6           0       -1.779035    0.144437    0.024487
      5          1           0       -0.461311   -1.427991   -0.115547
      6          1           0       -1.776421    1.104664    0.032516
      7          1           0       -2.862943   -0.494678    0.254202
      8          1           0        0.471828    1.498963   -0.165058
 ---------------------------------------------------------------------

 SCF Done:  E(RB2PLYPD3) =  -191.568570395     A.U. after   13 cycles
 E2(B2PLYPD3) =    -0.2488971199D+00 E(B2PLYPD3) =    -0.19181746751533D+03

 The electronic state is 1-A.
 Alpha  occ. eigenvalues --  -19.73234 -10.72164 -10.66867 -10.63978  -1.21120
 Alpha  occ. eigenvalues --   -0.92828  -0.75808  -0.67543  -0.56772  -0.55506
 Alpha  occ. eigenvalues --   -0.49634  -0.48030  -0.47048  -0.34247  -0.33574
 Alpha virt. eigenvalues --   -0.02594   0.04986   0.06956   0.08376   0.09699
 Alpha virt. eigenvalues --    0.12003   0.13573   0.15367   0.17990   0.19179
 Alpha virt. eigenvalues --    0.20487   0.20815   0.24867   0.25685   0.28396

 Mulliken charges:
               1
     1  C    0.150372
     2  O   -0.331198
     3  C   -0.023317
     4  C   -0.150005
     5  H    0.108323
     6  H    0.098230
     7  H    0.104360
     8  H    0.043235
 Sum of Mulliken charges =   0.00000

 Dipole moment (field-independent basis, Debye):
    X=             -3.4222    Y=              0.6656    Z=             -0.0126  Tot=              3.4863
 Quadrupole moment (field-independent basis, Debye-Ang):
   XX=            -26.7888   YY=            -22.3674   ZZ=            -25.2825
   XY=              1.1225   XZ=             -0.9414   YZ=             -0.0676

 Normal termination of Gaussian 09 at Wed Aug 26 13:13:59 2020.
