 Gaussian 09, Revision D.01,
 Gaussian 09:  ES64L-G09RevD.01 24-Apr-2013

 --------------------
 #p B2PLYPD3/Def2QZVP
 --------------------

 --------
 acrolein
 --------
 Symbolic Z-matrix:
 Charge =  0 Multiplicity = 1

                         Standard orientation:
 ---------------------------------------------------------------------
 Center     Atomic      Atomic             Coordinates (Angstroms)
 Number     Number       Type             X           Y           Z
 ---------------------------------------------------------------------
      1          6           0       -0.655698    0.324643   -0.030738
      2          8           0       -1.806823   -0.099855    0.037499
      3          6           0        0.577310   -0.471976   -0.035218
      4          6           0        1.747627    0.155008    0.011809
      5          1           0        0.472627   -1.580590   -0.076288
      6          1           0        1.831535    1.228069    0.007935
      7          1           0        2.613177   -0.365647    0.157009
      8          1           0       -0.478197    1.470958   -0.063770
 ---------------------------------------------------------------------

 SCF Done:  E(RB2PLYPD3) =  -191.609355852     A.U. after   13 cycles
 E2(B2PLYPD3) =    -0.2483999247D+00 E(B2PLYPD3) =    -0.19185775577625D+03

 The electronic state is 1-A.
 Alpha  occ. eigenvalues --  -19.72920 -10.72299 -10.65126 -10.64956  -1.18389
 Alpha  occ. eigenvalues --   -0.93596  -0.76014  -0.66161  -0.57052  -0.56053
 Alpha  occ. eigenvalues --   -0.50216  -0.47482  -0.46118  -0.34914  -0.33674
 Alpha virt. eigenvalues --   -0.02062   0.05796   0.06845   0.08015   0.09668
 Alpha virt. eigenvalues --    0.12708   0.14080   0.15195   0.16991   0.19825
 Alpha virt. eigenvalues --    0.20055   0.21981   0.25083   0.26417   0.28591

 Mulliken charges:
               1
     1  C    0.157608
     2  O   -0.354386
     3  C   -0.028888
     4  C   -0.120926
     5  H    0.101041
     6  H    0.086746
     7  H    0.103133
     8  H    0.055673
 Sum of Mulliken charges =   0.00000

 Dipole moment (field-independent basis, Debye):
    X=              3.6908    Y=              0.6194    Z=             -0.0631  Tot=              3.7430
 Quadrupole moment (field-independent basis, Debye-Ang):
   XX=            -27.6006   YY=            -21.7549   ZZ=            -25.2170
   XY=             -0.6590   XZ=              0.5415   YZ=              0.0134

 Normal termination of Gaussian 09 at Wed Aug 26 08:44:54 2020.
