 Gaussian 09, Revision D.01,
 Gaussian 09:  ES64L-G09RevD.01 24-Apr-2013

 --------------------
 #p B2PLYPD3/Def2QZVP
 --------------------

 --------
 acrolein
 --------
 Symbolic Z-matrix:
 Charge =  0 Multiplicity = 1

                         Standard orientation:
 ---------------------------------------------------------------------
 Center     Atomic      Atomic             Coordinates (Angstroms)
 Number     Number       Type             X           Y           Z
 ---------------------------------------------------------------------
      1          6           0        0.635598    0.324818    0.067783
      2          8           0        1.816986   -0.097269   -0.068277
      3          6           0       -0.585850   -0.489112    0.097280
      4          6           0       -1.708192    0.148180   -0.056577
      5          1           0       -0.505655   -1.460042   -0.009438
      6          1           0       -1.947418    1.317272   -0.034914
      7          1           0       -2.623893   -0.417638   -0.145385
      8          1           0        0.491746    1.435243    0.085037
 ---------------------------------------------------------------------

 SCF Done:  E(RB2PLYPD3) =  -191.589873747     A.U. after   13 cycles
 E2(B2PLYPD3) =    -0.2495719412D+00 E(B2PLYPD3) =    -0.19183944568850D+03

 The electronic state is 1-A.
 Alpha  occ. eigenvalues --  -19.72624 -10.72180 -10.66488 -10.63728  -1.16294
 Alpha  occ. eigenvalues --   -0.94674  -0.75284  -0.68027  -0.57074  -0.55712
 Alpha  occ. eigenvalues --   -0.50075  -0.46091  -0.45282  -0.35407  -0.33645
 Alpha virt. eigenvalues --   -0.01980   0.05290   0.07036   0.07550   0.09414
 Alpha virt. eigenvalues --    0.12258   0.13687   0.15199   0.17907   0.18943
 Alpha virt. eigenvalues --    0.19970   0.21539   0.24587   0.26771   0.28391

 Mulliken charges:
               1
     1  C    0.153797
     2  O   -0.377248
     3  C   -0.047680
     4  C   -0.097847
     5  H    0.120027
     6  H    0.086202
     7  H    0.086043
     8  H    0.076706
 Sum of Mulliken charges =   0.00000

 Dipole moment (field-independent basis, Debye):
    X=             -3.9228    Y=              0.6801    Z=              0.1063  Tot=              3.9828
 Quadrupole moment (field-independent basis, Debye-Ang):
   XX=            -27.9129   YY=            -21.5509   ZZ=            -25.1868
   XY=              0.5735   XZ=              0.7300   YZ=              0.1162

 Normal termination of Gaussian 09 at Wed Aug 26 12:19:56 2020.
