 Gaussian 09, Revision D.01,
 Gaussian 09:  ES64L-G09RevD.01 24-Apr-2013

 --------------------
 #p B2PLYPD3/Def2QZVP
 --------------------

 --------
 acrolein
 --------
 Symbolic Z-matrix:
 Charge =  0 Multiplicity = 1

                         Standard orientation:
 ---------------------------------------------------------------------
 Center     Atomic      Atomic             Coordinates (Angstroms)
 Number     Number       Type             X           Y           Z
 ---------------------------------------------------------------------
      1          6           0       -0.672695    0.338272    0.010079
      2          8           0       -1.783830   -0.115355   -0.025582
      3          6           0        0.541776   -0.460321    0.052308
      4          6           0        1.757037    0.162099   -0.036637
      5          1           0        0.469081   -1.550430    0.015899
      6          1           0        1.801286    1.233895    0.049505
      7          1           0        2.771544   -0.442863   -0.064513
      8          1           0       -0.527977    1.441944    0.049262
 ---------------------------------------------------------------------

 SCF Done:  E(RB2PLYPD3) =  -191.607644726     A.U. after   13 cycles
 E2(B2PLYPD3) =    -0.2481632368D+00 E(B2PLYPD3) =    -0.19185580796241D+03

 The electronic state is 1-A.
 Alpha  occ. eigenvalues --  -19.72593 -10.71385 -10.67038 -10.64971  -1.20049
 Alpha  occ. eigenvalues --   -0.92360  -0.74784  -0.66846  -0.56604  -0.55467
 Alpha  occ. eigenvalues --   -0.49725  -0.47150  -0.46828  -0.34178  -0.33777
 Alpha virt. eigenvalues --   -0.02110   0.05497   0.06892   0.08179   0.09667
 Alpha virt. eigenvalues --    0.12297   0.13900   0.15286   0.17562   0.19886
 Alpha virt. eigenvalues --    0.19989   0.20869   0.24838   0.26233   0.28885

 Mulliken charges:
               1
     1  C    0.151556
     2  O   -0.342499
     3  C   -0.036240
     4  C   -0.131732
     5  H    0.106764
     6  H    0.090685
     7  H    0.097359
     8  H    0.064107
 Sum of Mulliken charges =   0.00000

 Dipole moment (field-independent basis, Debye):
    X=              3.4957    Y=              0.7115    Z=              0.0809  Tot=              3.5683
 Quadrupole moment (field-independent basis, Debye-Ang):
   XX=            -27.3951   YY=            -21.7608   ZZ=            -25.4110
   XY=             -1.0045   XZ=             -0.2137   YZ=              0.1257

 Normal termination of Gaussian 09 at Wed Aug 26 08:54:09 2020.
