 Gaussian 09, Revision D.01,
 Gaussian 09:  ES64L-G09RevD.01 24-Apr-2013

 --------------------
 #p B2PLYPD3/Def2QZVP
 --------------------

 --------
 acrolein
 --------
 Symbolic Z-matrix:
 Charge =  0 Multiplicity = 1

                         Standard orientation:
 ---------------------------------------------------------------------
 Center     Atomic      Atomic             Coordinates (Angstroms)
 Number     Number       Type             X           Y           Z
 ---------------------------------------------------------------------
      1          6           0       -0.690766    0.366974    0.016951
      2          8           0       -1.775774   -0.145867   -0.036620
      3          6           0        0.551051   -0.427872    0.020364
      4          6           0        1.769199    0.143333   -0.019000
      5          1           0        0.452592   -1.496810    0.112914
      6          1           0        1.766190    1.142486   -0.131768
      7          1           0        2.759499   -0.433691   -0.006993
      8          1           0       -0.548996    1.460339    0.208914
 ---------------------------------------------------------------------

 SCF Done:  E(RB2PLYPD3) =  -191.606802122     A.U. after   13 cycles
 E2(B2PLYPD3) =    -0.2471399661D+00 E(B2PLYPD3) =    -0.19185394208814D+03

 The electronic state is 1-A.
 Alpha  occ. eigenvalues --  -19.73010 -10.71833 -10.65203 -10.64275  -1.20312
 Alpha  occ. eigenvalues --   -0.92665  -0.75206  -0.67210  -0.57017  -0.55905
 Alpha  occ. eigenvalues --   -0.50664  -0.47385  -0.46570  -0.34388  -0.33925
 Alpha virt. eigenvalues --   -0.01732   0.05792   0.07026   0.08051   0.09811
 Alpha virt. eigenvalues --    0.12472   0.13947   0.15358   0.17601   0.19318
 Alpha virt. eigenvalues --    0.20445   0.21301   0.24985   0.26681   0.29038

 Mulliken charges:
               1
     1  C    0.148739
     2  O   -0.338006
     3  C   -0.041619
     4  C   -0.140262
     5  H    0.106479
     6  H    0.086262
     7  H    0.103841
     8  H    0.074567
 Sum of Mulliken charges =   0.00000

 Dipole moment (field-independent basis, Debye):
    X=              3.3090    Y=              0.8370    Z=              0.1462  Tot=              3.4164
 Quadrupole moment (field-independent basis, Debye-Ang):
   XX=            -27.1884   YY=            -21.9161   ZZ=            -25.2084
   XY=             -1.2487   XZ=             -0.3474   YZ=             -0.2158

 Normal termination of Gaussian 09 at Wed Aug 26 10:14:20 2020.
