 Gaussian 09, Revision D.01,
 Gaussian 09:  ES64L-G09RevD.01 24-Apr-2013

 --------------------
 #p B2PLYPD3/Def2QZVP
 --------------------

 --------
 acrolein
 --------
 Symbolic Z-matrix:
 Charge =  0 Multiplicity = 1

                         Standard orientation:
 ---------------------------------------------------------------------
 Center     Atomic      Atomic             Coordinates (Angstroms)
 Number     Number       Type             X           Y           Z
 ---------------------------------------------------------------------
      1          6           0       -0.676718    0.348195    0.019989
      2          8           0       -1.775524   -0.126154   -0.021228
      3          6           0        0.557835   -0.443905    0.013302
      4          6           0        1.754842    0.146088   -0.016636
      5          1           0        0.468243   -1.510070    0.027320
      6          1           0        1.808958    1.203829   -0.069898
      7          1           0        2.652092   -0.423791    0.026545
      8          1           0       -0.540858    1.437000    0.085928
 ---------------------------------------------------------------------

 SCF Done:  E(RB2PLYPD3) =  -191.617115396     A.U. after   12 cycles
 E2(B2PLYPD3) =    -0.2460845304D+00 E(B2PLYPD3) =    -0.19186319992684D+03

 The electronic state is 1-A.
 Alpha  occ. eigenvalues --  -19.72695 -10.71247 -10.64904 -10.64048  -1.20295
 Alpha  occ. eigenvalues --   -0.93038  -0.75537  -0.67281  -0.57074  -0.56521
 Alpha  occ. eigenvalues --   -0.50754  -0.47370  -0.47146  -0.34589  -0.33789
 Alpha virt. eigenvalues --   -0.01550   0.05889   0.07249   0.08370   0.09805
 Alpha virt. eigenvalues --    0.12675   0.14070   0.15427   0.17570   0.19662
 Alpha virt. eigenvalues --    0.20137   0.21717   0.25529   0.26427   0.28883

 Mulliken charges:
               1
     1  C    0.150902
     2  O   -0.341352
     3  C   -0.038060
     4  C   -0.135586
     5  H    0.103983
     6  H    0.085706
     7  H    0.103958
     8  H    0.070448
 Sum of Mulliken charges =   0.00000

 Dipole moment (field-independent basis, Debye):
    X=              3.3937    Y=              0.7579    Z=              0.0856  Tot=              3.4784
 Quadrupole moment (field-independent basis, Debye-Ang):
   XX=            -27.3417   YY=            -21.7387   ZZ=            -25.1165
   XY=             -1.0680   XZ=             -0.1352   YZ=             -0.1018

 Normal termination of Gaussian 09 at Wed Aug 26 19:15:45 2020.
