 Gaussian 09, Revision D.01,
 Gaussian 09:  ES64L-G09RevD.01 24-Apr-2013

 --------------------
 #p B2PLYPD3/Def2QZVP
 --------------------

 --------
 acrolein
 --------
 Symbolic Z-matrix:
 Charge =  0 Multiplicity = 1

                         Standard orientation:
 ---------------------------------------------------------------------
 Center     Atomic      Atomic             Coordinates (Angstroms)
 Number     Number       Type             X           Y           Z
 ---------------------------------------------------------------------
      1          6           0        0.673308    0.349727   -0.021955
      2          8           0        1.776343   -0.124692    0.019521
      3          6           0       -0.545316   -0.430271   -0.013187
      4          6           0       -1.752356    0.133037    0.006149
      5          1           0       -0.426615   -1.524986   -0.032926
      6          1           0       -1.818648    1.201264    0.019280
      7          1           0       -2.742955   -0.415486    0.049790
      8          1           0        0.523652    1.421783   -0.018354
 ---------------------------------------------------------------------

 SCF Done:  E(RB2PLYPD3) =  -191.614155275     A.U. after   13 cycles
 E2(B2PLYPD3) =    -0.2467410039D+00 E(B2PLYPD3) =    -0.19186089627926D+03

 The electronic state is 1-A.
 Alpha  occ. eigenvalues --  -19.72690 -10.71042 -10.65895 -10.64304  -1.20082
 Alpha  occ. eigenvalues --   -0.93110  -0.75593  -0.67150  -0.57014  -0.56033
 Alpha  occ. eigenvalues --   -0.50662  -0.47218  -0.46121  -0.34690  -0.33957
 Alpha virt. eigenvalues --   -0.01800   0.05661   0.07152   0.08518   0.09727
 Alpha virt. eigenvalues --    0.12454   0.14168   0.15375   0.17515   0.19844
 Alpha virt. eigenvalues --    0.19896   0.21298   0.25722   0.26435   0.28955

 Mulliken charges:
               1
     1  C    0.153639
     2  O   -0.345948
     3  C   -0.031355
     4  C   -0.130775
     5  H    0.101915
     6  H    0.080459
     7  H    0.102010
     8  H    0.070054
 Sum of Mulliken charges =   0.00000

 Dipole moment (field-independent basis, Debye):
    X=             -3.4683    Y=              0.7948    Z=             -0.0442  Tot=              3.5584
 Quadrupole moment (field-independent basis, Debye-Ang):
   XX=            -27.1414   YY=            -21.9165   ZZ=            -25.1806
   XY=              0.9723   XZ=             -0.2332   YZ=              0.0323

 Normal termination of Gaussian 09 at Wed Aug 26 09:09:31 2020.
