 Gaussian 09, Revision D.01,
 Gaussian 09:  ES64L-G09RevD.01 24-Apr-2013

 --------------------
 #p B2PLYPD3/Def2QZVP
 --------------------

 --------
 acrolein
 --------
 Symbolic Z-matrix:
 Charge =  0 Multiplicity = 1

                         Standard orientation:
 ---------------------------------------------------------------------
 Center     Atomic      Atomic             Coordinates (Angstroms)
 Number     Number       Type             X           Y           Z
 ---------------------------------------------------------------------
      1          6           0        0.680672   -0.340960    0.061638
      2          8           0        1.799837    0.092696   -0.068028
      3          6           0       -0.556549    0.462659    0.121351
      4          6           0       -1.799166   -0.166263   -0.076993
      5          1           0       -0.374814    1.645556   -0.058088
      6          1           0       -1.868129   -1.238208    0.013024
      7          1           0       -2.621970    0.456636   -0.104684
      8          1           0        0.516476   -1.338169    0.057997
 ---------------------------------------------------------------------

 SCF Done:  E(RB2PLYPD3) =  -191.589077248     A.U. after   14 cycles
 E2(B2PLYPD3) =    -0.2491429034D+00 E(B2PLYPD3) =    -0.19183822015158D+03

 The electronic state is 1-A.
 Alpha  occ. eigenvalues --  -19.72606 -10.70544 -10.66569 -10.66341  -1.19560
 Alpha  occ. eigenvalues --   -0.91558  -0.76574  -0.67108  -0.56673  -0.55976
 Alpha  occ. eigenvalues --   -0.50380  -0.46623  -0.46300  -0.34116  -0.33453
 Alpha virt. eigenvalues --   -0.02744   0.05808   0.06840   0.07593   0.09667
 Alpha virt. eigenvalues --    0.12611   0.13540   0.15352   0.17416   0.19635
 Alpha virt. eigenvalues --    0.19888   0.21811   0.23407   0.27124   0.28228

 Mulliken charges:
               1
     1  C    0.167408
     2  O   -0.351124
     3  C   -0.055654
     4  C   -0.135281
     5  H    0.095491
     6  H    0.093605
     7  H    0.111812
     8  H    0.073743
 Sum of Mulliken charges =   0.00000

 Dipole moment (field-independent basis, Debye):
    X=             -3.5249    Y=             -0.8209    Z=              0.0982  Tot=              3.6206
 Quadrupole moment (field-independent basis, Debye-Ang):
   XX=            -27.6377   YY=            -21.5699   ZZ=            -25.4496
   XY=             -0.6812   XZ=              0.6469   YZ=             -0.2836

 Normal termination of Gaussian 09 at Wed Aug 26 12:48:30 2020.
