 Gaussian 09, Revision D.01,
 Gaussian 09:  ES64L-G09RevD.01 24-Apr-2013

 --------------------
 #p B2PLYPD3/Def2QZVP
 --------------------

 --------
 acrolein
 --------
 Symbolic Z-matrix:
 Charge =  0 Multiplicity = 1

                         Standard orientation:
 ---------------------------------------------------------------------
 Center     Atomic      Atomic             Coordinates (Angstroms)
 Number     Number       Type             X           Y           Z
 ---------------------------------------------------------------------
      1          6           0       -0.671253    0.359114   -0.032868
      2          8           0       -1.807692   -0.132218    0.043326
      3          6           0        0.543423   -0.447707   -0.055531
      4          6           0        1.767075    0.136356    0.041087
      5          1           0        0.464007   -1.527478   -0.149018
      6          1           0        1.858256    1.237494   -0.192665
      7          1           0        2.817235   -0.449662    0.243195
      8          1           0       -0.513432    1.510818    0.035754
 ---------------------------------------------------------------------

 SCF Done:  E(RB2PLYPD3) =  -191.592329703     A.U. after   14 cycles
 E2(B2PLYPD3) =    -0.2513134909D+00 E(B2PLYPD3) =    -0.19184364319424D+03

 The electronic state is 1-A.
 Alpha  occ. eigenvalues --  -19.72972 -10.72699 -10.68039 -10.65294  -1.17879
 Alpha  occ. eigenvalues --   -0.92471  -0.74531  -0.66126  -0.55612  -0.55099
 Alpha  occ. eigenvalues --   -0.49434  -0.46905  -0.45270  -0.34151  -0.33768
 Alpha virt. eigenvalues --   -0.02769   0.05069   0.06563   0.07400   0.09541
 Alpha virt. eigenvalues --    0.11759   0.13783   0.15211   0.17331   0.19159
 Alpha virt. eigenvalues --    0.20374   0.20787   0.24258   0.26212   0.28819

 Mulliken charges:
               1
     1  C    0.159100
     2  O   -0.358338
     3  C   -0.037020
     4  C   -0.126564
     5  H    0.110755
     6  H    0.086543
     7  H    0.098363
     8  H    0.067161
 Sum of Mulliken charges =   0.00000

 Dipole moment (field-independent basis, Debye):
    X=              3.6937    Y=              0.7626    Z=             -0.2063  Tot=              3.7772
 Quadrupole moment (field-independent basis, Debye-Ang):
   XX=            -27.5420   YY=            -21.9168   ZZ=            -25.5007
   XY=             -1.0782   XZ=              0.4255   YZ=             -0.1616

 Normal termination of Gaussian 09 at Wed Aug 26 12:46:45 2020.
