 Gaussian 09, Revision D.01,
 Gaussian 09:  ES64L-G09RevD.01 24-Apr-2013

 --------------------
 #p B2PLYPD3/Def2QZVP
 --------------------

 --------
 acrolein
 --------
 Symbolic Z-matrix:
 Charge =  0 Multiplicity = 1

                         Standard orientation:
 ---------------------------------------------------------------------
 Center     Atomic      Atomic             Coordinates (Angstroms)
 Number     Number       Type             X           Y           Z
 ---------------------------------------------------------------------
      1          6           0        0.665333   -0.355224   -0.088194
      2          8           0        1.811917    0.102201    0.064159
      3          6           0       -0.603472    0.491658   -0.062851
      4          6           0       -1.759422   -0.165970    0.016541
      5          1           0       -0.497137    1.641685    0.006292
      6          1           0       -1.894426   -1.267705    0.088532
      7          1           0       -2.417249    0.382253    0.191791
      8          1           0        0.498834   -1.396625    0.007131
 ---------------------------------------------------------------------

 SCF Done:  E(RB2PLYPD3) =  -191.556430541     A.U. after   13 cycles
 E2(B2PLYPD3) =    -0.2490005124D+00 E(B2PLYPD3) =    -0.19180543105373D+03

 The electronic state is 1-A.
 Alpha  occ. eigenvalues --  -19.72927 -10.71909 -10.65779 -10.63246  -1.17477
 Alpha  occ. eigenvalues --   -0.93665  -0.76851  -0.66863  -0.57853  -0.55763
 Alpha  occ. eigenvalues --   -0.50060  -0.47620  -0.45373  -0.34691  -0.33738
 Alpha virt. eigenvalues --   -0.01792   0.05818   0.06674   0.07264   0.09574
 Alpha virt. eigenvalues --    0.12752   0.14303   0.15244   0.17090   0.19657
 Alpha virt. eigenvalues --    0.19807   0.23070   0.24192   0.26934   0.27924

 Mulliken charges:
               1
     1  C    0.162319
     2  O   -0.363066
     3  C   -0.045369
     4  C   -0.170630
     5  H    0.098316
     6  H    0.091822
     7  H    0.136689
     8  H    0.089920
 Sum of Mulliken charges =   0.00000

 Dipole moment (field-independent basis, Debye):
    X=             -3.5428    Y=             -0.7970    Z=              0.0166  Tot=              3.6313
 Quadrupole moment (field-independent basis, Debye-Ang):
   XX=            -28.3356   YY=            -21.0646   ZZ=            -25.1642
   XY=             -0.6857   XZ=             -0.9216   YZ=              0.0461

 Normal termination of Gaussian 09 at Wed Aug 26 13:50:11 2020.
