 Gaussian 09, Revision D.01,
 Gaussian 09:  ES64L-G09RevD.01 24-Apr-2013

 --------------------
 #p B2PLYPD3/Def2QZVP
 --------------------

 --------
 acrolein
 --------
 Symbolic Z-matrix:
 Charge =  0 Multiplicity = 1

                         Standard orientation:
 ---------------------------------------------------------------------
 Center     Atomic      Atomic             Coordinates (Angstroms)
 Number     Number       Type             X           Y           Z
 ---------------------------------------------------------------------
      1          6           0       -0.672253   -0.312714   -0.095825
      2          8           0       -1.794403    0.064959    0.077303
      3          6           0        0.571369    0.491557   -0.031403
      4          6           0        1.775389   -0.165216    0.027882
      5          1           0        0.312127    1.675790   -0.063918
      6          1           0        1.881599   -1.267021    0.214100
      7          1           0        2.582941    0.371521    0.022976
      8          1           0       -0.468466   -1.381724   -0.195506
 ---------------------------------------------------------------------

 SCF Done:  E(RB2PLYPD3) =  -191.587981242     A.U. after   14 cycles
 E2(B2PLYPD3) =    -0.2482107136D+00 E(B2PLYPD3) =    -0.19183619195544D+03

 The electronic state is 1-A.
 Alpha  occ. eigenvalues --  -19.72822 -10.71092 -10.66471 -10.65547  -1.20281
 Alpha  occ. eigenvalues --   -0.92151  -0.76436  -0.65677  -0.57044  -0.55628
 Alpha  occ. eigenvalues --   -0.50977  -0.47001  -0.46498  -0.34194  -0.33439
 Alpha virt. eigenvalues --   -0.02195   0.05709   0.06853   0.08044   0.09571
 Alpha virt. eigenvalues --    0.12710   0.14036   0.15246   0.16680   0.19339
 Alpha virt. eigenvalues --    0.20148   0.22136   0.24441   0.26608   0.28213

 Mulliken charges:
               1
     1  C    0.166071
     2  O   -0.341034
     3  C   -0.046038
     4  C   -0.134450
     5  H    0.093485
     6  H    0.093880
     7  H    0.111352
     8  H    0.056735
 Sum of Mulliken charges =   0.00000

 Dipole moment (field-independent basis, Debye):
    X=              3.4400    Y=             -0.5962    Z=             -0.1884  Tot=              3.4964
 Quadrupole moment (field-independent basis, Debye-Ang):
   XX=            -27.5008   YY=            -21.7052   ZZ=            -25.3530
   XY=              0.1378   XZ=              0.7828   YZ=             -0.3189

 Normal termination of Gaussian 09 at Wed Aug 26 10:52:32 2020.
