 Gaussian 09, Revision D.01,
 Gaussian 09:  ES64L-G09RevD.01 24-Apr-2013

 --------------------
 #p B2PLYPD3/Def2QZVP
 --------------------

 --------
 acrolein
 --------
 Symbolic Z-matrix:
 Charge =  0 Multiplicity = 1

                         Standard orientation:
 ---------------------------------------------------------------------
 Center     Atomic      Atomic             Coordinates (Angstroms)
 Number     Number       Type             X           Y           Z
 ---------------------------------------------------------------------
      1          6           0        0.676350    0.337226   -0.024841
      2          8           0        1.787695   -0.124227    0.025814
      3          6           0       -0.554089   -0.429832   -0.022801
      4          6           0       -1.763206    0.136435    0.009360
      5          1           0       -0.407005   -1.489583   -0.049147
      6          1           0       -1.830550    1.204862    0.009770
      7          1           0       -2.724631   -0.466629    0.086335
      8          1           0        0.506296    1.482190   -0.023777
 ---------------------------------------------------------------------

 SCF Done:  E(RB2PLYPD3) =  -191.612437373     A.U. after   13 cycles
 E2(B2PLYPD3) =    -0.2475440327D+00 E(B2PLYPD3) =    -0.19185998140544D+03

 The electronic state is 1-A.
 Alpha  occ. eigenvalues --  -19.73013 -10.71857 -10.66191 -10.64241  -1.20046
 Alpha  occ. eigenvalues --   -0.93166  -0.75502  -0.66463  -0.56432  -0.56160
 Alpha  occ. eigenvalues --   -0.50512  -0.47278  -0.46718  -0.34782  -0.33770
 Alpha virt. eigenvalues --   -0.02022   0.05641   0.07059   0.08549   0.09815
 Alpha virt. eigenvalues --    0.12339   0.13664   0.15347   0.17547   0.19800
 Alpha virt. eigenvalues --    0.19876   0.21326   0.25556   0.26334   0.28752

 Mulliken charges:
               1
     1  C    0.160898
     2  O   -0.343494
     3  C   -0.027763
     4  C   -0.131981
     5  H    0.102288
     6  H    0.088772
     7  H    0.104540
     8  H    0.046740
 Sum of Mulliken charges =   0.00000

 Dipole moment (field-independent basis, Debye):
    X=             -3.4964    Y=              0.6604    Z=             -0.0506  Tot=              3.5586
 Quadrupole moment (field-independent basis, Debye-Ang):
   XX=            -27.1788   YY=            -22.0678   ZZ=            -25.2490
   XY=              0.8996   XZ=             -0.3313   YZ=              0.0160

 Normal termination of Gaussian 09 at Wed Aug 26 08:50:07 2020.
