 Gaussian 09, Revision D.01,
 Gaussian 09:  ES64L-G09RevD.01 24-Apr-2013

 --------------------
 #p B2PLYPD3/Def2QZVP
 --------------------

 --------
 acrolein
 --------
 Symbolic Z-matrix:
 Charge =  0 Multiplicity = 1

                         Standard orientation:
 ---------------------------------------------------------------------
 Center     Atomic      Atomic             Coordinates (Angstroms)
 Number     Number       Type             X           Y           Z
 ---------------------------------------------------------------------
      1          6           0        0.660392    0.327451   -0.002877
      2          8           0        1.796948   -0.096673   -0.023566
      3          6           0       -0.571246   -0.484734    0.000288
      4          6           0       -1.727196    0.168843   -0.001141
      5          1           0       -0.453903   -1.628962    0.112196
      6          1           0       -1.764052    1.277497   -0.144667
      7          1           0       -2.800909   -0.365786   -0.006202
      8          1           0        0.471574    1.421268    0.249584
 ---------------------------------------------------------------------

 SCF Done:  E(RB2PLYPD3) =  -191.599310651     A.U. after   13 cycles
 E2(B2PLYPD3) =    -0.2491374349D+00 E(B2PLYPD3) =    -0.19184844808571D+03

 The electronic state is 1-A.
 Alpha  occ. eigenvalues --  -19.72956 -10.72029 -10.67036 -10.65480  -1.19397
 Alpha  occ. eigenvalues --   -0.92989  -0.74074  -0.65742  -0.55987  -0.55283
 Alpha  occ. eigenvalues --   -0.50146  -0.46532  -0.45440  -0.35084  -0.33618
 Alpha virt. eigenvalues --   -0.01680   0.05436   0.06266   0.07563   0.09551
 Alpha virt. eigenvalues --    0.12387   0.14108   0.15033   0.17019   0.19139
 Alpha virt. eigenvalues --    0.20367   0.20750   0.24407   0.27046   0.28638

 Mulliken charges:
               1
     1  C    0.160419
     2  O   -0.343852
     3  C   -0.042749
     4  C   -0.118964
     5  H    0.105779
     6  H    0.084618
     7  H    0.092998
     8  H    0.061750
 Sum of Mulliken charges =   0.00000

 Dipole moment (field-independent basis, Debye):
    X=             -3.4976    Y=              0.6350    Z=              0.1037  Tot=              3.5562
 Quadrupole moment (field-independent basis, Debye-Ang):
   XX=            -27.6847   YY=            -21.8294   ZZ=            -25.4121
   XY=              0.6474   XZ=              0.3166   YZ=             -0.2629

 Normal termination of Gaussian 09 at Wed Aug 26 11:51:11 2020.
