 Gaussian 09, Revision D.01,
 Gaussian 09:  ES64L-G09RevD.01 24-Apr-2013

 --------------------
 #p B2PLYPD3/Def2QZVP
 --------------------

 --------
 acrolein
 --------
 Symbolic Z-matrix:
 Charge =  0 Multiplicity = 1

                         Standard orientation:
 ---------------------------------------------------------------------
 Center     Atomic      Atomic             Coordinates (Angstroms)
 Number     Number       Type             X           Y           Z
 ---------------------------------------------------------------------
      1          6           0        0.678545    0.377199    0.035274
      2          8           0        1.776134   -0.153131   -0.066735
      3          6           0       -0.554847   -0.441933    0.063446
      4          6           0       -1.729585    0.106961   -0.035086
      5          1           0       -0.500821   -1.397088    0.154970
      6          1           0       -1.764604    1.296242   -0.182967
      7          1           0       -2.725348   -0.451671   -0.105460
      8          1           0        0.417023    1.524200    0.285534
 ---------------------------------------------------------------------

 SCF Done:  E(RB2PLYPD3) =  -191.582768212     A.U. after   13 cycles
 E2(B2PLYPD3) =    -0.2490668987D+00 E(B2PLYPD3) =    -0.19183183511034D+03

 The electronic state is 1-A.
 Alpha  occ. eigenvalues --  -19.73655 -10.73243 -10.66344 -10.62611  -1.19364
 Alpha  occ. eigenvalues --   -0.93737  -0.74062  -0.67345  -0.56559  -0.55085
 Alpha  occ. eigenvalues --   -0.51091  -0.46629  -0.45354  -0.35269  -0.34029
 Alpha virt. eigenvalues --   -0.01471   0.05368   0.06758   0.07809   0.09661
 Alpha virt. eigenvalues --    0.12118   0.13305   0.15250   0.18204   0.18455
 Alpha virt. eigenvalues --    0.19886   0.20865   0.24961   0.26731   0.28669

 Mulliken charges:
               1
     1  C    0.163606
     2  O   -0.342096
     3  C   -0.048582
     4  C   -0.109570
     5  H    0.114925
     6  H    0.056234
     7  H    0.097878
     8  H    0.067605
 Sum of Mulliken charges =   0.00000

 Dipole moment (field-independent basis, Debye):
    X=             -3.3233    Y=              0.6803    Z=              0.1911  Tot=              3.3976
 Quadrupole moment (field-independent basis, Debye-Ang):
   XX=            -27.5025   YY=            -22.0539   ZZ=            -25.2108
   XY=              1.2930   XZ=              0.7048   YZ=             -0.1874

 Normal termination of Gaussian 09 at Wed Aug 26 13:54:41 2020.
