 Gaussian 09, Revision D.01,
 Gaussian 09:  ES64L-G09RevD.01 24-Apr-2013

 --------------------
 #p B2PLYPD3/Def2QZVP
 --------------------

 --------
 acrolein
 --------
 Symbolic Z-matrix:
 Charge =  0 Multiplicity = 1

                         Standard orientation:
 ---------------------------------------------------------------------
 Center     Atomic      Atomic             Coordinates (Angstroms)
 Number     Number       Type             X           Y           Z
 ---------------------------------------------------------------------
      1          6           0        0.629135    0.310149    0.056848
      2          8           0        1.824670   -0.092658   -0.055824
      3          6           0       -0.590103   -0.486991    0.008857
      4          6           0       -1.712744    0.145716   -0.070509
      5          1           0       -0.598377   -1.530889    0.211221
      6          1           0       -1.841259    1.310775   -0.065217
      7          1           0       -2.534454   -0.328886    0.076064
      8          1           0        0.419011    1.477021    0.253357
 ---------------------------------------------------------------------

 SCF Done:  E(RB2PLYPD3) =  -191.580093607     A.U. after   13 cycles
 E2(B2PLYPD3) =    -0.2503767947D+00 E(B2PLYPD3) =    -0.19183047040158D+03

 The electronic state is 1-A.
 Alpha  occ. eigenvalues --  -19.73176 -10.73257 -10.64657 -10.64324  -1.16314
 Alpha  occ. eigenvalues --   -0.95186  -0.76542  -0.66254  -0.58005  -0.55079
 Alpha  occ. eigenvalues --   -0.50030  -0.46916  -0.44917  -0.35577  -0.33846
 Alpha virt. eigenvalues --   -0.02314   0.05478   0.06300   0.07809   0.09531
 Alpha virt. eigenvalues --    0.12657   0.14238   0.14841   0.17173   0.19143
 Alpha virt. eigenvalues --    0.20198   0.21961   0.24465   0.26879   0.28554

 Mulliken charges:
               1
     1  C    0.154305
     2  O   -0.365519
     3  C   -0.018859
     4  C   -0.101491
     5  H    0.099293
     6  H    0.072496
     7  H    0.098032
     8  H    0.061744
 Sum of Mulliken charges =   0.00000

 Dipole moment (field-independent basis, Debye):
    X=             -3.9072    Y=              0.5425    Z=              0.4866  Tot=              3.9745
 Quadrupole moment (field-independent basis, Debye-Ang):
   XX=            -27.9931   YY=            -21.7376   ZZ=            -25.1018
   XY=              0.6806   XZ=              0.0006   YZ=             -0.2982

 Normal termination of Gaussian 09 at Wed Aug 26 13:56:20 2020.
