 Gaussian 09, Revision D.01,
 Gaussian 09:  ES64L-G09RevD.01 24-Apr-2013

 --------------------
 #p B2PLYPD3/Def2QZVP
 --------------------

 --------
 acrolein
 --------
 Symbolic Z-matrix:
 Charge =  0 Multiplicity = 1

                         Standard orientation:
 ---------------------------------------------------------------------
 Center     Atomic      Atomic             Coordinates (Angstroms)
 Number     Number       Type             X           Y           Z
 ---------------------------------------------------------------------
      1          6           0       -0.647882    0.340407   -0.083823
      2          8           0       -1.803717   -0.090770    0.070064
      3          6           0        0.574301   -0.492754   -0.037741
      4          6           0        1.745694    0.153846    0.040990
      5          1           0        0.386107   -1.640857   -0.028447
      6          1           0        1.812835    1.314319    0.272610
      7          1           0        2.572466   -0.427033   -0.073844
      8          1           0       -0.374350    1.470741   -0.247388
 ---------------------------------------------------------------------

 SCF Done:  E(RB2PLYPD3) =  -191.589411460     A.U. after   14 cycles
 E2(B2PLYPD3) =    -0.2510442280D+00 E(B2PLYPD3) =    -0.19184045568845D+03

 The electronic state is 1-A.
 Alpha  occ. eigenvalues --  -19.73175 -10.72707 -10.66149 -10.65666  -1.17650
 Alpha  occ. eigenvalues --   -0.93041  -0.75436  -0.64945  -0.56632  -0.54405
 Alpha  occ. eigenvalues --   -0.50043  -0.46762  -0.45537  -0.34523  -0.33687
 Alpha virt. eigenvalues --   -0.02376   0.05254   0.06559   0.07377   0.09744
 Alpha virt. eigenvalues --    0.12321   0.13527   0.15380   0.16297   0.18670
 Alpha virt. eigenvalues --    0.20280   0.21837   0.24369   0.26627   0.28505

 Mulliken charges:
               1
     1  C    0.166600
     2  O   -0.360426
     3  C   -0.044048
     4  C   -0.126695
     5  H    0.104452
     6  H    0.092936
     7  H    0.108217
     8  H    0.058963
 Sum of Mulliken charges =   0.00000

 Dipole moment (field-independent basis, Debye):
    X=              3.6318    Y=              0.5891    Z=             -0.1902  Tot=              3.6842
 Quadrupole moment (field-independent basis, Debye-Ang):
   XX=            -28.2239   YY=            -21.4999   ZZ=            -25.4473
   XY=             -0.4542   XZ=              0.5466   YZ=              0.3284

 Normal termination of Gaussian 09 at Wed Aug 26 11:38:55 2020.
