 Gaussian 09, Revision D.01,
 Gaussian 09:  ES64L-G09RevD.01 24-Apr-2013

 --------------------
 #p B2PLYPD3/Def2QZVP
 --------------------

 --------
 acrolein
 --------
 Symbolic Z-matrix:
 Charge =  0 Multiplicity = 1

                         Standard orientation:
 ---------------------------------------------------------------------
 Center     Atomic      Atomic             Coordinates (Angstroms)
 Number     Number       Type             X           Y           Z
 ---------------------------------------------------------------------
      1          6           0        0.675019    0.379027    0.042596
      2          8           0        1.797232   -0.154575   -0.033415
      3          6           0       -0.556172   -0.427027    0.011429
      4          6           0       -1.761765    0.116944   -0.051553
      5          1           0       -0.477179   -1.546513    0.035526
      6          1           0       -1.842840    1.248338   -0.149819
      7          1           0       -2.671563   -0.487697    0.200735
      8          1           0        0.471236    1.608799    0.166042
 ---------------------------------------------------------------------

 SCF Done:  E(RB2PLYPD3) =  -191.592651215     A.U. after   13 cycles
 E2(B2PLYPD3) =    -0.2514112633D+00 E(B2PLYPD3) =    -0.19184406247788D+03

 The electronic state is 1-A.
 Alpha  occ. eigenvalues --  -19.73621 -10.73883 -10.66285 -10.64954  -1.18037
 Alpha  occ. eigenvalues --   -0.92959  -0.74673  -0.64807  -0.56020  -0.54879
 Alpha  occ. eigenvalues --   -0.49959  -0.46014  -0.45679  -0.34772  -0.33993
 Alpha virt. eigenvalues --   -0.02528   0.05371   0.06253   0.07697   0.09740
 Alpha virt. eigenvalues --    0.11999   0.13385   0.15336   0.16603   0.18959
 Alpha virt. eigenvalues --    0.19844   0.21748   0.24990   0.26361   0.28709

 Mulliken charges:
               1
     1  C    0.163167
     2  O   -0.349688
     3  C   -0.036798
     4  C   -0.117586
     5  H    0.103705
     6  H    0.075403
     7  H    0.104830
     8  H    0.056967
 Sum of Mulliken charges =   0.00000

 Dipole moment (field-independent basis, Debye):
    X=             -3.5041    Y=              0.7481    Z=              0.2526  Tot=              3.5919
 Quadrupole moment (field-independent basis, Debye-Ang):
   XX=            -27.8311   YY=            -21.8176   ZZ=            -25.4983
   XY=              1.1798   XZ=             -0.1684   YZ=             -0.2560

 Normal termination of Gaussian 09 at Wed Aug 26 11:41:25 2020.
