 Gaussian 09, Revision D.01,
 Gaussian 09:  ES64L-G09RevD.01 24-Apr-2013

 --------------------
 #p B2PLYPD3/Def2QZVP
 --------------------

 --------
 acrolein
 --------
 Symbolic Z-matrix:
 Charge =  0 Multiplicity = 1

                         Standard orientation:
 ---------------------------------------------------------------------
 Center     Atomic      Atomic             Coordinates (Angstroms)
 Number     Number       Type             X           Y           Z
 ---------------------------------------------------------------------
      1          6           0        0.670301   -0.358882    0.024471
      2          8           0        1.777083    0.107146   -0.061554
      3          6           0       -0.557511    0.461980    0.033076
      4          6           0       -1.750580   -0.159502   -0.018853
      5          1           0       -0.395900    1.648916    0.140535
      6          1           0       -1.875084   -1.308080   -0.204864
      7          1           0       -2.739764    0.439266   -0.047398
      8          1           0        0.620818   -1.298846    0.371990
 ---------------------------------------------------------------------

 SCF Done:  E(RB2PLYPD3) =  -191.585836514     A.U. after   14 cycles
 E2(B2PLYPD3) =    -0.2482608671D+00 E(B2PLYPD3) =    -0.19183409738099D+03

 The electronic state is 1-A.
 Alpha  occ. eigenvalues --  -19.72412 -10.70286 -10.67127 -10.65903  -1.19852
 Alpha  occ. eigenvalues --   -0.91919  -0.74814  -0.66871  -0.56442  -0.54965
 Alpha  occ. eigenvalues --   -0.50400  -0.46309  -0.44876  -0.34510  -0.33620
 Alpha virt. eigenvalues --   -0.01631   0.05356   0.06356   0.07526   0.09453
 Alpha virt. eigenvalues --    0.12321   0.14229   0.15152   0.17069   0.18422
 Alpha virt. eigenvalues --    0.20175   0.20965   0.24543   0.27588   0.28807

 Mulliken charges:
               1
     1  C    0.171519
     2  O   -0.346641
     3  C   -0.071335
     4  C   -0.124380
     5  H    0.106263
     6  H    0.082665
     7  H    0.095606
     8  H    0.086302
 Sum of Mulliken charges =   0.00000

 Dipole moment (field-independent basis, Debye):
    X=             -3.3280    Y=             -0.8089    Z=              0.2271  Tot=              3.4324
 Quadrupole moment (field-independent basis, Debye-Ang):
   XX=            -27.7247   YY=            -21.4845   ZZ=            -25.3651
   XY=             -0.8504   XZ=              0.7914   YZ=              0.3144

 Normal termination of Gaussian 09 at Wed Aug 26 13:36:03 2020.
