 Gaussian 09, Revision D.01,
 Gaussian 09:  ES64L-G09RevD.01 24-Apr-2013

 --------------------
 #p B2PLYPD3/Def2QZVP
 --------------------

 --------
 acrolein
 --------
 Symbolic Z-matrix:
 Charge =  0 Multiplicity = 1

                         Standard orientation:
 ---------------------------------------------------------------------
 Center     Atomic      Atomic             Coordinates (Angstroms)
 Number     Number       Type             X           Y           Z
 ---------------------------------------------------------------------
      1          6           0        0.684016    0.367992   -0.007732
      2          8           0        1.803623   -0.139623   -0.016343
      3          6           0       -0.583071   -0.440293    0.039489
      4          6           0       -1.749484    0.136912   -0.004276
      5          1           0       -0.453935   -1.486310    0.011592
      6          1           0       -1.779245    1.099330   -0.046278
      7          1           0       -2.707763   -0.396136   -0.091133
      8          1           0        0.403198    1.512438    0.091675
 ---------------------------------------------------------------------

 SCF Done:  E(RB2PLYPD3) =  -191.595589493     A.U. after   13 cycles
 E2(B2PLYPD3) =    -0.2480866358D+00 E(B2PLYPD3) =    -0.19184367612868D+03

 The electronic state is 1-A.
 Alpha  occ. eigenvalues --  -19.73744 -10.73252 -10.63843 -10.63668  -1.18899
 Alpha  occ. eigenvalues --   -0.93934  -0.75474  -0.67426  -0.56698  -0.56278
 Alpha  occ. eigenvalues --   -0.50988  -0.47239  -0.46460  -0.35255  -0.33940
 Alpha virt. eigenvalues --   -0.01680   0.05779   0.07153   0.07753   0.09893
 Alpha virt. eigenvalues --    0.12779   0.13566   0.15285   0.17314   0.19615
 Alpha virt. eigenvalues --    0.20403   0.21949   0.25486   0.26432   0.28507

 Mulliken charges:
               1
     1  C    0.158291
     2  O   -0.347229
     3  C   -0.026483
     4  C   -0.130565
     5  H    0.104556
     6  H    0.084196
     7  H    0.097512
     8  H    0.059721
 Sum of Mulliken charges =   0.00000

 Dipole moment (field-independent basis, Debye):
    X=             -3.4461    Y=              0.7767    Z=             -0.0565  Tot=              3.5330
 Quadrupole moment (field-independent basis, Debye-Ang):
   XX=            -27.3929   YY=            -22.0349   ZZ=            -25.0981
   XY=              0.8338   XZ=              0.3795   YZ=              0.0415

 Normal termination of Gaussian 09 at Wed Aug 26 10:53:09 2020.
