 Gaussian 09, Revision D.01,
 Gaussian 09:  ES64L-G09RevD.01 24-Apr-2013

 --------------------
 #p B2PLYPD3/Def2QZVP
 --------------------

 --------
 acrolein
 --------
 Symbolic Z-matrix:
 Charge =  0 Multiplicity = 1

                         Standard orientation:
 ---------------------------------------------------------------------
 Center     Atomic      Atomic             Coordinates (Angstroms)
 Number     Number       Type             X           Y           Z
 ---------------------------------------------------------------------
      1          6           0       -0.662222    0.353118   -0.035360
      2          8           0       -1.790799   -0.114395    0.038019
      3          6           0        0.575565   -0.455560   -0.027432
      4          6           0        1.757778    0.142279    0.010240
      5          1           0        0.430623   -1.595528   -0.090452
      6          1           0        1.808784    1.243770    0.019599
      7          1           0        2.557980   -0.397350    0.142431
      8          1           0       -0.497722    1.425244   -0.060419
 ---------------------------------------------------------------------

 SCF Done:  E(RB2PLYPD3) =  -191.602856690     A.U. after   13 cycles
 E2(B2PLYPD3) =    -0.2476343509D+00 E(B2PLYPD3) =    -0.19185049104075D+03

 The electronic state is 1-A.
 Alpha  occ. eigenvalues --  -19.72848 -10.71599 -10.65027 -10.64390  -1.18702
 Alpha  occ. eigenvalues --   -0.93388  -0.76323  -0.66531  -0.57492  -0.56110
 Alpha  occ. eigenvalues --   -0.50728  -0.46903  -0.46039  -0.34801  -0.33887
 Alpha virt. eigenvalues --   -0.01790   0.05840   0.06963   0.07950   0.09735
 Alpha virt. eigenvalues --    0.12648   0.14078   0.15261   0.17057   0.19768
 Alpha virt. eigenvalues --    0.19841   0.22363   0.25275   0.26579   0.28753

 Mulliken charges:
               1
     1  C    0.157990
     2  O   -0.355063
     3  C   -0.035892
     4  C   -0.131041
     5  H    0.096316
     6  H    0.082602
     7  H    0.109605
     8  H    0.075483
 Sum of Mulliken charges =   0.00000

 Dipole moment (field-independent basis, Debye):
    X=              3.5091    Y=              0.7762    Z=             -0.0837  Tot=              3.5949
 Quadrupole moment (field-independent basis, Debye-Ang):
   XX=            -27.7920   YY=            -21.5462   ZZ=            -25.1628
   XY=             -0.8900   XZ=              0.5266   YZ=              0.0383

 Normal termination of Gaussian 09 at Wed Aug 26 21:14:51 2020.
