 Gaussian 09, Revision D.01,
 Gaussian 09:  ES64L-G09RevD.01 24-Apr-2013

 --------------------
 #p B2PLYPD3/Def2QZVP
 --------------------

 --------
 acrolein
 --------
 Symbolic Z-matrix:
 Charge =  0 Multiplicity = 1

                         Standard orientation:
 ---------------------------------------------------------------------
 Center     Atomic      Atomic             Coordinates (Angstroms)
 Number     Number       Type             X           Y           Z
 ---------------------------------------------------------------------
      1          6           0       -0.656985    0.332867   -0.011107
      2          8           0       -1.798853   -0.108205    0.014303
      3          6           0        0.573103   -0.457045   -0.031629
      4          6           0        1.745935    0.152046    0.003687
      5          1           0        0.453402   -1.547343    0.032349
      6          1           0        1.805833    1.228639    0.019603
      7          1           0        2.643345   -0.412793    0.068748
      8          1           0       -0.484079    1.429925   -0.000829
 ---------------------------------------------------------------------

 SCF Done:  E(RB2PLYPD3) =  -191.615341353     A.U. after   12 cycles
 E2(B2PLYPD3) =    -0.2476489603D+00 E(B2PLYPD3) =    -0.19186299031365D+03

 The electronic state is 1-A.
 Alpha  occ. eigenvalues --  -19.72806 -10.71668 -10.65280 -10.64512  -1.18616
 Alpha  occ. eigenvalues --   -0.93677  -0.75806  -0.66819  -0.56729  -0.56371
 Alpha  occ. eigenvalues --   -0.50376  -0.47127  -0.46362  -0.34982  -0.33808
 Alpha virt. eigenvalues --   -0.01908   0.05775   0.06991   0.08173   0.09754
 Alpha virt. eigenvalues --    0.12716   0.13913   0.15242   0.17306   0.19901
 Alpha virt. eigenvalues --    0.19967   0.21731   0.25332   0.26572   0.28755

 Mulliken charges:
               1
     1  C    0.155053
     2  O   -0.356593
     3  C   -0.028702
     4  C   -0.127881
     5  H    0.101582
     6  H    0.087877
     7  H    0.104175
     8  H    0.064489
 Sum of Mulliken charges =   0.00000

 Dipole moment (field-independent basis, Debye):
    X=              3.6331    Y=              0.6948    Z=              0.0619  Tot=              3.6995
 Quadrupole moment (field-independent basis, Debye-Ang):
   XX=            -27.6386   YY=            -21.7302   ZZ=            -25.1742
   XY=             -0.8230   XZ=              0.2945   YZ=             -0.0776

 Normal termination of Gaussian 09 at Wed Aug 26 15:13:02 2020.
