 Gaussian 09, Revision D.01,
 Gaussian 09:  ES64L-G09RevD.01 24-Apr-2013

 --------------------
 #p B2PLYPD3/Def2QZVP
 --------------------

 --------
 acrolein
 --------
 Symbolic Z-matrix:
 Charge =  0 Multiplicity = 1

                         Standard orientation:
 ---------------------------------------------------------------------
 Center     Atomic      Atomic             Coordinates (Angstroms)
 Number     Number       Type             X           Y           Z
 ---------------------------------------------------------------------
      1          6           0        0.649228    0.327045    0.021999
      2          8           0        1.798287   -0.107390   -0.023804
      3          6           0       -0.575489   -0.455324   -0.007864
      4          6           0       -1.742063    0.169534   -0.005745
      5          1           0       -0.501029   -1.570445    0.101352
      6          1           0       -1.753292    1.199633   -0.079526
      7          1           0       -2.639330   -0.405209   -0.006251
      8          1           0        0.517301    1.387606    0.124516
 ---------------------------------------------------------------------

 SCF Done:  E(RB2PLYPD3) =  -191.610956125     A.U. after   13 cycles
 E2(B2PLYPD3) =    -0.2475430091D+00 E(B2PLYPD3) =    -0.19185849913448D+03

 The electronic state is 1-A.
 Alpha  occ. eigenvalues --  -19.72581 -10.71251 -10.64855 -10.64655  -1.18217
 Alpha  occ. eigenvalues --   -0.93993  -0.76119  -0.67272  -0.57495  -0.56249
 Alpha  occ. eigenvalues --   -0.50074  -0.47452  -0.46020  -0.34942  -0.33819
 Alpha virt. eigenvalues --   -0.01989   0.05870   0.06820   0.08093   0.09740
 Alpha virt. eigenvalues --    0.12882   0.14039   0.15089   0.17281   0.19739
 Alpha virt. eigenvalues --    0.20421   0.21727   0.25022   0.26701   0.29001

 Mulliken charges:
               1
     1  C    0.144366
     2  O   -0.359638
     3  C   -0.020795
     4  C   -0.130661
     5  H    0.097286
     6  H    0.090443
     7  H    0.104932
     8  H    0.074068
 Sum of Mulliken charges =   0.00000

 Dipole moment (field-independent basis, Debye):
    X=             -3.6798    Y=              0.7319    Z=              0.1414  Tot=              3.7545
 Quadrupole moment (field-independent basis, Debye-Ang):
   XX=            -27.7655   YY=            -21.6324   ZZ=            -25.1042
   XY=              1.0065   XZ=              0.2030   YZ=             -0.2020

 Normal termination of Gaussian 09 at Wed Aug 26 08:52:36 2020.
