 Gaussian 09, Revision D.01,
 Gaussian 09:  ES64L-G09RevD.01 24-Apr-2013

 --------------------
 #p B2PLYPD3/Def2QZVP
 --------------------

 --------
 acrolein
 --------
 Symbolic Z-matrix:
 Charge =  0 Multiplicity = 1

                         Standard orientation:
 ---------------------------------------------------------------------
 Center     Atomic      Atomic             Coordinates (Angstroms)
 Number     Number       Type             X           Y           Z
 ---------------------------------------------------------------------
      1          6           0        0.651595    0.356514    0.046469
      2          8           0        1.779803   -0.145599   -0.024266
      3          6           0       -0.563641   -0.432715   -0.008681
      4          6           0       -1.723895    0.132928   -0.024073
      5          1           0       -0.549612   -1.400372    0.068908
      6          1           0       -1.806855    1.159443   -0.033754
      7          1           0       -2.592747   -0.434495    0.057066
      8          1           0        0.526436    1.499853    0.019618
 ---------------------------------------------------------------------

 SCF Done:  E(RB2PLYPD3) =  -191.597385182     A.U. after   12 cycles
 E2(B2PLYPD3) =    -0.2469763928D+00 E(B2PLYPD3) =    -0.19184436157515D+03

 The electronic state is 1-A.
 Alpha  occ. eigenvalues --  -19.72840 -10.72219 -10.63658 -10.62446  -1.18017
 Alpha  occ. eigenvalues --   -0.95013  -0.75996  -0.68580  -0.57684  -0.56653
 Alpha  occ. eigenvalues --   -0.50175  -0.48142  -0.46214  -0.35276  -0.33909
 Alpha virt. eigenvalues --   -0.01773   0.05870   0.07274   0.08056   0.09820
 Alpha virt. eigenvalues --    0.12781   0.13979   0.15233   0.17964   0.19817
 Alpha virt. eigenvalues --    0.20202   0.21789   0.25718   0.26337   0.28994

 Mulliken charges:
               1
     1  C    0.149090
     2  O   -0.358822
     3  C   -0.028397
     4  C   -0.114081
     5  H    0.107693
     6  H    0.080657
     7  H    0.092478
     8  H    0.071383
 Sum of Mulliken charges =   0.00000

 Dipole moment (field-independent basis, Debye):
    X=             -3.6047    Y=              0.7966    Z=              0.1995  Tot=              3.6971
 Quadrupole moment (field-independent basis, Debye-Ang):
   XX=            -27.5441   YY=            -21.7023   ZZ=            -24.8702
   XY=              1.2547   XZ=             -0.0489   YZ=             -0.1670

 Normal termination of Gaussian 09 at Wed Aug 26 14:33:32 2020.
