 Gaussian 09, Revision D.01,
 Gaussian 09:  ES64L-G09RevD.01 24-Apr-2013

 --------------------
 #p B2PLYPD3/Def2QZVP
 --------------------

 --------
 acrolein
 --------
 Symbolic Z-matrix:
 Charge =  0 Multiplicity = 1

                         Standard orientation:
 ---------------------------------------------------------------------
 Center     Atomic      Atomic             Coordinates (Angstroms)
 Number     Number       Type             X           Y           Z
 ---------------------------------------------------------------------
      1          6           0       -0.650880    0.355039   -0.063089
      2          8           0       -1.777318   -0.142586    0.065342
      3          6           0        0.578523   -0.433909   -0.099477
      4          6           0        1.727469    0.158241    0.008274
      5          1           0        0.470407   -1.543933    0.031824
      6          1           0        1.666690    1.193015    0.099230
      7          1           0        2.739358   -0.432490    0.277032
      8          1           0       -0.588580    1.447861   -0.005074
 ---------------------------------------------------------------------

 SCF Done:  E(RB2PLYPD3) =  -191.596559060     A.U. after   12 cycles
 E2(B2PLYPD3) =    -0.2487635904D+00 E(B2PLYPD3) =    -0.19184532265006D+03

 The electronic state is 1-A.
 Alpha  occ. eigenvalues --  -19.72717 -10.71868 -10.65660 -10.64457  -1.17942
 Alpha  occ. eigenvalues --   -0.94284  -0.74780  -0.67065  -0.57146  -0.55270
 Alpha  occ. eigenvalues --   -0.49681  -0.46275  -0.45659  -0.35280  -0.33974
 Alpha virt. eigenvalues --   -0.01785   0.05439   0.06566   0.07817   0.09842
 Alpha virt. eigenvalues --    0.12323   0.13731   0.15197   0.17394   0.19269
 Alpha virt. eigenvalues --    0.20192   0.21282   0.24680   0.26607   0.28823

 Mulliken charges:
               1
     1  C    0.145020
     2  O   -0.362909
     3  C   -0.028895
     4  C   -0.112655
     5  H    0.104937
     6  H    0.081348
     7  H    0.096295
     8  H    0.076859
 Sum of Mulliken charges =   0.00000

 Dipole moment (field-independent basis, Debye):
    X=              3.4842    Y=              0.8519    Z=              0.1292  Tot=              3.5892
 Quadrupole moment (field-independent basis, Debye-Ang):
   XX=            -27.9128   YY=            -21.7401   ZZ=            -25.1546
   XY=             -1.4584   XZ=              1.1479   YZ=             -0.1248

 Normal termination of Gaussian 09 at Wed Aug 26 10:53:44 2020.
