 Gaussian 09, Revision D.01,
 Gaussian 09:  ES64L-G09RevD.01 24-Apr-2013

 --------------------
 #p B2PLYPD3/Def2QZVP
 --------------------

 --------
 acrolein
 --------
 Symbolic Z-matrix:
 Charge =  0 Multiplicity = 1

                         Standard orientation:
 ---------------------------------------------------------------------
 Center     Atomic      Atomic             Coordinates (Angstroms)
 Number     Number       Type             X           Y           Z
 ---------------------------------------------------------------------
      1          6           0       -0.670558    0.308903    0.061175
      2          8           0       -1.811028   -0.077471   -0.067597
      3          6           0        0.535984   -0.466181    0.063386
      4          6           0        1.794437    0.146287   -0.056693
      5          1           0        0.415339   -1.561777    0.015473
      6          1           0        1.985036    1.348947   -0.155113
      7          1           0        2.660220   -0.472100    0.037601
      8          1           0       -0.531550    1.370646    0.235607
 ---------------------------------------------------------------------

 SCF Done:  E(RB2PLYPD3) =  -191.594444398     A.U. after   13 cycles
 E2(B2PLYPD3) =    -0.2497267465D+00 E(B2PLYPD3) =    -0.19184417114469D+03

 The electronic state is 1-A.
 Alpha  occ. eigenvalues --  -19.72429 -10.70786 -10.68396 -10.65784  -1.19223
 Alpha  occ. eigenvalues --   -0.91891  -0.76070  -0.66315  -0.56116  -0.55409
 Alpha  occ. eigenvalues --   -0.50132  -0.46734  -0.46381  -0.33812  -0.33545
 Alpha virt. eigenvalues --   -0.03185   0.05172   0.06925   0.08438   0.09499
 Alpha virt. eigenvalues --    0.12002   0.13751   0.15526   0.17642   0.18176
 Alpha virt. eigenvalues --    0.20029   0.21582   0.24689   0.26499   0.28531

 Mulliken charges:
               1
     1  C    0.160724
     2  O   -0.352160
     3  C   -0.048690
     4  C   -0.126526
     5  H    0.104400
     6  H    0.091437
     7  H    0.109729
     8  H    0.061086
 Sum of Mulliken charges =   0.00000

 Dipole moment (field-independent basis, Debye):
    X=              3.7541    Y=              0.5904    Z=              0.2048  Tot=              3.8057
 Quadrupole moment (field-independent basis, Debye-Ang):
   XX=            -27.4052   YY=            -21.6956   ZZ=            -25.5303
   XY=             -0.5104   XZ=             -0.5399   YZ=             -0.1623

 Normal termination of Gaussian 09 at Wed Aug 26 14:47:11 2020.
