 Gaussian 09, Revision D.01,
 Gaussian 09:  ES64L-G09RevD.01 24-Apr-2013

 --------------------
 #p B2PLYPD3/Def2QZVP
 --------------------

 --------
 acrolein
 --------
 Symbolic Z-matrix:
 Charge =  0 Multiplicity = 1

                         Standard orientation:
 ---------------------------------------------------------------------
 Center     Atomic      Atomic             Coordinates (Angstroms)
 Number     Number       Type             X           Y           Z
 ---------------------------------------------------------------------
      1          6           0        0.664851    0.345914    0.023671
      2          8           0        1.793072   -0.112966   -0.017845
      3          6           0       -0.573838   -0.465757    0.027115
      4          6           0       -1.748130    0.143670   -0.017330
      5          1           0       -0.458127   -1.505719   -0.016828
      6          1           0       -1.869537    1.257055    0.006531
      7          1           0       -2.623035   -0.394146   -0.032729
      8          1           0        0.548822    1.403571   -0.014955
 ---------------------------------------------------------------------

 SCF Done:  E(RB2PLYPD3) =  -191.612000358     A.U. after   12 cycles
 E2(B2PLYPD3) =    -0.2466661530D+00 E(B2PLYPD3) =    -0.19185866651150D+03

 The electronic state is 1-A.
 Alpha  occ. eigenvalues --  -19.72587 -10.71157 -10.65094 -10.64122  -1.18888
 Alpha  occ. eigenvalues --   -0.93290  -0.75719  -0.67839  -0.57003  -0.56567
 Alpha  occ. eigenvalues --   -0.50671  -0.47204  -0.46339  -0.34849  -0.33739
 Alpha virt. eigenvalues --   -0.01583   0.05746   0.07421   0.07986   0.09665
 Alpha virt. eigenvalues --    0.12615   0.14177   0.15336   0.17696   0.19604
 Alpha virt. eigenvalues --    0.20002   0.21837   0.25298   0.26613   0.28735

 Mulliken charges:
               1
     1  C    0.155032
     2  O   -0.355910
     3  C   -0.048949
     4  C   -0.124812
     5  H    0.110893
     6  H    0.082585
     7  H    0.100294
     8  H    0.080868
 Sum of Mulliken charges =   0.00000

 Dipole moment (field-independent basis, Debye):
    X=             -3.5449    Y=              0.7682    Z=              0.0217  Tot=              3.6273
 Quadrupole moment (field-independent basis, Debye-Ang):
   XX=            -27.5720   YY=            -21.5646   ZZ=            -25.1114
   XY=              0.8796   XZ=              0.1629   YZ=              0.0578

 Normal termination of Gaussian 09 at Wed Aug 26 10:19:37 2020.
