 Gaussian 09, Revision D.01,
 Gaussian 09:  ES64L-G09RevD.01 24-Apr-2013

 --------------------
 #p B2PLYPD3/Def2QZVP
 --------------------

 --------
 acrolein
 --------
 Symbolic Z-matrix:
 Charge =  0 Multiplicity = 1

                         Standard orientation:
 ---------------------------------------------------------------------
 Center     Atomic      Atomic             Coordinates (Angstroms)
 Number     Number       Type             X           Y           Z
 ---------------------------------------------------------------------
      1          6           0        0.685514    0.366138   -0.086950
      2          8           0        1.753900   -0.135868    0.069771
      3          6           0       -0.544982   -0.408580   -0.025927
      4          6           0       -1.760066    0.097214    0.005373
      5          1           0       -0.388651   -1.480309   -0.053328
      6          1           0       -1.879685    1.234985    0.293901
      7          1           0       -2.569115   -0.424154    0.012029
      8          1           0        0.523459    1.427790   -0.165743
 ---------------------------------------------------------------------

 SCF Done:  E(RB2PLYPD3) =  -191.595694782     A.U. after   14 cycles
 E2(B2PLYPD3) =    -0.2457843518D+00 E(B2PLYPD3) =    -0.19184147913410D+03

 The electronic state is 1-A.
 Alpha  occ. eigenvalues --  -19.72930 -10.70963 -10.64580 -10.63661  -1.20957
 Alpha  occ. eigenvalues --   -0.93215  -0.76714  -0.67029  -0.58279  -0.55838
 Alpha  occ. eigenvalues --   -0.52050  -0.47579  -0.45399  -0.34795  -0.33914
 Alpha virt. eigenvalues --   -0.01691   0.05758   0.07504   0.08220   0.09852
 Alpha virt. eigenvalues --    0.12710   0.14204   0.15363   0.17426   0.19148
 Alpha virt. eigenvalues --    0.20016   0.22580   0.24774   0.26775   0.28685

 Mulliken charges:
               1
     1  C    0.168304
     2  O   -0.338175
     3  C   -0.044647
     4  C   -0.129116
     5  H    0.097246
     6  H    0.064977
     7  H    0.106905
     8  H    0.074505
 Sum of Mulliken charges =   0.00000

 Dipole moment (field-independent basis, Debye):
    X=             -3.2064    Y=              0.7556    Z=             -0.1121  Tot=              3.2961
 Quadrupole moment (field-independent basis, Debye-Ang):
   XX=            -27.2017   YY=            -21.9676   ZZ=            -24.9273
   XY=              1.1564   XZ=             -0.7837   YZ=              0.3340

 Normal termination of Gaussian 09 at Wed Aug 26 12:25:51 2020.
