 Gaussian 09, Revision D.01,
 Gaussian 09:  ES64L-G09RevD.01 24-Apr-2013

 --------------------
 #p B2PLYPD3/Def2QZVP
 --------------------

 --------
 acrolein
 --------
 Symbolic Z-matrix:
 Charge =  0 Multiplicity = 1

                         Standard orientation:
 ---------------------------------------------------------------------
 Center     Atomic      Atomic             Coordinates (Angstroms)
 Number     Number       Type             X           Y           Z
 ---------------------------------------------------------------------
      1          6           0       -0.680225    0.388148   -0.036441
      2          8           0       -1.782602   -0.168008    0.041306
      3          6           0        0.572561   -0.391918   -0.069471
      4          6           0        1.759795    0.095369    0.053121
      5          1           0        0.468937   -1.427687   -0.084916
      6          1           0        1.850102    1.201269   -0.130337
      7          1           0        2.583825   -0.464819    0.162768
      8          1           0       -0.554835    1.485710    0.038782
 ---------------------------------------------------------------------

 SCF Done:  E(RB2PLYPD3) =  -191.601825776     A.U. after   14 cycles
 E2(B2PLYPD3) =    -0.2474968890D+00 E(B2PLYPD3) =    -0.19184932266542D+03

 The electronic state is 1-A.
 Alpha  occ. eigenvalues --  -19.73205 -10.72323 -10.64127 -10.63200  -1.18252
 Alpha  occ. eigenvalues --   -0.94073  -0.76150  -0.67187  -0.58053  -0.56157
 Alpha  occ. eigenvalues --   -0.51130  -0.46608  -0.45527  -0.35065  -0.34255
 Alpha virt. eigenvalues --   -0.01829   0.05811   0.07343   0.07855   0.09858
 Alpha virt. eigenvalues --    0.12322   0.14135   0.15289   0.17581   0.19393
 Alpha virt. eigenvalues --    0.20270   0.22277   0.24647   0.26709   0.28613

 Mulliken charges:
               1
     1  C    0.160144
     2  O   -0.356547
     3  C   -0.037542
     4  C   -0.126877
     5  H    0.102285
     6  H    0.071477
     7  H    0.104792
     8  H    0.082267
 Sum of Mulliken charges =   0.00000

 Dipole moment (field-independent basis, Debye):
    X=              3.4266    Y=              0.8993    Z=             -0.1547  Tot=              3.5460
 Quadrupole moment (field-independent basis, Debye-Ang):
   XX=            -27.5335   YY=            -21.8149   ZZ=            -24.9772
   XY=             -1.5421   XZ=              0.3465   YZ=             -0.1818

 Normal termination of Gaussian 09 at Wed Aug 26 11:01:49 2020.
