 Gaussian 09, Revision D.01,
 Gaussian 09:  ES64L-G09RevD.01 24-Apr-2013

 --------------------
 #p B2PLYPD3/Def2QZVP
 --------------------

 --------
 acrolein
 --------
 Symbolic Z-matrix:
 Charge =  0 Multiplicity = 1

                         Standard orientation:
 ---------------------------------------------------------------------
 Center     Atomic      Atomic             Coordinates (Angstroms)
 Number     Number       Type             X           Y           Z
 ---------------------------------------------------------------------
      1          6           0       -0.679980    0.361292    0.015340
      2          8           0       -1.784059   -0.127588   -0.021840
      3          6           0        0.553453   -0.452137    0.015043
      4          6           0        1.763297    0.132452   -0.024611
      5          1           0        0.436039   -1.538620    0.059944
      6          1           0        1.871744    1.242211   -0.028616
      7          1           0        2.688254   -0.408416    0.014820
      8          1           0       -0.544178    1.475890    0.093946
 ---------------------------------------------------------------------

 SCF Done:  E(RB2PLYPD3) =  -191.615132289     A.U. after   12 cycles
 E2(B2PLYPD3) =    -0.2475392984D+00 E(B2PLYPD3) =    -0.19186267158786D+03

 The electronic state is 1-A.
 Alpha  occ. eigenvalues --  -19.72850 -10.71854 -10.65778 -10.64787  -1.19754
 Alpha  occ. eigenvalues --   -0.92380  -0.75126  -0.66534  -0.56560  -0.56031
 Alpha  occ. eigenvalues --   -0.50648  -0.46887  -0.46392  -0.34448  -0.33858
 Alpha virt. eigenvalues --   -0.01749   0.05710   0.07082   0.08096   0.09666
 Alpha virt. eigenvalues --    0.12355   0.14129   0.15411   0.17391   0.19536
 Alpha virt. eigenvalues --    0.19987   0.21563   0.25355   0.26339   0.28818

 Mulliken charges:
               1
     1  C    0.158679
     2  O   -0.343932
     3  C   -0.049138
     4  C   -0.127189
     5  H    0.107508
     6  H    0.078686
     7  H    0.102389
     8  H    0.072996
 Sum of Mulliken charges =   0.00000

 Dipole moment (field-independent basis, Debye):
    X=              3.4245    Y=              0.7791    Z=              0.1398  Tot=              3.5148
 Quadrupole moment (field-independent basis, Debye-Ang):
   XX=            -27.3188   YY=            -21.7281   ZZ=            -25.3272
   XY=             -0.9519   XZ=             -0.0857   YZ=             -0.0797

 Normal termination of Gaussian 09 at Wed Aug 26 08:58:50 2020.
