 Gaussian 09, Revision D.01,
 Gaussian 09:  ES64L-G09RevD.01 24-Apr-2013

 --------------------
 #p B2PLYPD3/Def2QZVP
 --------------------

 --------
 acrolein
 --------
 Symbolic Z-matrix:
 Charge =  0 Multiplicity = 1

                         Standard orientation:
 ---------------------------------------------------------------------
 Center     Atomic      Atomic             Coordinates (Angstroms)
 Number     Number       Type             X           Y           Z
 ---------------------------------------------------------------------
      1          6           0       -0.677240    0.372592   -0.048176
      2          8           0       -1.777072   -0.149273    0.063019
      3          6           0        0.559071   -0.407519   -0.117717
      4          6           0        1.771081    0.132189    0.013024
      5          1           0        0.351383   -1.505801    0.061475
      6          1           0        1.810145    1.158751    0.124638
      7          1           0        2.724410   -0.498988    0.254469
      8          1           0       -0.586833    1.456642   -0.027518
 ---------------------------------------------------------------------

 SCF Done:  E(RB2PLYPD3) =  -191.601988882     A.U. after   13 cycles
 E2(B2PLYPD3) =    -0.2484988735D+00 E(B2PLYPD3) =    -0.19185048775531D+03

 The electronic state is 1-A.
 Alpha  occ. eigenvalues --  -19.72863 -10.71624 -10.65972 -10.64838  -1.18965
 Alpha  occ. eigenvalues --   -0.92977  -0.75519  -0.66923  -0.56951  -0.55544
 Alpha  occ. eigenvalues --   -0.50252  -0.46695  -0.45534  -0.34672  -0.34037
 Alpha virt. eigenvalues --   -0.02182   0.05509   0.06902   0.07962   0.09892
 Alpha virt. eigenvalues --    0.12272   0.13534   0.15331   0.17638   0.19298
 Alpha virt. eigenvalues --    0.19925   0.21449   0.24425   0.26813   0.28672

 Mulliken charges:
               1
     1  C    0.157519
     2  O   -0.357166
     3  C   -0.043267
     4  C   -0.118802
     5  H    0.103205
     6  H    0.083926
     7  H    0.100711
     8  H    0.073873
 Sum of Mulliken charges =   0.00000

 Dipole moment (field-independent basis, Debye):
    X=              3.4058    Y=              0.9377    Z=              0.1809  Tot=              3.5372
 Quadrupole moment (field-independent basis, Debye-Ang):
   XX=            -27.5231   YY=            -21.8975   ZZ=            -25.2196
   XY=             -1.1988   XZ=              1.1738   YZ=             -0.1719

 Normal termination of Gaussian 09 at Wed Aug 26 13:47:06 2020.
