 Gaussian 09, Revision D.01,
 Gaussian 09:  ES64L-G09RevD.01 24-Apr-2013

 --------------------
 #p B2PLYPD3/Def2QZVP
 --------------------

 --------
 acrolein
 --------
 Symbolic Z-matrix:
 Charge =  0 Multiplicity = 1

                         Standard orientation:
 ---------------------------------------------------------------------
 Center     Atomic      Atomic             Coordinates (Angstroms)
 Number     Number       Type             X           Y           Z
 ---------------------------------------------------------------------
      1          6           0       -0.655703    0.337135   -0.023142
      2          8           0       -1.799079   -0.111330    0.016326
      3          6           0        0.571561   -0.462118   -0.020864
      4          6           0        1.742930    0.145805    0.011781
      5          1           0        0.474470   -1.537628    0.002048
      6          1           0        1.852310    1.243510   -0.016403
      7          1           0        2.614635   -0.403790    0.051463
      8          1           0       -0.501505    1.463616    0.025637
 ---------------------------------------------------------------------

 SCF Done:  E(RB2PLYPD3) =  -191.612785348     A.U. after   12 cycles
 E2(B2PLYPD3) =    -0.2478689314D+00 E(B2PLYPD3) =    -0.19186065427920D+03

 The electronic state is 1-A.
 Alpha  occ. eigenvalues --  -19.72799 -10.72004 -10.65121 -10.64454  -1.18361
 Alpha  occ. eigenvalues --   -0.93685  -0.75811  -0.66633  -0.56993  -0.56167
 Alpha  occ. eigenvalues --   -0.50239  -0.47214  -0.46240  -0.34988  -0.33753
 Alpha virt. eigenvalues --   -0.01886   0.05749   0.07010   0.08048   0.09691
 Alpha virt. eigenvalues --    0.12625   0.14058   0.15253   0.17289   0.19758
 Alpha virt. eigenvalues --    0.20058   0.21830   0.25305   0.26479   0.28658

 Mulliken charges:
               1
     1  C    0.156771
     2  O   -0.356843
     3  C   -0.035556
     4  C   -0.123072
     5  H    0.105189
     6  H    0.086432
     7  H    0.102133
     8  H    0.064946
 Sum of Mulliken charges =   0.00000

 Dipole moment (field-independent basis, Debye):
    X=              3.6589    Y=              0.6810    Z=             -0.0203  Tot=              3.7218
 Quadrupole moment (field-independent basis, Debye-Ang):
   XX=            -27.6107   YY=            -21.6662   ZZ=            -25.1895
   XY=             -0.8235   XZ=              0.1733   YZ=             -0.0464

 Normal termination of Gaussian 09 at Wed Aug 26 20:40:46 2020.
