 Gaussian 09, Revision D.01,
 Gaussian 09:  ES64L-G09RevD.01 24-Apr-2013

 --------------------
 #p B2PLYPD3/Def2QZVP
 --------------------

 --------
 acrolein
 --------
 Symbolic Z-matrix:
 Charge =  0 Multiplicity = 1

                         Standard orientation:
 ---------------------------------------------------------------------
 Center     Atomic      Atomic             Coordinates (Angstroms)
 Number     Number       Type             X           Y           Z
 ---------------------------------------------------------------------
      1          6           0        0.687743    0.359293   -0.030712
      2          8           0        1.782054   -0.128015    0.024057
      3          6           0       -0.549814   -0.445290   -0.007637
      4          6           0       -1.766880    0.131701    0.002218
      5          1           0       -0.434969   -1.533774   -0.026170
      6          1           0       -1.854004    1.219767    0.093351
      7          1           0       -2.678525   -0.426206    0.011208
      8          1           0        0.484774    1.490114   -0.054051
 ---------------------------------------------------------------------

 SCF Done:  E(RB2PLYPD3) =  -191.614594162     A.U. after   12 cycles
 E2(B2PLYPD3) =    -0.2474194710D+00 E(B2PLYPD3) =    -0.19186201363343D+03

 The electronic state is 1-A.
 Alpha  occ. eigenvalues --  -19.73111 -10.72063 -10.65547 -10.64622  -1.20440
 Alpha  occ. eigenvalues --   -0.92381  -0.75253  -0.66268  -0.56649  -0.55968
 Alpha  occ. eigenvalues --   -0.50875  -0.47262  -0.46630  -0.34415  -0.33867
 Alpha virt. eigenvalues --   -0.01766   0.05767   0.07125   0.08159   0.09764
 Alpha virt. eigenvalues --    0.12517   0.13909   0.15402   0.17358   0.19654
 Alpha virt. eigenvalues --    0.19996   0.21652   0.25323   0.26402   0.28616

 Mulliken charges:
               1
     1  C    0.162113
     2  O   -0.336643
     3  C   -0.042835
     4  C   -0.132695
     5  H    0.103091
     6  H    0.080303
     7  H    0.104518
     8  H    0.062148
 Sum of Mulliken charges =   0.00000

 Dipole moment (field-independent basis, Debye):
    X=             -3.3674    Y=              0.7296    Z=             -0.0385  Tot=              3.4457
 Quadrupole moment (field-independent basis, Debye-Ang):
   XX=            -27.2323   YY=            -21.8766   ZZ=            -25.3058
   XY=              0.9120   XZ=             -0.2747   YZ=              0.1258

 Normal termination of Gaussian 09 at Wed Aug 26 15:21:35 2020.
