 Gaussian 09, Revision D.01,
 Gaussian 09:  ES64L-G09RevD.01 24-Apr-2013

 --------------------
 #p B2PLYPD3/Def2QZVP
 --------------------

 --------
 acrolein
 --------
 Symbolic Z-matrix:
 Charge =  0 Multiplicity = 1

                         Standard orientation:
 ---------------------------------------------------------------------
 Center     Atomic      Atomic             Coordinates (Angstroms)
 Number     Number       Type             X           Y           Z
 ---------------------------------------------------------------------
      1          6           0        0.680201    0.363632    0.043833
      2          8           0        1.798785   -0.151721   -0.053504
      3          6           0       -0.536722   -0.407955    0.008931
      4          6           0       -1.744008    0.128409   -0.009976
      5          1           0       -0.548671   -1.391397    0.209806
      6          1           0       -1.803765    1.129690   -0.165296
      7          1           0       -2.863493   -0.482056   -0.084440
      8          1           0        0.428826    1.453017    0.211231
 ---------------------------------------------------------------------

 SCF Done:  E(RB2PLYPD3) =  -191.577404445     A.U. after   13 cycles
 E2(B2PLYPD3) =    -0.2495122920D+00 E(B2PLYPD3) =    -0.19182691673730D+03

 The electronic state is 1-A.
 Alpha  occ. eigenvalues --  -19.73421 -10.72560 -10.66350 -10.63159  -1.18484
 Alpha  occ. eigenvalues --   -0.94152  -0.75615  -0.68390  -0.56918  -0.55260
 Alpha  occ. eigenvalues --   -0.50120  -0.46590  -0.45391  -0.35049  -0.34275
 Alpha virt. eigenvalues --   -0.02414   0.04950   0.06837   0.07937   0.09586
 Alpha virt. eigenvalues --    0.12151   0.13597   0.14801   0.18327   0.19159
 Alpha virt. eigenvalues --    0.20372   0.20742   0.24272   0.26423   0.28614

 Mulliken charges:
               1
     1  C    0.144005
     2  O   -0.351869
     3  C   -0.021280
     4  C   -0.120296
     5  H    0.107172
     6  H    0.076687
     7  H    0.088091
     8  H    0.077490
 Sum of Mulliken charges =   0.00000

 Dipole moment (field-independent basis, Debye):
    X=             -3.5590    Y=              0.8761    Z=              0.2209  Tot=              3.6719
 Quadrupole moment (field-independent basis, Debye-Ang):
   XX=            -27.3414   YY=            -22.2092   ZZ=            -25.1366
   XY=              1.1887   XZ=              0.5702   YZ=             -0.3076

 Normal termination of Gaussian 09 at Wed Aug 26 13:25:09 2020.
