 Gaussian 09, Revision D.01,
 Gaussian 09:  ES64L-G09RevD.01 24-Apr-2013

 --------------------
 #p B2PLYPD3/Def2QZVP
 --------------------

 --------
 acrolein
 --------
 Symbolic Z-matrix:
 Charge =  0 Multiplicity = 1

                         Standard orientation:
 ---------------------------------------------------------------------
 Center     Atomic      Atomic             Coordinates (Angstroms)
 Number     Number       Type             X           Y           Z
 ---------------------------------------------------------------------
      1          6           0        0.670627    0.342475   -0.010306
      2          8           0        1.786350   -0.111942    0.018313
      3          6           0       -0.554549   -0.465874   -0.024369
      4          6           0       -1.751692    0.142356    0.001615
      5          1           0       -0.449419   -1.501206   -0.034484
      6          1           0       -1.847383    1.264541   -0.006632
      7          1           0       -2.679276   -0.415650    0.112793
      8          1           0        0.498967    1.434109   -0.019815
 ---------------------------------------------------------------------

 SCF Done:  E(RB2PLYPD3) =  -191.614361333     A.U. after   13 cycles
 E2(B2PLYPD3) =    -0.2471108971D+00 E(B2PLYPD3) =    -0.19186147223053D+03

 The electronic state is 1-A.
 Alpha  occ. eigenvalues --  -19.72712 -10.71388 -10.66148 -10.64149  -1.19797
 Alpha  occ. eigenvalues --   -0.92837  -0.75159  -0.67362  -0.56448  -0.56217
 Alpha  occ. eigenvalues --   -0.50625  -0.47197  -0.46798  -0.34543  -0.33750
 Alpha virt. eigenvalues --   -0.01757   0.05651   0.07304   0.08168   0.09680
 Alpha virt. eigenvalues --    0.12477   0.13985   0.15362   0.17770   0.19538
 Alpha virt. eigenvalues --    0.19901   0.21447   0.25334   0.26509   0.28771

 Mulliken charges:
               1
     1  C    0.156315
     2  O   -0.347008
     3  C   -0.043168
     4  C   -0.128161
     5  H    0.110724
     6  H    0.082231
     7  H    0.100133
     8  H    0.068934
 Sum of Mulliken charges =   0.00000

 Dipole moment (field-independent basis, Debye):
    X=             -3.4897    Y=              0.7017    Z=              0.0037  Tot=              3.5595
 Quadrupole moment (field-independent basis, Debye-Ang):
   XX=            -27.4467   YY=            -21.7304   ZZ=            -25.2267
   XY=              0.8354   XZ=             -0.3488   YZ=             -0.0385

 Normal termination of Gaussian 09 at Wed Aug 26 16:03:48 2020.
