 Gaussian 09, Revision D.01,
 Gaussian 09:  ES64L-G09RevD.01 24-Apr-2013

 --------------------
 #p B2PLYPD3/Def2QZVP
 --------------------

 --------
 acrolein
 --------
 Symbolic Z-matrix:
 Charge =  0 Multiplicity = 1

                         Standard orientation:
 ---------------------------------------------------------------------
 Center     Atomic      Atomic             Coordinates (Angstroms)
 Number     Number       Type             X           Y           Z
 ---------------------------------------------------------------------
      1          6           0        0.650670    0.318845    0.034761
      2          8           0        1.805234   -0.093354   -0.032499
      3          6           0       -0.568411   -0.467371    0.036386
      4          6           0       -1.744126    0.152890   -0.035936
      5          1           0       -0.457611   -1.564713   -0.002123
      6          1           0       -1.804089    1.242047   -0.058385
      7          1           0       -2.644034   -0.383316    0.023437
      8          1           0        0.435061    1.426633    0.085802
 ---------------------------------------------------------------------

 SCF Done:  E(RB2PLYPD3) =  -191.612846010     A.U. after   13 cycles
 E2(B2PLYPD3) =    -0.2483596819D+00 E(B2PLYPD3) =    -0.19186120569209D+03

 The electronic state is 1-A.
 Alpha  occ. eigenvalues --  -19.72868 -10.71819 -10.65607 -10.64765  -1.18405
 Alpha  occ. eigenvalues --   -0.93755  -0.76127  -0.66533  -0.56888  -0.55994
 Alpha  occ. eigenvalues --   -0.50321  -0.47215  -0.46304  -0.34917  -0.33782
 Alpha virt. eigenvalues --   -0.02259   0.05740   0.06923   0.08195   0.09739
 Alpha virt. eigenvalues --    0.12736   0.13886   0.15266   0.17214   0.19615
 Alpha virt. eigenvalues --    0.20113   0.21724   0.25239   0.26545   0.28761

 Mulliken charges:
               1
     1  C    0.156421
     2  O   -0.357228
     3  C   -0.024119
     4  C   -0.122394
     5  H    0.100354
     6  H    0.085839
     7  H    0.104926
     8  H    0.056199
 Sum of Mulliken charges =   0.00000

 Dipole moment (field-independent basis, Debye):
    X=             -3.7340    Y=              0.6081    Z=              0.1058  Tot=              3.7847
 Quadrupole moment (field-independent basis, Debye-Ang):
   XX=            -27.5824   YY=            -21.8203   ZZ=            -25.2153
   XY=              0.6332   XZ=              0.1931   YZ=             -0.0306

 Normal termination of Gaussian 09 at Wed Aug 26 09:24:01 2020.
