 Gaussian 09, Revision D.01,
 Gaussian 09:  ES64L-G09RevD.01 24-Apr-2013

 --------------------
 #p B2PLYPD3/Def2QZVP
 --------------------

 --------
 acrolein
 --------
 Symbolic Z-matrix:
 Charge =  0 Multiplicity = 1

                         Standard orientation:
 ---------------------------------------------------------------------
 Center     Atomic      Atomic             Coordinates (Angstroms)
 Number     Number       Type             X           Y           Z
 ---------------------------------------------------------------------
      1          6           0       -0.669255    0.351280   -0.002799
      2          8           0       -1.779025   -0.130133    0.011772
      3          6           0        0.563484   -0.437107   -0.019461
      4          6           0        1.751255    0.136807    0.002397
      5          1           0        0.443894   -1.490440   -0.008394
      6          1           0        1.780614    1.192940    0.029838
      7          1           0        2.652816   -0.419069    0.047103
      8          1           0       -0.518024    1.451755   -0.043546
 ---------------------------------------------------------------------

 SCF Done:  E(RB2PLYPD3) =  -191.616277721     A.U. after   12 cycles
 E2(B2PLYPD3) =    -0.2464579459D+00 E(B2PLYPD3) =    -0.19186273566640D+03

 The electronic state is 1-A.
 Alpha  occ. eigenvalues --  -19.72843 -10.71546 -10.64691 -10.63762  -1.19615
 Alpha  occ. eigenvalues --   -0.93585  -0.75731  -0.67306  -0.57086  -0.56574
 Alpha  occ. eigenvalues --   -0.50847  -0.47200  -0.46888  -0.34894  -0.33879
 Alpha virt. eigenvalues --   -0.01624   0.05872   0.07269   0.08327   0.09862
 Alpha virt. eigenvalues --    0.12680   0.13957   0.15365   0.17538   0.19808
 Alpha virt. eigenvalues --    0.20074   0.21755   0.25710   0.26400   0.28973

 Mulliken charges:
               1
     1  C    0.153049
     2  O   -0.348507
     3  C   -0.031644
     4  C   -0.132437
     5  H    0.104099
     6  H    0.083003
     7  H    0.105039
     8  H    0.067397
 Sum of Mulliken charges =   0.00000

 Dipole moment (field-independent basis, Debye):
    X=              3.4541    Y=              0.7569    Z=              0.0174  Tot=              3.5361
 Quadrupole moment (field-independent basis, Debye-Ang):
   XX=            -27.3734   YY=            -21.8189   ZZ=            -25.0709
   XY=             -1.0787   XZ=              0.2266   YZ=             -0.0066

 Normal termination of Gaussian 09 at Wed Aug 26 18:49:51 2020.
