 Gaussian 09, Revision D.01,
 Gaussian 09:  ES64L-G09RevD.01 24-Apr-2013

 --------------------
 #p B2PLYPD3/Def2QZVP
 --------------------

 --------
 acrolein
 --------
 Symbolic Z-matrix:
 Charge =  0 Multiplicity = 1

                         Standard orientation:
 ---------------------------------------------------------------------
 Center     Atomic      Atomic             Coordinates (Angstroms)
 Number     Number       Type             X           Y           Z
 ---------------------------------------------------------------------
      1          6           0        0.671212    0.338689   -0.017689
      2          8           0        1.793270   -0.111122    0.020829
      3          6           0       -0.562920   -0.462795   -0.028265
      4          6           0       -1.759738    0.145837    0.002857
      5          1           0       -0.444591   -1.518339   -0.013351
      6          1           0       -1.851550    1.226913    0.006145
      7          1           0       -2.649912   -0.401951    0.106967
      8          1           0        0.508561    1.451968   -0.007809
 ---------------------------------------------------------------------

 SCF Done:  E(RB2PLYPD3) =  -191.615712269     A.U. after   12 cycles
 E2(B2PLYPD3) =    -0.2471850826D+00 E(B2PLYPD3) =    -0.19186289735182D+03

 The electronic state is 1-A.
 Alpha  occ. eigenvalues --  -19.72806 -10.71681 -10.65409 -10.64482  -1.19557
 Alpha  occ. eigenvalues --   -0.92939  -0.75657  -0.66987  -0.56755  -0.56329
 Alpha  occ. eigenvalues --   -0.50607  -0.47538  -0.46761  -0.34580  -0.33724
 Alpha virt. eigenvalues --   -0.01873   0.05790   0.07262   0.08169   0.09724
 Alpha virt. eigenvalues --    0.12631   0.14025   0.15356   0.17498   0.19804
 Alpha virt. eigenvalues --    0.19928   0.21745   0.25229   0.26474   0.28665

 Mulliken charges:
               1
     1  C    0.156927
     2  O   -0.347539
     3  C   -0.039835
     4  C   -0.129033
     5  H    0.107271
     6  H    0.086453
     7  H    0.102367
     8  H    0.063390
 Sum of Mulliken charges =   0.00000

 Dipole moment (field-independent basis, Debye):
    X=             -3.5265    Y=              0.6891    Z=              0.0197  Tot=              3.5932
 Quadrupole moment (field-independent basis, Debye-Ang):
   XX=            -27.4063   YY=            -21.7666   ZZ=            -25.2041
   XY=              0.7840   XZ=             -0.3762   YZ=             -0.0439

 Normal termination of Gaussian 09 at Wed Aug 26 18:42:15 2020.
