 Gaussian 09, Revision D.01,
 Gaussian 09:  ES64L-G09RevD.01 24-Apr-2013

 --------------------
 #p B2PLYPD3/Def2QZVP
 --------------------

 --------
 acrolein
 --------
 Symbolic Z-matrix:
 Charge =  0 Multiplicity = 1

                         Standard orientation:
 ---------------------------------------------------------------------
 Center     Atomic      Atomic             Coordinates (Angstroms)
 Number     Number       Type             X           Y           Z
 ---------------------------------------------------------------------
      1          6           0        0.682409    0.352621   -0.012302
      2          8           0        1.786728   -0.124178    0.018743
      3          6           0       -0.552849   -0.444262   -0.037839
      4          6           0       -1.761788    0.129911    0.005433
      5          1           0       -0.458734   -1.518470    0.029988
      6          1           0       -1.866970    1.225899    0.037652
      7          1           0       -2.661589   -0.415647    0.071858
      8          1           0        0.486840    1.472021   -0.021198
 ---------------------------------------------------------------------

 SCF Done:  E(RB2PLYPD3) =  -191.615292485     A.U. after   12 cycles
 E2(B2PLYPD3) =    -0.2471745379D+00 E(B2PLYPD3) =    -0.19186246702305D+03

 The electronic state is 1-A.
 Alpha  occ. eigenvalues --  -19.73024 -10.71916 -10.65424 -10.64385  -1.20107
 Alpha  occ. eigenvalues --   -0.92773  -0.75550  -0.66568  -0.56859  -0.56105
 Alpha  occ. eigenvalues --   -0.50910  -0.47151  -0.46628  -0.34598  -0.33890
 Alpha virt. eigenvalues --   -0.01790   0.05771   0.07185   0.08250   0.09725
 Alpha virt. eigenvalues --    0.12561   0.13980   0.15383   0.17532   0.19687
 Alpha virt. eigenvalues --    0.19923   0.21700   0.25386   0.26407   0.28596

 Mulliken charges:
               1
     1  C    0.159110
     2  O   -0.340525
     3  C   -0.039883
     4  C   -0.128186
     5  H    0.103450
     6  H    0.078164
     7  H    0.103634
     8  H    0.064236
 Sum of Mulliken charges =   0.00000

 Dipole moment (field-independent basis, Debye):
    X=             -3.4467    Y=              0.7262    Z=              0.0637  Tot=              3.5229
 Quadrupole moment (field-independent basis, Debye-Ang):
   XX=            -27.2299   YY=            -21.8885   ZZ=            -25.2316
   XY=              0.8977   XZ=             -0.3610   YZ=             -0.0671

 Normal termination of Gaussian 09 at Wed Aug 26 19:15:34 2020.
