 Gaussian 09, Revision D.01,
 Gaussian 09:  ES64L-G09RevD.01 24-Apr-2013

 --------------------
 #p B2PLYPD3/Def2QZVP
 --------------------

 --------
 acrolein
 --------
 Symbolic Z-matrix:
 Charge =  0 Multiplicity = 1

                         Standard orientation:
 ---------------------------------------------------------------------
 Center     Atomic      Atomic             Coordinates (Angstroms)
 Number     Number       Type             X           Y           Z
 ---------------------------------------------------------------------
      1          6           0        0.677564    0.362582    0.010419
      2          8           0        1.788331   -0.141689   -0.007860
      3          6           0       -0.559440   -0.439043   -0.020360
      4          6           0       -1.766823    0.147179    0.011404
      5          1           0       -0.468096   -1.485767    0.066304
      6          1           0       -1.762616    1.130946   -0.074546
      7          1           0       -2.696738   -0.433586    0.003020
      8          1           0        0.512996    1.497614    0.059327
 ---------------------------------------------------------------------

 SCF Done:  E(RB2PLYPD3) =  -191.605814162     A.U. after   13 cycles
 E2(B2PLYPD3) =    -0.2478132970D+00 E(B2PLYPD3) =    -0.19185362745940D+03

 The electronic state is 1-A.
 Alpha  occ. eigenvalues --  -19.73067 -10.72333 -10.64648 -10.64162  -1.19140
 Alpha  occ. eigenvalues --   -0.93230  -0.75617  -0.67409  -0.57110  -0.56037
 Alpha  occ. eigenvalues --   -0.50378  -0.47832  -0.46536  -0.34503  -0.33959
 Alpha virt. eigenvalues --   -0.02002   0.05856   0.07118   0.07892   0.09888
 Alpha virt. eigenvalues --    0.12610   0.13727   0.15202   0.17520   0.19772
 Alpha virt. eigenvalues --    0.20497   0.21614   0.25010   0.26406   0.29045

 Mulliken charges:
               1
     1  C    0.148617
     2  O   -0.348151
     3  C   -0.031652
     4  C   -0.136385
     5  H    0.106936
     6  H    0.088127
     7  H    0.104208
     8  H    0.068300
 Sum of Mulliken charges =   0.00000

 Dipole moment (field-independent basis, Debye):
    X=             -3.4688    Y=              0.7928    Z=              0.0476  Tot=              3.5586
 Quadrupole moment (field-independent basis, Debye-Ang):
   XX=            -27.4050   YY=            -21.8189   ZZ=            -25.1913
   XY=              1.2029   XZ=              0.1002   YZ=             -0.1713

 Normal termination of Gaussian 09 at Wed Aug 26 10:11:31 2020.
