 Gaussian 09, Revision D.01,
 Gaussian 09:  ES64L-G09RevD.01 24-Apr-2013

 --------------------
 #p B2PLYPD3/Def2QZVP
 --------------------

 --------
 acrolein
 --------
 Symbolic Z-matrix:
 Charge =  0 Multiplicity = 1

                         Standard orientation:
 ---------------------------------------------------------------------
 Center     Atomic      Atomic             Coordinates (Angstroms)
 Number     Number       Type             X           Y           Z
 ---------------------------------------------------------------------
      1          6           0        0.653420    0.326775    0.034212
      2          8           0        1.796046   -0.107024   -0.031643
      3          6           0       -0.580791   -0.465187    0.044951
      4          6           0       -1.727639    0.158644   -0.031266
      5          1           0       -0.499674   -1.526462   -0.014070
      6          1           0       -1.834348    1.265379   -0.018594
      7          1           0       -2.630446   -0.416421   -0.035725
      8          1           0        0.526156    1.412302    0.034150
 ---------------------------------------------------------------------

 SCF Done:  E(RB2PLYPD3) =  -191.613848238     A.U. after   12 cycles
 E2(B2PLYPD3) =    -0.2471373695D+00 E(B2PLYPD3) =    -0.19186098560739D+03

 The electronic state is 1-A.
 Alpha  occ. eigenvalues --  -19.72593 -10.71400 -10.65363 -10.64095  -1.18529
 Alpha  occ. eigenvalues --   -0.93953  -0.75415  -0.67246  -0.56749  -0.56436
 Alpha  occ. eigenvalues --   -0.50291  -0.47026  -0.46292  -0.35231  -0.33668
 Alpha virt. eigenvalues --   -0.01588   0.05724   0.07061   0.08119   0.09682
 Alpha virt. eigenvalues --    0.12644   0.13967   0.15251   0.17595   0.19607
 Alpha virt. eigenvalues --    0.19983   0.21677   0.25345   0.26516   0.28687

 Mulliken charges:
               1
     1  C    0.151231
     2  O   -0.357070
     3  C   -0.035928
     4  C   -0.120370
     5  H    0.106406
     6  H    0.087560
     7  H    0.097452
     8  H    0.070719
 Sum of Mulliken charges =   0.00000

 Dipole moment (field-independent basis, Debye):
    X=             -3.6308    Y=              0.6965    Z=              0.0628  Tot=              3.6975
 Quadrupole moment (field-independent basis, Debye-Ang):
   XX=            -27.7404   YY=            -21.5910   ZZ=            -25.1225
   XY=              0.8734   XZ=              0.2765   YZ=              0.0506

 Normal termination of Gaussian 09 at Wed Aug 26 08:39:00 2020.
