 Gaussian 09, Revision D.01,
 Gaussian 09:  ES64L-G09RevD.01 24-Apr-2013

 --------------------
 #p B2PLYPD3/Def2QZVP
 --------------------

 --------
 acrolein
 --------
 Symbolic Z-matrix:
 Charge =  0 Multiplicity = 1

                         Standard orientation:
 ---------------------------------------------------------------------
 Center     Atomic      Atomic             Coordinates (Angstroms)
 Number     Number       Type             X           Y           Z
 ---------------------------------------------------------------------
      1          6           0       -0.695479    0.373357    0.041415
      2          8           0       -1.776560   -0.145926   -0.029174
      3          6           0        0.548359   -0.447395    0.002413
      4          6           0        1.759406    0.129473   -0.030386
      5          1           0        0.463505   -1.467710    0.061717
      6          1           0        1.851946    1.212989   -0.081824
      7          1           0        2.748876   -0.428855    0.086974
      8          1           0       -0.525563    1.518378    0.085870
 ---------------------------------------------------------------------

 SCF Done:  E(RB2PLYPD3) =  -191.608469493     A.U. after   13 cycles
 E2(B2PLYPD3) =    -0.2474975606D+00 E(B2PLYPD3) =    -0.19185596705369D+03

 The electronic state is 1-A.
 Alpha  occ. eigenvalues --  -19.73165 -10.72389 -10.65902 -10.63942  -1.20405
 Alpha  occ. eigenvalues --   -0.92287  -0.74339  -0.67118  -0.56291  -0.55986
 Alpha  occ. eigenvalues --   -0.50717  -0.47150  -0.46616  -0.34425  -0.33827
 Alpha virt. eigenvalues --   -0.01572   0.05641   0.07240   0.07914   0.09727
 Alpha virt. eigenvalues --    0.12213   0.13881   0.15470   0.17825   0.19557
 Alpha virt. eigenvalues --    0.19869   0.21236   0.25260   0.26317   0.28841

 Mulliken charges:
               1
     1  C    0.157456
     2  O   -0.335185
     3  C   -0.051884
     4  C   -0.128453
     5  H    0.114162
     6  H    0.078234
     7  H    0.094477
     8  H    0.071194
 Sum of Mulliken charges =   0.00000

 Dipole moment (field-independent basis, Debye):
    X=              3.2666    Y=              0.8200    Z=              0.2045  Tot=              3.3741
 Quadrupole moment (field-independent basis, Debye-Ang):
   XX=            -27.2487   YY=            -21.8440   ZZ=            -25.3142
   XY=             -1.0571   XZ=              0.0053   YZ=             -0.1967

 Normal termination of Gaussian 09 at Wed Aug 26 09:06:12 2020.
