 Gaussian 09, Revision D.01,
 Gaussian 09:  ES64L-G09RevD.01 24-Apr-2013

 --------------------
 #p B2PLYPD3/Def2QZVP
 --------------------

 --------
 acrolein
 --------
 Symbolic Z-matrix:
 Charge =  0 Multiplicity = 1

                         Standard orientation:
 ---------------------------------------------------------------------
 Center     Atomic      Atomic             Coordinates (Angstroms)
 Number     Number       Type             X           Y           Z
 ---------------------------------------------------------------------
      1          6           0       -0.678355    0.365813    0.006517
      2          8           0       -1.768550   -0.140200   -0.020648
      3          6           0        0.539128   -0.433389    0.027534
      4          6           0        1.766782    0.130709   -0.025596
      5          1           0        0.432312   -1.520492    0.065376
      6          1           0        1.751465    1.176855    0.027234
      7          1           0        2.703206   -0.416208   -0.046240
      8          1           0       -0.503906    1.502649    0.068090
 ---------------------------------------------------------------------

 SCF Done:  E(RB2PLYPD3) =  -191.611856233     A.U. after   12 cycles
 E2(B2PLYPD3) =    -0.2476018921D+00 E(B2PLYPD3) =    -0.19185945812522D+03

 The electronic state is 1-A.
 Alpha  occ. eigenvalues --  -19.72970 -10.71973 -10.65312 -10.64434  -1.20246
 Alpha  occ. eigenvalues --   -0.92737  -0.75474  -0.66512  -0.56740  -0.56234
 Alpha  occ. eigenvalues --   -0.50838  -0.47424  -0.46494  -0.34291  -0.33948
 Alpha virt. eigenvalues --   -0.01932   0.05841   0.06995   0.08275   0.09878
 Alpha virt. eigenvalues --    0.12483   0.13920   0.15396   0.17285   0.19875
 Alpha virt. eigenvalues --    0.20087   0.21492   0.25520   0.26203   0.29171

 Mulliken charges:
               1
     1  C    0.154168
     2  O   -0.339403
     3  C   -0.033188
     4  C   -0.136497
     5  H    0.102875
     6  H    0.081224
     7  H    0.108935
     8  H    0.061885
 Sum of Mulliken charges =   0.00000

 Dipole moment (field-independent basis, Debye):
    X=              3.3891    Y=              0.7605    Z=              0.1106  Tot=              3.4752
 Quadrupole moment (field-independent basis, Debye-Ang):
   XX=            -27.1428   YY=            -21.9277   ZZ=            -25.2671
   XY=             -1.1933   XZ=             -0.1500   YZ=              0.0162

 Normal termination of Gaussian 09 at Wed Aug 26 08:52:05 2020.
