 Gaussian 09, Revision D.01,
 Gaussian 09:  ES64L-G09RevD.01 24-Apr-2013

 --------------------
 #p B2PLYPD3/Def2QZVP
 --------------------

 --------
 acrolein
 --------
 Symbolic Z-matrix:
 Charge =  0 Multiplicity = 1

                         Standard orientation:
 ---------------------------------------------------------------------
 Center     Atomic      Atomic             Coordinates (Angstroms)
 Number     Number       Type             X           Y           Z
 ---------------------------------------------------------------------
      1          6           0       -0.663373    0.346803   -0.057273
      2          8           0       -1.819550   -0.105531    0.060869
      3          6           0        0.586498   -0.494544   -0.066014
      4          6           0        1.766377    0.133713    0.014098
      5          1           0        0.460397   -1.515976   -0.104206
      6          1           0        1.941998    1.278261   -0.012668
      7          1           0        2.468575   -0.373423    0.322675
      8          1           0       -0.451581    1.539555   -0.037617
 ---------------------------------------------------------------------

 SCF Done:  E(RB2PLYPD3) =  -191.570185472     A.U. after   14 cycles
 E2(B2PLYPD3) =    -0.2502767671D+00 E(B2PLYPD3) =    -0.19182046223953D+03

 The electronic state is 1-A.
 Alpha  occ. eigenvalues --  -19.73264 -10.73359 -10.64985 -10.64702  -1.17491
 Alpha  occ. eigenvalues --   -0.93528  -0.76395  -0.66416  -0.57777  -0.54731
 Alpha  occ. eigenvalues --   -0.50168  -0.48375  -0.45427  -0.34578  -0.33546
 Alpha virt. eigenvalues --   -0.02333   0.05569   0.07004   0.07229   0.09500
 Alpha virt. eigenvalues --    0.12382   0.13794   0.15145   0.17128   0.19394
 Alpha virt. eigenvalues --    0.19748   0.22483   0.24095   0.26908   0.28013

 Mulliken charges:
               1
     1  C    0.167944
     2  O   -0.359649
     3  C   -0.047704
     4  C   -0.126468
     5  H    0.113021
     6  H    0.082895
     7  H    0.113401
     8  H    0.056559
 Sum of Mulliken charges =   0.00000

 Dipole moment (field-independent basis, Debye):
    X=              3.6580    Y=              0.6078    Z=             -0.0297  Tot=              3.7083
 Quadrupole moment (field-independent basis, Debye-Ang):
   XX=            -28.0286   YY=            -21.5704   ZZ=            -25.2098
   XY=             -0.5109   XZ=              0.9811   YZ=             -0.0680

 Normal termination of Gaussian 09 at Wed Aug 26 13:33:25 2020.
