 Gaussian 09, Revision D.01,
 Gaussian 09:  ES64L-G09RevD.01 24-Apr-2013

 --------------------
 #p B2PLYPD3/Def2QZVP
 --------------------

 --------
 acrolein
 --------
 Symbolic Z-matrix:
 Charge =  0 Multiplicity = 1

                         Standard orientation:
 ---------------------------------------------------------------------
 Center     Atomic      Atomic             Coordinates (Angstroms)
 Number     Number       Type             X           Y           Z
 ---------------------------------------------------------------------
      1          6           0        0.686395    0.369540   -0.039241
      2          8           0        1.767853   -0.136197    0.041817
      3          6           0       -0.542407   -0.438811   -0.045231
      4          6           0       -1.763231    0.136622    0.030806
      5          1           0       -0.428289   -1.559297   -0.075238
      6          1           0       -1.789499    1.217746   -0.035103
      7          1           0       -2.739970   -0.424481    0.121700
      8          1           0        0.530394    1.451500   -0.023893
 ---------------------------------------------------------------------

 SCF Done:  E(RB2PLYPD3) =  -191.611628597     A.U. after   12 cycles
 E2(B2PLYPD3) =    -0.2473878793D+00 E(B2PLYPD3) =    -0.19185901647639D+03

 The electronic state is 1-A.
 Alpha  occ. eigenvalues --  -19.72817 -10.71442 -10.66026 -10.64829  -1.20500
 Alpha  occ. eigenvalues --   -0.92156  -0.74919  -0.66718  -0.56466  -0.55903
 Alpha  occ. eigenvalues --   -0.50589  -0.47364  -0.45969  -0.34171  -0.33986
 Alpha virt. eigenvalues --   -0.01651   0.05696   0.07001   0.08106   0.09748
 Alpha virt. eigenvalues --    0.12316   0.14075   0.15413   0.17356   0.19753
 Alpha virt. eigenvalues --    0.19976   0.21227   0.25285   0.26480   0.29095

 Mulliken charges:
               1
     1  C    0.156132
     2  O   -0.338478
     3  C   -0.042609
     4  C   -0.137060
     5  H    0.101847
     6  H    0.079878
     7  H    0.105482
     8  H    0.074807
 Sum of Mulliken charges =   0.00000

 Dipole moment (field-independent basis, Debye):
    X=             -3.3091    Y=              0.8409    Z=             -0.1308  Tot=              3.4168
 Quadrupole moment (field-independent basis, Debye-Ang):
   XX=            -27.2478   YY=            -21.7794   ZZ=            -25.3402
   XY=              1.1594   XZ=             -0.4256   YZ=             -0.0429

 Normal termination of Gaussian 09 at Wed Aug 26 21:20:56 2020.
