 Gaussian 09, Revision D.01,
 Gaussian 09:  ES64L-G09RevD.01 24-Apr-2013

 --------------------
 #p B2PLYPD3/Def2QZVP
 --------------------

 --------
 acrolein
 --------
 Symbolic Z-matrix:
 Charge =  0 Multiplicity = 1

                         Standard orientation:
 ---------------------------------------------------------------------
 Center     Atomic      Atomic             Coordinates (Angstroms)
 Number     Number       Type             X           Y           Z
 ---------------------------------------------------------------------
      1          6           0       -0.664982    0.320008    0.038323
      2          8           0       -1.789172   -0.106793   -0.040500
      3          6           0        0.566591   -0.453495    0.013461
      4          6           0        1.745940    0.159030   -0.013390
      5          1           0        0.421854   -1.542633    0.095142
      6          1           0        1.833946    1.204190   -0.116948
      7          1           0        2.689335   -0.435443   -0.030640
      8          1           0       -0.517051    1.474971    0.146089
 ---------------------------------------------------------------------

 SCF Done:  E(RB2PLYPD3) =  -191.612084439     A.U. after   12 cycles
 E2(B2PLYPD3) =    -0.2474376426D+00 E(B2PLYPD3) =    -0.19185952208134D+03

 The electronic state is 1-A.
 Alpha  occ. eigenvalues --  -19.72872 -10.71854 -10.65732 -10.64715  -1.19872
 Alpha  occ. eigenvalues --   -0.93395  -0.75487  -0.66089  -0.56664  -0.56223
 Alpha  occ. eigenvalues --   -0.50315  -0.47246  -0.46791  -0.34987  -0.33511
 Alpha virt. eigenvalues --   -0.01854   0.05772   0.06841   0.08393   0.09760
 Alpha virt. eigenvalues --    0.12502   0.13878   0.15168   0.17193   0.19671
 Alpha virt. eigenvalues --    0.20253   0.21478   0.25078   0.26520   0.28589

 Mulliken charges:
               1
     1  C    0.156478
     2  O   -0.342216
     3  C   -0.027915
     4  C   -0.127473
     5  H    0.101733
     6  H    0.094916
     7  H    0.099889
     8  H    0.044589
 Sum of Mulliken charges =   0.00000

 Dipole moment (field-independent basis, Debye):
    X=              3.5265    Y=              0.5928    Z=              0.1275  Tot=              3.5782
 Quadrupole moment (field-independent basis, Debye-Ang):
   XX=            -27.3550   YY=            -21.9515   ZZ=            -25.2222
   XY=             -0.6896   XZ=             -0.4133   YZ=             -0.2329

 Normal termination of Gaussian 09 at Wed Aug 26 09:15:52 2020.
