 Gaussian 09, Revision D.01,
 Gaussian 09:  ES64L-G09RevD.01 24-Apr-2013

 --------------------
 #p B2PLYPD3/Def2QZVP
 --------------------

 --------
 acrolein
 --------
 Symbolic Z-matrix:
 Charge =  0 Multiplicity = 1

                         Standard orientation:
 ---------------------------------------------------------------------
 Center     Atomic      Atomic             Coordinates (Angstroms)
 Number     Number       Type             X           Y           Z
 ---------------------------------------------------------------------
      1          6           0       -0.680210    0.372697    0.042865
      2          8           0       -1.766561   -0.137081   -0.043564
      3          6           0        0.551193   -0.441033    0.025020
      4          6           0        1.768337    0.126586   -0.029410
      5          1           0        0.373341   -1.537442    0.108856
      6          1           0        1.831760    1.183529   -0.042824
      7          1           0        2.650897   -0.398316   -0.045088
      8          1           0       -0.559428    1.499372    0.096709
 ---------------------------------------------------------------------

 SCF Done:  E(RB2PLYPD3) =  -191.612766214     A.U. after   12 cycles
 E2(B2PLYPD3) =    -0.2469631450D+00 E(B2PLYPD3) =    -0.19185972935868D+03

 The electronic state is 1-A.
 Alpha  occ. eigenvalues --  -19.72857 -10.71802 -10.64812 -10.64611  -1.20119
 Alpha  occ. eigenvalues --   -0.92490  -0.75682  -0.66439  -0.57019  -0.56417
 Alpha  occ. eigenvalues --   -0.50975  -0.47293  -0.46459  -0.34347  -0.33845
 Alpha virt. eigenvalues --   -0.01644   0.05893   0.07146   0.08140   0.09814
 Alpha virt. eigenvalues --    0.12506   0.14106   0.15365   0.17176   0.19808
 Alpha virt. eigenvalues --    0.20036   0.22005   0.25452   0.26345   0.29085

 Mulliken charges:
               1
     1  C    0.158896
     2  O   -0.342093
     3  C   -0.044727
     4  C   -0.132532
     5  H    0.103796
     6  H    0.081262
     7  H    0.105921
     8  H    0.069477
 Sum of Mulliken charges =   0.00000

 Dipole moment (field-independent basis, Debye):
    X=              3.3261    Y=              0.8237    Z=              0.1932  Tot=              3.4320
 Quadrupole moment (field-independent basis, Debye-Ang):
   XX=            -27.1884   YY=            -21.7571   ZZ=            -25.2292
   XY=             -0.9784   XZ=             -0.3416   YZ=             -0.1313

 Normal termination of Gaussian 09 at Wed Aug 26 08:35:40 2020.
