 Gaussian 09, Revision D.01,
 Gaussian 09:  ES64L-G09RevD.01 24-Apr-2013

 --------------------
 #p B2PLYPD3/Def2QZVP
 --------------------

 --------
 acrolein
 --------
 Symbolic Z-matrix:
 Charge =  0 Multiplicity = 1

                         Standard orientation:
 ---------------------------------------------------------------------
 Center     Atomic      Atomic             Coordinates (Angstroms)
 Number     Number       Type             X           Y           Z
 ---------------------------------------------------------------------
      1          6           0        0.675286    0.354587    0.014531
      2          8           0        1.797271   -0.120313   -0.013178
      3          6           0       -0.577772   -0.466365    0.039837
      4          6           0       -1.760007    0.136443   -0.021812
      5          1           0       -0.412180   -1.554083   -0.052812
      6          1           0       -1.884015    1.286777    0.029889
      7          1           0       -2.628391   -0.424490   -0.034237
      8          1           0        0.521371    1.506304   -0.032755
 ---------------------------------------------------------------------

 SCF Done:  E(RB2PLYPD3) =  -191.607387717     A.U. after   13 cycles
 E2(B2PLYPD3) =    -0.2483787711D+00 E(B2PLYPD3) =    -0.19185576648832D+03

 The electronic state is 1-A.
 Alpha  occ. eigenvalues --  -19.73072 -10.72453 -10.65654 -10.64989  -1.19150
 Alpha  occ. eigenvalues --   -0.92697  -0.74966  -0.65746  -0.56813  -0.55306
 Alpha  occ. eigenvalues --   -0.50570  -0.46617  -0.46276  -0.34878  -0.33674
 Alpha virt. eigenvalues --   -0.01626   0.05626   0.06977   0.07756   0.09640
 Alpha virt. eigenvalues --    0.12280   0.13763   0.15248   0.17200   0.19432
 Alpha virt. eigenvalues --    0.19923   0.21841   0.24957   0.26559   0.28535

 Mulliken charges:
               1
     1  C    0.165300
     2  O   -0.347094
     3  C   -0.053195
     4  C   -0.122536
     5  H    0.107297
     6  H    0.082947
     7  H    0.104882
     8  H    0.062401
 Sum of Mulliken charges =   0.00000

 Dipole moment (field-independent basis, Debye):
    X=             -3.4624    Y=              0.7020    Z=             -0.0214  Tot=              3.5329
 Quadrupole moment (field-independent basis, Debye-Ang):
   XX=            -27.5969   YY=            -21.6690   ZZ=            -25.3765
   XY=              0.8081   XZ=              0.1287   YZ=              0.1466

 Normal termination of Gaussian 09 at Wed Aug 26 20:41:29 2020.
