 Gaussian 09, Revision D.01,
 Gaussian 09:  ES64L-G09RevD.01 24-Apr-2013

 --------------------
 #p B2PLYPD3/Def2QZVP
 --------------------

 --------
 acrolein
 --------
 Symbolic Z-matrix:
 Charge =  0 Multiplicity = 1

                         Standard orientation:
 ---------------------------------------------------------------------
 Center     Atomic      Atomic             Coordinates (Angstroms)
 Number     Number       Type             X           Y           Z
 ---------------------------------------------------------------------
      1          6           0       -0.676578    0.359330   -0.002873
      2          8           0       -1.778791   -0.130119    0.010855
      3          6           0        0.564382   -0.446246   -0.024325
      4          6           0        1.747198    0.141289    0.004577
      5          1           0        0.457151   -1.500383   -0.002160
      6          1           0        1.822697    1.185494   -0.006950
      7          1           0        2.644517   -0.418890    0.069900
      8          1           0       -0.504051    1.448489   -0.011901
 ---------------------------------------------------------------------

 SCF Done:  E(RB2PLYPD3) =  -191.616348764     A.U. after   12 cycles
 E2(B2PLYPD3) =    -0.2461871764D+00 E(B2PLYPD3) =    -0.19186253594056D+03

 The electronic state is 1-A.
 Alpha  occ. eigenvalues --  -19.72883 -10.71577 -10.64435 -10.63810  -1.19844
 Alpha  occ. eigenvalues --   -0.93282  -0.75514  -0.67516  -0.56915  -0.56653
 Alpha  occ. eigenvalues --   -0.50882  -0.47373  -0.46925  -0.34792  -0.33841
 Alpha virt. eigenvalues --   -0.01401   0.05877   0.07339   0.08161   0.09822
 Alpha virt. eigenvalues --    0.12741   0.14031   0.15384   0.17581   0.19918
 Alpha virt. eigenvalues --    0.20027   0.21810   0.25605   0.26510   0.28659

 Mulliken charges:
               1
     1  C    0.152890
     2  O   -0.345539
     3  C   -0.038628
     4  C   -0.133746
     5  H    0.106484
     6  H    0.084014
     7  H    0.100223
     8  H    0.074302
 Sum of Mulliken charges =   0.00000

 Dipole moment (field-independent basis, Debye):
    X=              3.3948    Y=              0.7979    Z=              0.0236  Tot=              3.4874
 Quadrupole moment (field-independent basis, Debye-Ang):
   XX=            -27.4215   YY=            -21.7105   ZZ=            -25.0760
   XY=             -0.9756   XZ=              0.2212   YZ=             -0.0631

 Normal termination of Gaussian 09 at Wed Aug 26 16:36:35 2020.
