 Gaussian 09, Revision D.01,
 Gaussian 09:  ES64L-G09RevD.01 24-Apr-2013

 --------------------
 #p B2PLYPD3/Def2QZVP
 --------------------

 --------
 acrolein
 --------
 Symbolic Z-matrix:
 Charge =  0 Multiplicity = 1

                         Standard orientation:
 ---------------------------------------------------------------------
 Center     Atomic      Atomic             Coordinates (Angstroms)
 Number     Number       Type             X           Y           Z
 ---------------------------------------------------------------------
      1          6           0       -0.686889    0.349131    0.041344
      2          8           0       -1.754532   -0.135792   -0.063158
      3          6           0        0.545240   -0.424149    0.074305
      4          6           0        1.751679    0.143403   -0.063531
      5          1           0        0.513309   -1.480550    0.150984
      6          1           0        1.795743    1.253535    0.051364
      7          1           0        2.674753   -0.465798   -0.142321
      8          1           0       -0.607729    1.368842    0.132524
 ---------------------------------------------------------------------

 SCF Done:  E(RB2PLYPD3) =  -191.607137840     A.U. after   13 cycles
 E2(B2PLYPD3) =    -0.2452715272D+00 E(B2PLYPD3) =    -0.19185240936737D+03

 The electronic state is 1-A.
 Alpha  occ. eigenvalues --  -19.72351 -10.70133 -10.65806 -10.63663  -1.21495
 Alpha  occ. eigenvalues --   -0.92713  -0.75291  -0.67968  -0.57529  -0.56149
 Alpha  occ. eigenvalues --   -0.50840  -0.48050  -0.46189  -0.34333  -0.33787
 Alpha virt. eigenvalues --   -0.01308   0.05761   0.07197   0.08671   0.09717
 Alpha virt. eigenvalues --    0.12417   0.14188   0.15400   0.17976   0.19531
 Alpha virt. eigenvalues --    0.19833   0.21411   0.25264   0.26458   0.28942

 Mulliken charges:
               1
     1  C    0.151591
     2  O   -0.332257
     3  C   -0.042292
     4  C   -0.136510
     5  H    0.101015
     6  H    0.079147
     7  H    0.101858
     8  H    0.077447
 Sum of Mulliken charges =   0.00000

 Dipole moment (field-independent basis, Debye):
    X=              3.2391    Y=              0.7999    Z=              0.2866  Tot=              3.3487
 Quadrupole moment (field-independent basis, Debye-Ang):
   XX=            -27.2508   YY=            -21.7517   ZZ=            -25.0665
   XY=             -1.4623   XZ=             -0.5142   YZ=              0.0401

 Normal termination of Gaussian 09 at Wed Aug 26 14:36:52 2020.
