 Gaussian 09, Revision D.01,
 Gaussian 09:  ES64L-G09RevD.01 24-Apr-2013

 --------------------
 #p B2PLYPD3/Def2QZVP
 --------------------

 --------
 acrolein
 --------
 Symbolic Z-matrix:
 Charge =  0 Multiplicity = 1

                         Standard orientation:
 ---------------------------------------------------------------------
 Center     Atomic      Atomic             Coordinates (Angstroms)
 Number     Number       Type             X           Y           Z
 ---------------------------------------------------------------------
      1          6           0        0.698861    0.352632   -0.059379
      2          8           0        1.768237   -0.140932    0.047021
      3          6           0       -0.542472   -0.411175   -0.021810
      4          6           0       -1.781736    0.113077    0.031784
      5          1           0       -0.485080   -1.482865   -0.040193
      6          1           0       -1.898283    1.180307    0.162583
      7          1           0       -2.592201   -0.398618   -0.081711
      8          1           0        0.581748    1.501425   -0.120414
 ---------------------------------------------------------------------

 SCF Done:  E(RB2PLYPD3) =  -191.601821885     A.U. after   13 cycles
 E2(B2PLYPD3) =    -0.2458806257D+00 E(B2PLYPD3) =    -0.19184770251100D+03

 The electronic state is 1-A.
 Alpha  occ. eigenvalues --  -19.72978 -10.71750 -10.64234 -10.64113  -1.21498
 Alpha  occ. eigenvalues --   -0.92760  -0.76592  -0.66364  -0.57860  -0.56789
 Alpha  occ. eigenvalues --   -0.51796  -0.47837  -0.46565  -0.34402  -0.33702
 Alpha virt. eigenvalues --   -0.01903   0.06002   0.07316   0.08650   0.09818
 Alpha virt. eigenvalues --    0.12605   0.14279   0.15656   0.17251   0.19486
 Alpha virt. eigenvalues --    0.19946   0.22545   0.25406   0.26284   0.28767

 Mulliken charges:
               1
     1  C    0.156244
     2  O   -0.324592
     3  C   -0.039855
     4  C   -0.132219
     5  H    0.097845
     6  H    0.075485
     7  H    0.108802
     8  H    0.058288
 Sum of Mulliken charges =   0.00000

 Dipole moment (field-independent basis, Debye):
    X=             -3.2862    Y=              0.7243    Z=             -0.1691  Tot=              3.3693
 Quadrupole moment (field-independent basis, Debye-Ang):
   XX=            -26.8114   YY=            -22.0545   ZZ=            -25.0611
   XY=              1.1385   XZ=             -0.2508   YZ=              0.2426

 Normal termination of Gaussian 09 at Wed Aug 26 11:07:28 2020.
