 Gaussian 09, Revision D.01,
 Gaussian 09:  ES64L-G09RevD.01 24-Apr-2013

 --------------------
 #p B2PLYPD3/Def2QZVP
 --------------------

 --------
 acrolein
 --------
 Symbolic Z-matrix:
 Charge =  0 Multiplicity = 1

                         Standard orientation:
 ---------------------------------------------------------------------
 Center     Atomic      Atomic             Coordinates (Angstroms)
 Number     Number       Type             X           Y           Z
 ---------------------------------------------------------------------
      1          6           0        0.682777    0.366307   -0.029141
      2          8           0        1.786394   -0.138516    0.011650
      3          6           0       -0.547732   -0.424633    0.019196
      4          6           0       -1.763286    0.136456   -0.001870
      5          1           0       -0.411644   -1.555100   -0.017894
      6          1           0       -1.817526    1.172018    0.104150
      7          1           0       -2.756628   -0.478962   -0.070947
      8          1           0        0.464088    1.501389   -0.037617
 ---------------------------------------------------------------------

 SCF Done:  E(RB2PLYPD3) =  -191.604229139     A.U. after   13 cycles
 E2(B2PLYPD3) =    -0.2487966926D+00 E(B2PLYPD3) =    -0.19185302583131D+03

 The electronic state is 1-A.
 Alpha  occ. eigenvalues --  -19.73246 -10.72381 -10.66068 -10.64889  -1.19608
 Alpha  occ. eigenvalues --   -0.92763  -0.75165  -0.66010  -0.56299  -0.55665
 Alpha  occ. eigenvalues --   -0.50218  -0.46938  -0.45957  -0.34578  -0.34000
 Alpha virt. eigenvalues --   -0.02083   0.05546   0.06700   0.08089   0.09818
 Alpha virt. eigenvalues --    0.12294   0.13649   0.15302   0.17071   0.19778
 Alpha virt. eigenvalues --    0.20136   0.21277   0.25164   0.26413   0.28716

 Mulliken charges:
               1
     1  C    0.161057
     2  O   -0.344089
     3  C   -0.031275
     4  C   -0.136563
     5  H    0.098795
     6  H    0.087797
     7  H    0.103941
     8  H    0.060336
 Sum of Mulliken charges =   0.00000

 Dipole moment (field-independent basis, Debye):
    X=             -3.4411    Y=              0.7950    Z=             -0.0581  Tot=              3.5322
 Quadrupole moment (field-independent basis, Debye-Ang):
   XX=            -27.3460   YY=            -21.9478   ZZ=            -25.3859
   XY=              0.9943   XZ=             -0.0182   YZ=              0.1959

 Normal termination of Gaussian 09 at Wed Aug 26 09:18:08 2020.
