 Gaussian 09, Revision D.01,
 Gaussian 09:  ES64L-G09RevD.01 24-Apr-2013

 --------------------
 #p B2PLYPD3/Def2QZVP
 --------------------

 --------
 acrolein
 --------
 Symbolic Z-matrix:
 Charge =  0 Multiplicity = 1

                         Standard orientation:
 ---------------------------------------------------------------------
 Center     Atomic      Atomic             Coordinates (Angstroms)
 Number     Number       Type             X           Y           Z
 ---------------------------------------------------------------------
      1          6           0       -0.657635    0.335848   -0.082358
      2          8           0       -1.807311   -0.100756    0.049576
      3          6           0        0.587785   -0.458275    0.019674
      4          6           0        1.764318    0.135406    0.001478
      5          1           0        0.430906   -1.541709   -0.065782
      6          1           0        1.810960    1.320107    0.239131
      7          1           0        2.556620   -0.389679   -0.065500
      8          1           0       -0.506809    1.339457   -0.137223
 ---------------------------------------------------------------------

 SCF Done:  E(RB2PLYPD3) =  -191.582916958     A.U. after   14 cycles
 E2(B2PLYPD3) =    -0.2481454146D+00 E(B2PLYPD3) =    -0.19183106237299D+03

 The electronic state is 1-A.
 Alpha  occ. eigenvalues --  -19.72845 -10.71003 -10.65222 -10.64539  -1.17921
 Alpha  occ. eigenvalues --   -0.93684  -0.76988  -0.67599  -0.58037  -0.55432
 Alpha  occ. eigenvalues --   -0.50911  -0.46261  -0.45780  -0.34923  -0.33939
 Alpha virt. eigenvalues --   -0.02181   0.05474   0.07235   0.07523   0.09687
 Alpha virt. eigenvalues --    0.12588   0.14129   0.15040   0.17423   0.19015
 Alpha virt. eigenvalues --    0.20173   0.22396   0.24291   0.26883   0.28696

 Mulliken charges:
               1
     1  C    0.166910
     2  O   -0.363627
     3  C   -0.041231
     4  C   -0.132952
     5  H    0.096443
     6  H    0.080967
     7  H    0.111567
     8  H    0.081923
 Sum of Mulliken charges =   0.00000

 Dipole moment (field-independent basis, Debye):
    X=              3.5824    Y=              0.7291    Z=             -0.1916  Tot=              3.6608
 Quadrupole moment (field-independent basis, Debye-Ang):
   XX=            -27.9871   YY=            -21.6088   ZZ=            -25.0657
   XY=             -0.9415   XZ=              0.3824   YZ=              0.3997

 Normal termination of Gaussian 09 at Wed Aug 26 14:41:04 2020.
