 Gaussian 09, Revision D.01,
 Gaussian 09:  ES64L-G09RevD.01 24-Apr-2013

 --------------------
 #p B2PLYPD3/Def2QZVP
 --------------------

 --------
 acrolein
 --------
 Symbolic Z-matrix:
 Charge =  0 Multiplicity = 1

                         Standard orientation:
 ---------------------------------------------------------------------
 Center     Atomic      Atomic             Coordinates (Angstroms)
 Number     Number       Type             X           Y           Z
 ---------------------------------------------------------------------
      1          6           0        0.671390    0.346680    0.017342
      2          8           0        1.789498   -0.124728   -0.020387
      3          6           0       -0.559908   -0.437775    0.005316
      4          6           0       -1.756149    0.143588   -0.008770
      5          1           0       -0.474632   -1.521090    0.070034
      6          1           0       -1.825088    1.191533   -0.039176
      7          1           0       -2.676790   -0.420852   -0.026004
      8          1           0        0.528523    1.433275    0.074910
 ---------------------------------------------------------------------

 SCF Done:  E(RB2PLYPD3) =  -191.616344116     A.U. after   12 cycles
 E2(B2PLYPD3) =    -0.2469553896D+00 E(B2PLYPD3) =    -0.19186329950553D+03

 The electronic state is 1-A.
 Alpha  occ. eigenvalues --  -19.72777 -10.71489 -10.65095 -10.64319  -1.19305
 Alpha  occ. eigenvalues --   -0.93301  -0.75831  -0.67189  -0.56958  -0.56496
 Alpha  occ. eigenvalues --   -0.50568  -0.47144  -0.46533  -0.34740  -0.33915
 Alpha virt. eigenvalues --   -0.01861   0.05803   0.07130   0.08300   0.09743
 Alpha virt. eigenvalues --    0.12652   0.14098   0.15307   0.17515   0.19806
 Alpha virt. eigenvalues --    0.20100   0.21631   0.25476   0.26434   0.28858

 Mulliken charges:
               1
     1  C    0.150111
     2  O   -0.349704
     3  C   -0.031080
     4  C   -0.131890
     5  H    0.102091
     6  H    0.084633
     7  H    0.103076
     8  H    0.072763
 Sum of Mulliken charges =   0.00000

 Dipole moment (field-independent basis, Debye):
    X=             -3.5325    Y=              0.7812    Z=              0.0974  Tot=              3.6192
 Quadrupole moment (field-independent basis, Debye-Ang):
   XX=            -27.3741   YY=            -21.7861   ZZ=            -25.1468
   XY=              1.0241   XZ=              0.1889   YZ=             -0.1023

 Normal termination of Gaussian 09 at Wed Aug 26 08:55:52 2020.
