 Gaussian 09, Revision D.01,
 Gaussian 09:  ES64L-G09RevD.01 24-Apr-2013

 --------------------
 #p B2PLYPD3/Def2QZVP
 --------------------

 --------
 acrolein
 --------
 Symbolic Z-matrix:
 Charge =  0 Multiplicity = 1

                         Standard orientation:
 ---------------------------------------------------------------------
 Center     Atomic      Atomic             Coordinates (Angstroms)
 Number     Number       Type             X           Y           Z
 ---------------------------------------------------------------------
      1          6           0       -0.666204    0.339183   -0.002656
      2          8           0       -1.792943   -0.108417    0.007211
      3          6           0        0.567824   -0.472583   -0.024775
      4          6           0        1.748496    0.144857   -0.000829
      5          1           0        0.445580   -1.512001    0.044654
      6          1           0        1.871862    1.266207    0.024495
      7          1           0        2.642218   -0.400636    0.045029
      8          1           0       -0.516811    1.445023   -0.002303
 ---------------------------------------------------------------------

 SCF Done:  E(RB2PLYPD3) =  -191.613584767     A.U. after   12 cycles
 E2(B2PLYPD3) =    -0.2471564497D+00 E(B2PLYPD3) =    -0.19186074121661D+03

 The electronic state is 1-A.
 Alpha  occ. eigenvalues --  -19.72715 -10.71589 -10.65632 -10.64305  -1.19316
 Alpha  occ. eigenvalues --   -0.93073  -0.75363  -0.67108  -0.56815  -0.56109
 Alpha  occ. eigenvalues --   -0.50637  -0.47189  -0.46574  -0.34768  -0.33663
 Alpha virt. eigenvalues --   -0.01666   0.05695   0.07275   0.08063   0.09659
 Alpha virt. eigenvalues --    0.12530   0.14005   0.15321   0.17620   0.19562
 Alpha virt. eigenvalues --    0.19988   0.21658   0.25291   0.26508   0.28665

 Mulliken charges:
               1
     1  C    0.157646
     2  O   -0.350086
     3  C   -0.046752
     4  C   -0.123471
     5  H    0.110401
     6  H    0.084402
     7  H    0.100065
     8  H    0.067794
 Sum of Mulliken charges =   0.00000

 Dipole moment (field-independent basis, Debye):
    X=              3.5392    Y=              0.6911    Z=              0.0829  Tot=              3.6070
 Quadrupole moment (field-independent basis, Debye-Ang):
   XX=            -27.4974   YY=            -21.6760   ZZ=            -25.2063
   XY=             -0.7532   XZ=              0.2207   YZ=             -0.0717

 Normal termination of Gaussian 09 at Wed Aug 26 15:55:02 2020.
