 Gaussian 09, Revision D.01,
 Gaussian 09:  ES64L-G09RevD.01 24-Apr-2013

 --------------------
 #p B2PLYPD3/Def2QZVP
 --------------------

 --------
 acrolein
 --------
 Symbolic Z-matrix:
 Charge =  0 Multiplicity = 1

                         Standard orientation:
 ---------------------------------------------------------------------
 Center     Atomic      Atomic             Coordinates (Angstroms)
 Number     Number       Type             X           Y           Z
 ---------------------------------------------------------------------
      1          6           0       -0.659968    0.349674   -0.049468
      2          8           0       -1.784466   -0.127078    0.040471
      3          6           0        0.567280   -0.441247   -0.048748
      4          6           0        1.750392    0.130641    0.030033
      5          1           0        0.470550   -1.507006   -0.017316
      6          1           0        1.824427    1.223104   -0.006369
      7          1           0        2.579644   -0.397102    0.099709
      8          1           0       -0.545116    1.463220    0.009306
 ---------------------------------------------------------------------

 SCF Done:  E(RB2PLYPD3) =  -191.608400894     A.U. after   13 cycles
 E2(B2PLYPD3) =    -0.2471232942D+00 E(B2PLYPD3) =    -0.19185552418844D+03

 The electronic state is 1-A.
 Alpha  occ. eigenvalues --  -19.72755 -10.71779 -10.64351 -10.64054  -1.18667
 Alpha  occ. eigenvalues --   -0.93834  -0.76330  -0.66932  -0.57766  -0.56438
 Alpha  occ. eigenvalues --   -0.50589  -0.47127  -0.46405  -0.34948  -0.33852
 Alpha virt. eigenvalues --   -0.01828   0.05870   0.07186   0.08115   0.09785
 Alpha virt. eigenvalues --    0.12612   0.14216   0.15308   0.17370   0.19756
 Alpha virt. eigenvalues --    0.20074   0.22166   0.25217   0.26532   0.29002

 Mulliken charges:
               1
     1  C    0.154869
     2  O   -0.354856
     3  C   -0.034795
     4  C   -0.125872
     5  H    0.103672
     6  H    0.081388
     7  H    0.105938
     8  H    0.069656
 Sum of Mulliken charges =   0.00000

 Dipole moment (field-independent basis, Debye):
    X=              3.5639    Y=              0.7484    Z=             -0.0717  Tot=              3.6424
 Quadrupole moment (field-independent basis, Debye-Ang):
   XX=            -27.4748   YY=            -21.7015   ZZ=            -25.0657
   XY=             -1.0855   XZ=              0.4192   YZ=             -0.0553

 Normal termination of Gaussian 09 at Wed Aug 26 10:04:42 2020.
