 Gaussian 09, Revision D.01,
 Gaussian 09:  ES64L-G09RevD.01 24-Apr-2013

 --------------------
 #p B2PLYPD3/Def2QZVP
 --------------------

 --------
 acrolein
 --------
 Symbolic Z-matrix:
 Charge =  0 Multiplicity = 1

                         Standard orientation:
 ---------------------------------------------------------------------
 Center     Atomic      Atomic             Coordinates (Angstroms)
 Number     Number       Type             X           Y           Z
 ---------------------------------------------------------------------
      1          6           0        0.668494    0.342637    0.015773
      2          8           0        1.799008   -0.114103   -0.014464
      3          6           0       -0.565753   -0.461199   -0.002490
      4          6           0       -1.751745    0.147080   -0.015451
      5          1           0       -0.485073   -1.477826    0.060187
      6          1           0       -1.836310    1.230467   -0.023878
      7          1           0       -2.684427   -0.403686    0.027419
      8          1           0        0.507772    1.392761    0.064988
 ---------------------------------------------------------------------

 SCF Done:  E(RB2PLYPD3) =  -191.613493591     A.U. after   13 cycles
 E2(B2PLYPD3) =    -0.2469387699D+00 E(B2PLYPD3) =    -0.19186043236075D+03

 The electronic state is 1-A.
 Alpha  occ. eigenvalues --  -19.72719 -10.71254 -10.65545 -10.63849  -1.18884
 Alpha  occ. eigenvalues --   -0.93282  -0.75626  -0.68330  -0.56816  -0.56454
 Alpha  occ. eigenvalues --   -0.50669  -0.47451  -0.46355  -0.34690  -0.33902
 Alpha virt. eigenvalues --   -0.01823   0.05709   0.07418   0.08057   0.09660
 Alpha virt. eigenvalues --    0.12669   0.14105   0.15317   0.17930   0.19669
 Alpha virt. eigenvalues --    0.20042   0.21438   0.25321   0.26627   0.28843

 Mulliken charges:
               1
     1  C    0.150445
     2  O   -0.355391
     3  C   -0.039782
     4  C   -0.128957
     5  H    0.110864
     6  H    0.083260
     7  H    0.098012
     8  H    0.081549
 Sum of Mulliken charges =   0.00000

 Dipole moment (field-independent basis, Debye):
    X=             -3.5749    Y=              0.7739    Z=              0.1354  Tot=              3.6602
 Quadrupole moment (field-independent basis, Debye-Ang):
   XX=            -27.5363   YY=            -21.6871   ZZ=            -25.1226
   XY=              0.9067   XZ=              0.0016   YZ=             -0.1046

 Normal termination of Gaussian 09 at Wed Aug 26 08:54:21 2020.
