 Gaussian 09, Revision D.01,
 Gaussian 09:  ES64L-G09RevD.01 24-Apr-2013

 --------------------
 #p B2PLYPD3/Def2QZVP
 --------------------

 --------
 acrolein
 --------
 Symbolic Z-matrix:
 Charge =  0 Multiplicity = 1

                         Standard orientation:
 ---------------------------------------------------------------------
 Center     Atomic      Atomic             Coordinates (Angstroms)
 Number     Number       Type             X           Y           Z
 ---------------------------------------------------------------------
      1          6           0       -0.679297   -0.317108   -0.102832
      2          8           0       -1.790722    0.073885    0.078826
      3          6           0        0.541817    0.483162   -0.060716
      4          6           0        1.754779   -0.170945    0.020997
      5          1           0        0.358856    1.707369    0.000308
      6          1           0        1.915485   -1.342730    0.137020
      7          1           0        2.824996    0.457911    0.140979
      8          1           0       -0.477357   -1.384281   -0.053605
 ---------------------------------------------------------------------

 SCF Done:  E(RB2PLYPD3) =  -191.573164817     A.U. after   13 cycles
 E2(B2PLYPD3) =    -0.2503793405D+00 E(B2PLYPD3) =    -0.19182354415756D+03

 The electronic state is 1-A.
 Alpha  occ. eigenvalues --  -19.72722 -10.71028 -10.69179 -10.66884  -1.20608
 Alpha  occ. eigenvalues --   -0.91466  -0.74122  -0.65315  -0.56059  -0.54386
 Alpha  occ. eigenvalues --   -0.49123  -0.47377  -0.44419  -0.34300  -0.33497
 Alpha virt. eigenvalues --   -0.02281   0.04837   0.05854   0.08010   0.09459
 Alpha virt. eigenvalues --    0.11766   0.13988   0.15294   0.16893   0.19092
 Alpha virt. eigenvalues --    0.19840   0.20467   0.24583   0.26602   0.28292

 Mulliken charges:
               1
     1  C    0.174914
     2  O   -0.338417
     3  C   -0.044195
     4  C   -0.127891
     5  H    0.097838
     6  H    0.092322
     7  H    0.091844
     8  H    0.053586
 Sum of Mulliken charges =   0.00000

 Dipole moment (field-independent basis, Debye):
    X=              3.4287    Y=             -0.6545    Z=             -0.0767  Tot=              3.4915
 Quadrupole moment (field-independent basis, Debye-Ang):
   XX=            -27.5251   YY=            -21.7140   ZZ=            -25.7311
   XY=              0.2434   XZ=              0.9608   YZ=             -0.0877

 Normal termination of Gaussian 09 at Wed Aug 26 10:51:15 2020.
