 Gaussian 09, Revision D.01,
 Gaussian 09:  ES64L-G09RevD.01 24-Apr-2013

 --------------------
 #p B2PLYPD3/Def2QZVP
 --------------------

 --------
 acrolein
 --------
 Symbolic Z-matrix:
 Charge =  0 Multiplicity = 1

                         Standard orientation:
 ---------------------------------------------------------------------
 Center     Atomic      Atomic             Coordinates (Angstroms)
 Number     Number       Type             X           Y           Z
 ---------------------------------------------------------------------
      1          6           0       -0.668626    0.340806   -0.002200
      2          8           0       -1.791809   -0.116688   -0.016560
      3          6           0        0.575198   -0.471314    0.005072
      4          6           0        1.744143    0.153975   -0.005371
      5          1           0        0.494024   -1.544690    0.073291
      6          1           0        1.871841    1.243726   -0.091495
      7          1           0        2.616200   -0.395043    0.005993
      8          1           0       -0.551882    1.488706    0.159682
 ---------------------------------------------------------------------

 SCF Done:  E(RB2PLYPD3) =  -191.610874119     A.U. after   13 cycles
 E2(B2PLYPD3) =    -0.2473869817D+00 E(B2PLYPD3) =    -0.19185826110043D+03

 The electronic state is 1-A.
 Alpha  occ. eigenvalues --  -19.72831 -10.72197 -10.64916 -10.64626  -1.19369
 Alpha  occ. eigenvalues --   -0.93144  -0.75185  -0.66289  -0.56809  -0.56208
 Alpha  occ. eigenvalues --   -0.50396  -0.47329  -0.46509  -0.34902  -0.33527
 Alpha virt. eigenvalues --   -0.01512   0.05850   0.06889   0.07896   0.09638
 Alpha virt. eigenvalues --    0.12600   0.14153   0.15261   0.17309   0.19511
 Alpha virt. eigenvalues --    0.20215   0.21774   0.24994   0.26479   0.28464

 Mulliken charges:
               1
     1  C    0.156553
     2  O   -0.343259
     3  C   -0.049480
     4  C   -0.122156
     5  H    0.108212
     6  H    0.087337
     7  H    0.098723
     8  H    0.064069
 Sum of Mulliken charges =   0.00000

 Dipole moment (field-independent basis, Debye):
    X=              3.4997    Y=              0.6678    Z=              0.0786  Tot=              3.5637
 Quadrupole moment (field-independent basis, Debye-Ang):
   XX=            -27.5007   YY=            -21.6582   ZZ=            -25.2163
   XY=             -0.8610   XZ=             -0.1932   YZ=             -0.1560

 Normal termination of Gaussian 09 at Wed Aug 26 08:38:01 2020.
