 Gaussian 09, Revision D.01,
 Gaussian 09:  ES64L-G09RevD.01 24-Apr-2013

 --------------------
 #p B2PLYPD3/Def2QZVP
 --------------------

 --------
 acrolein
 --------
 Symbolic Z-matrix:
 Charge =  0 Multiplicity = 1

                         Standard orientation:
 ---------------------------------------------------------------------
 Center     Atomic      Atomic             Coordinates (Angstroms)
 Number     Number       Type             X           Y           Z
 ---------------------------------------------------------------------
      1          6           0       -0.683677   -0.333041   -0.063867
      2          8           0       -1.796908    0.108107    0.080728
      3          6           0        0.595369    0.476031   -0.100386
      4          6           0        1.764942   -0.188166    0.023420
      5          1           0        0.466097    1.621865   -0.095543
      6          1           0        1.802371   -1.219683   -0.005988
      7          1           0        2.664812    0.398178    0.380850
      8          1           0       -0.617821   -1.394164   -0.080143
 ---------------------------------------------------------------------

 SCF Done:  E(RB2PLYPD3) =  -191.601490006     A.U. after   14 cycles
 E2(B2PLYPD3) =    -0.2478398460D+00 E(B2PLYPD3) =    -0.19184932985165D+03

 The electronic state is 1-A.
 Alpha  occ. eigenvalues --  -19.72618 -10.71351 -10.65943 -10.65682  -1.19694
 Alpha  occ. eigenvalues --   -0.92187  -0.74612  -0.67102  -0.57145  -0.55369
 Alpha  occ. eigenvalues --   -0.50032  -0.47404  -0.46314  -0.34360  -0.33404
 Alpha virt. eigenvalues --   -0.01626   0.05755   0.06893   0.07644   0.09631
 Alpha virt. eigenvalues --    0.12418   0.14040   0.15393   0.17231   0.19194
 Alpha virt. eigenvalues --    0.20178   0.21667   0.24214   0.26451   0.28626

 Mulliken charges:
               1
     1  C    0.152179
     2  O   -0.344752
     3  C   -0.046051
     4  C   -0.133443
     5  H    0.103207
     6  H    0.095777
     7  H    0.098763
     8  H    0.074321
 Sum of Mulliken charges =   0.00000

 Dipole moment (field-independent basis, Debye):
    X=              3.3455    Y=             -0.7818    Z=             -0.0398  Tot=              3.4359
 Quadrupole moment (field-independent basis, Debye-Ang):
   XX=            -27.9741   YY=            -21.5218   ZZ=            -25.2461
   XY=              0.9118   XZ=              1.2778   YZ=              0.1337

 Normal termination of Gaussian 09 at Wed Aug 26 14:59:36 2020.
