 Gaussian 09, Revision D.01,
 Gaussian 09:  ES64L-G09RevD.01 24-Apr-2013

 --------------------
 #p B2PLYPD3/Def2QZVP
 --------------------

 --------
 acrolein
 --------
 Symbolic Z-matrix:
 Charge =  0 Multiplicity = 1

                         Standard orientation:
 ---------------------------------------------------------------------
 Center     Atomic      Atomic             Coordinates (Angstroms)
 Number     Number       Type             X           Y           Z
 ---------------------------------------------------------------------
      1          6           0        0.637164    0.310751    0.056575
      2          8           0        1.812637   -0.088700   -0.063770
      3          6           0       -0.568959   -0.433460    0.108663
      4          6           0       -1.737433    0.137634   -0.034243
      5          1           0       -0.406680   -1.624745   -0.087784
      6          1           0       -1.874245    1.219100   -0.155893
      7          1           0       -2.602577   -0.423106   -0.135759
      8          1           0        0.397768    1.448805    0.103624
 ---------------------------------------------------------------------

 SCF Done:  E(RB2PLYPD3) =  -191.592363578     A.U. after   13 cycles
 E2(B2PLYPD3) =    -0.2502460952D+00 E(B2PLYPD3) =    -0.19184260967372D+03

 The electronic state is 1-A.
 Alpha  occ. eigenvalues --  -19.73055 -10.72250 -10.65815 -10.65509  -1.17345
 Alpha  occ. eigenvalues --   -0.94743  -0.77261  -0.65000  -0.57511  -0.55743
 Alpha  occ. eigenvalues --   -0.50136  -0.46331  -0.45014  -0.35437  -0.33778
 Alpha virt. eigenvalues --   -0.02841   0.05560   0.06134   0.08272   0.09730
 Alpha virt. eigenvalues --    0.12638   0.13414   0.15056   0.16948   0.19381
 Alpha virt. eigenvalues --    0.20076   0.21986   0.24763   0.26312   0.28450

 Mulliken charges:
               1
     1  C    0.162462
     2  O   -0.365282
     3  C   -0.018417
     4  C   -0.100897
     5  H    0.087892
     6  H    0.085022
     7  H    0.106977
     8  H    0.042245
 Sum of Mulliken charges =   0.00000

 Dipole moment (field-independent basis, Debye):
    X=             -3.9552    Y=              0.6103    Z=             -0.0886  Tot=              4.0030
 Quadrupole moment (field-independent basis, Debye-Ang):
   XX=            -27.4637   YY=            -22.1563   ZZ=            -25.2004
   XY=              0.3897   XZ=              0.9362   YZ=              0.1216

 Normal termination of Gaussian 09 at Wed Aug 26 13:47:26 2020.
