 Gaussian 09, Revision D.01,
 Gaussian 09:  ES64L-G09RevD.01 24-Apr-2013

 --------------------
 #p B2PLYPD3/Def2QZVP
 --------------------

 --------
 acrolein
 --------
 Symbolic Z-matrix:
 Charge =  0 Multiplicity = 1

                         Standard orientation:
 ---------------------------------------------------------------------
 Center     Atomic      Atomic             Coordinates (Angstroms)
 Number     Number       Type             X           Y           Z
 ---------------------------------------------------------------------
      1          6           0       -0.679071    0.332898    0.034383
      2          8           0       -1.787860   -0.109100   -0.040758
      3          6           0        0.569195   -0.458471    0.039638
      4          6           0        1.751340    0.165884   -0.020392
      5          1           0        0.486903   -1.525190    0.011456
      6          1           0        1.854155    1.254084   -0.121751
      7          1           0        2.696841   -0.438168   -0.023439
      8          1           0       -0.583800    1.340206    0.138018
 ---------------------------------------------------------------------

 SCF Done:  E(RB2PLYPD3) =  -191.609877790     A.U. after   13 cycles
 E2(B2PLYPD3) =    -0.2459880417D+00 E(B2PLYPD3) =    -0.19185586583168D+03

 The electronic state is 1-A.
 Alpha  occ. eigenvalues --  -19.72406 -10.70304 -10.66006 -10.64346  -1.20212
 Alpha  occ. eigenvalues --   -0.92692  -0.75229  -0.68130  -0.57286  -0.55868
 Alpha  occ. eigenvalues --   -0.50581  -0.47054  -0.46831  -0.34592  -0.33671
 Alpha virt. eigenvalues --   -0.01473   0.05662   0.07324   0.08273   0.09623
 Alpha virt. eigenvalues --    0.12609   0.14063   0.15448   0.17875   0.19191
 Alpha virt. eigenvalues --    0.20151   0.21367   0.25292   0.26546   0.28692

 Mulliken charges:
               1
     1  C    0.154371
     2  O   -0.345343
     3  C   -0.048637
     4  C   -0.131134
     5  H    0.106611
     6  H    0.088739
     7  H    0.096062
     8  H    0.079332
 Sum of Mulliken charges =   0.00000

 Dipole moment (field-independent basis, Debye):
    X=              3.4172    Y=              0.7803    Z=              0.0667  Tot=              3.5058
 Quadrupole moment (field-independent basis, Debye-Ang):
   XX=            -27.5491   YY=            -21.5838   ZZ=            -25.1526
   XY=             -0.9549   XZ=             -0.4794   YZ=             -0.0959

 Normal termination of Gaussian 09 at Wed Aug 26 09:19:27 2020.
