 Gaussian 09, Revision D.01,
 Gaussian 09:  ES64L-G09RevD.01 24-Apr-2013

 --------------------
 #p B2PLYPD3/Def2QZVP
 --------------------

 --------
 acrolein
 --------
 Symbolic Z-matrix:
 Charge =  0 Multiplicity = 1

                         Standard orientation:
 ---------------------------------------------------------------------
 Center     Atomic      Atomic             Coordinates (Angstroms)
 Number     Number       Type             X           Y           Z
 ---------------------------------------------------------------------
      1          6           0        0.675400    0.349288    0.021969
      2          8           0        1.785449   -0.156666   -0.037765
      3          6           0       -0.573830   -0.388037    0.031337
      4          6           0       -1.742586    0.144144   -0.059728
      5          1           0       -0.495918   -1.408890    0.138647
      6          1           0       -1.701304    1.050273   -0.009869
      7          1           0       -2.751888   -0.484255    0.037574
      8          1           0        0.511612    1.463829    0.174297
 ---------------------------------------------------------------------

 SCF Done:  E(RB2PLYPD3) =  -191.569956388     A.U. after   12 cycles
 E2(B2PLYPD3) =    -0.2470095119D+00 E(B2PLYPD3) =    -0.19181696589995D+03

 The electronic state is 1-A.
 Alpha  occ. eigenvalues --  -19.73343 -10.72202 -10.63790 -10.62806  -1.19232
 Alpha  occ. eigenvalues --   -0.95347  -0.76333  -0.68438  -0.57717  -0.55836
 Alpha  occ. eigenvalues --   -0.50718  -0.47612  -0.46161  -0.35557  -0.34102
 Alpha virt. eigenvalues --   -0.01848   0.05639   0.06981   0.08548   0.09953
 Alpha virt. eigenvalues --    0.12475   0.13698   0.15207   0.17745   0.19453
 Alpha virt. eigenvalues --    0.20842   0.21621   0.25637   0.26202   0.28917

 Mulliken charges:
               1
     1  C    0.139839
     2  O   -0.347258
     3  C    0.000554
     4  C   -0.152265
     5  H    0.096902
     6  H    0.099028
     7  H    0.102574
     8  H    0.060627
 Sum of Mulliken charges =   0.00000

 Dipole moment (field-independent basis, Debye):
    X=             -3.4323    Y=              0.7785    Z=              0.3102  Tot=              3.5331
 Quadrupole moment (field-independent basis, Debye-Ang):
   XX=            -27.2942   YY=            -22.1622   ZZ=            -24.8748
   XY=              1.4267   XZ=              0.0039   YZ=             -0.1225

 Normal termination of Gaussian 09 at Wed Aug 26 11:59:34 2020.
