 Gaussian 09, Revision D.01,
 Gaussian 09:  ES64L-G09RevD.01 24-Apr-2013

 --------------------
 #p B2PLYPD3/Def2QZVP
 --------------------

 --------
 acrolein
 --------
 Symbolic Z-matrix:
 Charge =  0 Multiplicity = 1

                         Standard orientation:
 ---------------------------------------------------------------------
 Center     Atomic      Atomic             Coordinates (Angstroms)
 Number     Number       Type             X           Y           Z
 ---------------------------------------------------------------------
      1          6           0       -0.668825    0.342058   -0.027180
      2          8           0       -1.796287   -0.124786    0.030697
      3          6           0        0.561996   -0.446959   -0.035226
      4          6           0        1.753218    0.132560    0.028772
      5          1           0        0.474674   -1.474202   -0.086786
      6          1           0        1.850888    1.196089   -0.085674
      7          1           0        2.653902   -0.407642    0.130731
      8          1           0       -0.487505    1.518093   -0.002040
 ---------------------------------------------------------------------

 SCF Done:  E(RB2PLYPD3) =  -191.609179961     A.U. after   13 cycles
 E2(B2PLYPD3) =    -0.2479557329D+00 E(B2PLYPD3) =    -0.19185713569417D+03

 The electronic state is 1-A.
 Alpha  occ. eigenvalues --  -19.73107 -10.72548 -10.65165 -10.63987  -1.19011
 Alpha  occ. eigenvalues --   -0.93606  -0.75786  -0.66800  -0.57076  -0.56015
 Alpha  occ. eigenvalues --   -0.50487  -0.47774  -0.46415  -0.34797  -0.33784
 Alpha virt. eigenvalues --   -0.02044   0.05763   0.07130   0.08067   0.09745
 Alpha virt. eigenvalues --    0.12546   0.13842   0.15289   0.17481   0.19737
 Alpha virt. eigenvalues --    0.20255   0.21625   0.25088   0.26445   0.28707

 Mulliken charges:
               1
     1  C    0.160108
     2  O   -0.348545
     3  C   -0.032157
     4  C   -0.124123
     5  H    0.107059
     6  H    0.085073
     7  H    0.101254
     8  H    0.051332
 Sum of Mulliken charges =   0.00000

 Dipole moment (field-independent basis, Debye):
    X=              3.6041    Y=              0.6460    Z=             -0.1338  Tot=              3.6640
 Quadrupole moment (field-independent basis, Debye-Ang):
   XX=            -27.2789   YY=            -21.9848   ZZ=            -25.1507
   XY=             -0.8853   XZ=              0.2821   YZ=             -0.0632

 Normal termination of Gaussian 09 at Wed Aug 26 08:55:20 2020.
