 Gaussian 09, Revision D.01,
 Gaussian 09:  ES64L-G09RevD.01 24-Apr-2013

 --------------------
 #p B2PLYPD3/Def2QZVP
 --------------------

 --------
 acrolein
 --------
 Symbolic Z-matrix:
 Charge =  0 Multiplicity = 1

                         Standard orientation:
 ---------------------------------------------------------------------
 Center     Atomic      Atomic             Coordinates (Angstroms)
 Number     Number       Type             X           Y           Z
 ---------------------------------------------------------------------
      1          6           0       -0.679697    0.393923   -0.067041
      2          8           0       -1.752753   -0.169039    0.043267
      3          6           0        0.554423   -0.437695   -0.064352
      4          6           0        1.728692    0.132156    0.043040
      5          1           0        0.526500   -1.462768    0.025543
      6          1           0        1.766332    1.122691   -0.090928
      7          1           0        2.712632   -0.358670    0.120218
      8          1           0       -0.603955    1.520756    0.129148
 ---------------------------------------------------------------------

 SCF Done:  E(RB2PLYPD3) =  -191.598974131     A.U. after   13 cycles
 E2(B2PLYPD3) =    -0.2470453148D+00 E(B2PLYPD3) =    -0.19184601944618D+03

 The electronic state is 1-A.
 Alpha  occ. eigenvalues --  -19.72907 -10.72427 -10.63728 -10.63466  -1.19428
 Alpha  occ. eigenvalues --   -0.93486  -0.74663  -0.67859  -0.57384  -0.56268
 Alpha  occ. eigenvalues --   -0.50395  -0.46864  -0.46662  -0.34819  -0.33822
 Alpha virt. eigenvalues --   -0.01260   0.05900   0.06901   0.07579   0.09859
 Alpha virt. eigenvalues --    0.12412   0.14447   0.15218   0.17789   0.19361
 Alpha virt. eigenvalues --    0.20691   0.21633   0.24465   0.26693   0.28890

 Mulliken charges:
               1
     1  C    0.150945
     2  O   -0.340980
     3  C   -0.051830
     4  C   -0.121187
     5  H    0.114554
     6  H    0.075929
     7  H    0.089871
     8  H    0.082697
 Sum of Mulliken charges =   0.00000

 Dipole moment (field-independent basis, Debye):
    X=              3.2635    Y=              0.9585    Z=             -0.0689  Tot=              3.4020
 Quadrupole moment (field-independent basis, Debye-Ang):
   XX=            -27.1896   YY=            -21.7406   ZZ=            -25.0363
   XY=             -1.4533   XZ=              0.3486   YZ=             -0.1479

 Normal termination of Gaussian 09 at Wed Aug 26 14:36:22 2020.
