 Gaussian 09, Revision D.01,
 Gaussian 09:  ES64L-G09RevD.01 24-Apr-2013

 --------------------
 #p B2PLYPD3/Def2QZVP
 --------------------

 --------
 acrolein
 --------
 Symbolic Z-matrix:
 Charge =  0 Multiplicity = 1

                         Standard orientation:
 ---------------------------------------------------------------------
 Center     Atomic      Atomic             Coordinates (Angstroms)
 Number     Number       Type             X           Y           Z
 ---------------------------------------------------------------------
      1          6           0       -0.668273    0.343858    0.018721
      2          8           0       -1.784389   -0.121102   -0.015395
      3          6           0        0.547574   -0.432729    0.007830
      4          6           0        1.757331    0.137704   -0.014357
      5          1           0        0.427591   -1.539425    0.002330
      6          1           0        1.823715    1.195000   -0.076559
      7          1           0        2.692116   -0.441274    0.056668
      8          1           0       -0.488105    1.461514    0.067555
 ---------------------------------------------------------------------

 SCF Done:  E(RB2PLYPD3) =  -191.614194843     A.U. after   12 cycles
 E2(B2PLYPD3) =    -0.2476120996D+00 E(B2PLYPD3) =    -0.19186180694262D+03

 The electronic state is 1-A.
 Alpha  occ. eigenvalues --  -19.72861 -10.71636 -10.65732 -10.64565  -1.19633
 Alpha  occ. eigenvalues --   -0.93230  -0.75852  -0.66398  -0.56600  -0.56323
 Alpha  occ. eigenvalues --   -0.50512  -0.46997  -0.46599  -0.34652  -0.33884
 Alpha virt. eigenvalues --   -0.02117   0.05733   0.06936   0.08473   0.09806
 Alpha virt. eigenvalues --    0.12541   0.13894   0.15369   0.17242   0.19684
 Alpha virt. eigenvalues --    0.20100   0.21579   0.25510   0.26425   0.28801

 Mulliken charges:
               1
     1  C    0.155836
     2  O   -0.347368
     3  C   -0.026427
     4  C   -0.132555
     5  H    0.099389
     6  H    0.086579
     7  H    0.106288
     8  H    0.058259
 Sum of Mulliken charges =   0.00000

 Dipole moment (field-independent basis, Debye):
    X=              3.5497    Y=              0.7139    Z=              0.0609  Tot=              3.6213
 Quadrupole moment (field-independent basis, Debye-Ang):
   XX=            -27.2746   YY=            -21.9242   ZZ=            -25.2292
   XY=             -0.9045   XZ=             -0.0491   YZ=             -0.1003

 Normal termination of Gaussian 09 at Wed Aug 26 09:10:08 2020.
