 Gaussian 09, Revision D.01,
 Gaussian 09:  ES64L-G09RevD.01 24-Apr-2013

 --------------------
 #p B2PLYPD3/Def2QZVP
 --------------------

 --------
 acrolein
 --------
 Symbolic Z-matrix:
 Charge =  0 Multiplicity = 1

                         Standard orientation:
 ---------------------------------------------------------------------
 Center     Atomic      Atomic             Coordinates (Angstroms)
 Number     Number       Type             X           Y           Z
 ---------------------------------------------------------------------
      1          6           0        0.677980    0.357150   -0.008172
      2          8           0        1.793215   -0.125198    0.020413
      3          6           0       -0.546374   -0.446252   -0.046035
      4          6           0       -1.761055    0.136695    0.003710
      5          1           0       -0.436372   -1.561909    0.040826
      6          1           0       -1.867056    1.215782    0.055221
      7          1           0       -2.783793   -0.412663    0.082678
      8          1           0        0.518196    1.474811   -0.039053
 ---------------------------------------------------------------------

 SCF Done:  E(RB2PLYPD3) =  -191.608438814     A.U. after   13 cycles
 E2(B2PLYPD3) =    -0.2487201368D+00 E(B2PLYPD3) =    -0.19185715895107D+03

 The electronic state is 1-A.
 Alpha  occ. eigenvalues --  -19.72918 -10.72021 -10.66701 -10.65211  -1.19338
 Alpha  occ. eigenvalues --   -0.92436  -0.74968  -0.66335  -0.56563  -0.55390
 Alpha  occ. eigenvalues --   -0.50116  -0.46759  -0.45787  -0.34477  -0.33969
 Alpha virt. eigenvalues --   -0.02102   0.05477   0.06862   0.08012   0.09604
 Alpha virt. eigenvalues --    0.12195   0.14008   0.15337   0.17363   0.19663
 Alpha virt. eigenvalues --    0.19983   0.21091   0.25180   0.26217   0.28798

 Mulliken charges:
               1
     1  C    0.157518
     2  O   -0.347639
     3  C   -0.040767
     4  C   -0.122523
     5  H    0.105677
     6  H    0.081112
     7  H    0.096523
     8  H    0.070098
 Sum of Mulliken charges =   0.00000

 Dipole moment (field-independent basis, Debye):
    X=             -3.5256    Y=              0.8053    Z=              0.0894  Tot=              3.6175
 Quadrupole moment (field-independent basis, Debye-Ang):
   XX=            -27.2691   YY=            -21.8726   ZZ=            -25.4261
   XY=              0.8534   XZ=             -0.4346   YZ=             -0.0799

 Normal termination of Gaussian 09 at Wed Aug 26 21:10:48 2020.
