 Gaussian 09, Revision D.01,
 Gaussian 09:  ES64L-G09RevD.01 24-Apr-2013

 --------------------
 #p B2PLYPD3/Def2QZVP
 --------------------

 --------
 acrolein
 --------
 Symbolic Z-matrix:
 Charge =  0 Multiplicity = 1

                         Standard orientation:
 ---------------------------------------------------------------------
 Center     Atomic      Atomic             Coordinates (Angstroms)
 Number     Number       Type             X           Y           Z
 ---------------------------------------------------------------------
      1          6           0        0.707023    0.373155   -0.054619
      2          8           0        1.751718   -0.152052    0.060813
      3          6           0       -0.515617   -0.435038   -0.077294
      4          6           0       -1.759966    0.141369    0.003000
      5          1           0       -0.397237   -1.460637   -0.010380
      6          1           0       -1.727996    1.114797    0.103575
      7          1           0       -2.931992   -0.456852    0.218862
      8          1           0        0.454841    1.542201   -0.025080
 ---------------------------------------------------------------------

 SCF Done:  E(RB2PLYPD3) =  -191.564059484     A.U. after   13 cycles
 E2(B2PLYPD3) =    -0.2487344214D+00 E(B2PLYPD3) =    -0.19181279390497D+03

 The electronic state is 1-A.
 Alpha  occ. eigenvalues --  -19.73443 -10.72382 -10.66866 -10.64133  -1.22408
 Alpha  occ. eigenvalues --   -0.92218  -0.74521  -0.67148  -0.56652  -0.55457
 Alpha  occ. eigenvalues --   -0.49558  -0.48516  -0.46138  -0.34104  -0.33748
 Alpha virt. eigenvalues --   -0.01830   0.04697   0.06874   0.08096   0.09709
 Alpha virt. eigenvalues --    0.11834   0.13516   0.15444   0.17711   0.19238
 Alpha virt. eigenvalues --    0.20070   0.21239   0.24759   0.25509   0.28442

 Mulliken charges:
               1
     1  C    0.157629
     2  O   -0.319665
     3  C   -0.037739
     4  C   -0.147122
     5  H    0.112248
     6  H    0.092773
     7  H    0.093749
     8  H    0.048128
 Sum of Mulliken charges =   0.00000

 Dipole moment (field-independent basis, Debye):
    X=             -3.0534    Y=              0.7502    Z=              0.0772  Tot=              3.1451
 Quadrupole moment (field-independent basis, Debye-Ang):
   XX=            -26.8673   YY=            -22.2931   ZZ=            -25.4101
   XY=              1.0518   XZ=             -1.0156   YZ=             -0.0200

 Normal termination of Gaussian 09 at Wed Aug 26 11:23:22 2020.
