 Gaussian 09, Revision D.01,
 Gaussian 09:  ES64L-G09RevD.01 24-Apr-2013

 --------------------
 #p B2PLYPD3/Def2QZVP
 --------------------

 --------
 acrolein
 --------
 Symbolic Z-matrix:
 Charge =  0 Multiplicity = 1

                         Standard orientation:
 ---------------------------------------------------------------------
 Center     Atomic      Atomic             Coordinates (Angstroms)
 Number     Number       Type             X           Y           Z
 ---------------------------------------------------------------------
      1          6           0       -0.650996    0.328912   -0.024365
      2          8           0       -1.802124   -0.095360    0.028942
      3          6           0        0.573947   -0.475129   -0.034563
      4          6           0        1.752550    0.144656    0.012386
      5          1           0        0.427280   -1.562214   -0.050015
      6          1           0        1.876580    1.296346   -0.016762
      7          1           0        2.522701   -0.422066    0.139570
      8          1           0       -0.462577    1.460181   -0.025076
 ---------------------------------------------------------------------

 SCF Done:  E(RB2PLYPD3) =  -191.597593495     A.U. after   13 cycles
 E2(B2PLYPD3) =    -0.2485060247D+00 E(B2PLYPD3) =    -0.19184609951974D+03

 The electronic state is 1-A.
 Alpha  occ. eigenvalues --  -19.72815 -10.71959 -10.65261 -10.64849  -1.18362
 Alpha  occ. eigenvalues --   -0.93643  -0.76417  -0.66004  -0.57450  -0.55390
 Alpha  occ. eigenvalues --   -0.50247  -0.47530  -0.46140  -0.34829  -0.33622
 Alpha virt. eigenvalues --   -0.02057   0.05629   0.06958   0.08044   0.09670
 Alpha virt. eigenvalues --    0.12482   0.13871   0.15225   0.17092   0.19433
 Alpha virt. eigenvalues --    0.20008   0.22308   0.25039   0.26612   0.28373

 Mulliken charges:
               1
     1  C    0.162362
     2  O   -0.357753
     3  C   -0.037789
     4  C   -0.127648
     5  H    0.102332
     6  H    0.093056
     7  H    0.109387
     8  H    0.056053
 Sum of Mulliken charges =   0.00000

 Dipole moment (field-independent basis, Debye):
    X=              3.6725    Y=              0.5977    Z=             -0.0362  Tot=              3.7210
 Quadrupole moment (field-independent basis, Debye-Ang):
   XX=            -27.8407   YY=            -21.5611   ZZ=            -25.2331
   XY=             -0.5890   XZ=              0.4286   YZ=             -0.0532

 Normal termination of Gaussian 09 at Wed Aug 26 08:50:59 2020.
