 Gaussian 09, Revision D.01,
 Gaussian 09:  ES64L-G09RevD.01 24-Apr-2013

 --------------------
 #p B2PLYPD3/Def2QZVP
 --------------------

 --------
 acrolein
 --------
 Symbolic Z-matrix:
 Charge =  0 Multiplicity = 1

                         Standard orientation:
 ---------------------------------------------------------------------
 Center     Atomic      Atomic             Coordinates (Angstroms)
 Number     Number       Type             X           Y           Z
 ---------------------------------------------------------------------
      1          6           0       -0.673970    0.336264    0.016584
      2          8           0       -1.763895   -0.131963   -0.038388
      3          6           0        0.527046   -0.438541    0.043047
      4          6           0        1.738377    0.142934   -0.067254
      5          1           0        0.497148   -1.449712    0.137178
      6          1           0        1.708899    1.225885    0.054737
      7          1           0        2.871914   -0.427091    0.003523
      8          1           0       -0.515516    1.462677    0.157403
 ---------------------------------------------------------------------

 SCF Done:  E(RB2PLYPD3) =  -191.587312044     A.U. after   13 cycles
 E2(B2PLYPD3) =    -0.2479694091D+00 E(B2PLYPD3) =    -0.19183528145279D+03

 The electronic state is 1-A.
 Alpha  occ. eigenvalues --  -19.72818 -10.71492 -10.67440 -10.63621  -1.21126
 Alpha  occ. eigenvalues --   -0.93290  -0.74425  -0.67449  -0.56794  -0.55466
 Alpha  occ. eigenvalues --   -0.50140  -0.47682  -0.45855  -0.34551  -0.33868
 Alpha virt. eigenvalues --   -0.02006   0.05105   0.06852   0.08571   0.09593
 Alpha virt. eigenvalues --    0.12034   0.13935   0.15248   0.18061   0.19486
 Alpha virt. eigenvalues --    0.20094   0.20314   0.25286   0.25654   0.28663

 Mulliken charges:
               1
     1  C    0.148321
     2  O   -0.331186
     3  C   -0.026425
     4  C   -0.124506
     5  H    0.108265
     6  H    0.078270
     7  H    0.092321
     8  H    0.054939
 Sum of Mulliken charges =   0.00000

 Dipole moment (field-independent basis, Debye):
    X=              3.3604    Y=              0.6484    Z=              0.3218  Tot=              3.4375
 Quadrupole moment (field-independent basis, Debye-Ang):
   XX=            -27.0146   YY=            -22.2184   ZZ=            -25.2713
   XY=             -1.2687   XZ=             -0.0029   YZ=             -0.0364

 Normal termination of Gaussian 09 at Wed Aug 26 11:33:44 2020.
