 Gaussian 09, Revision D.01,
 Gaussian 09:  ES64L-G09RevD.01 24-Apr-2013

 --------------------
 #p B2PLYPD3/Def2QZVP
 --------------------

 --------
 acrolein
 --------
 Symbolic Z-matrix:
 Charge =  0 Multiplicity = 1

                         Standard orientation:
 ---------------------------------------------------------------------
 Center     Atomic      Atomic             Coordinates (Angstroms)
 Number     Number       Type             X           Y           Z
 ---------------------------------------------------------------------
      1          6           0       -0.672910    0.340006   -0.000909
      2          8           0       -1.786043   -0.099055    0.005685
      3          6           0        0.546614   -0.467037    0.002014
      4          6           0        1.744204    0.128252   -0.013518
      5          1           0        0.473969   -1.555569    0.070797
      6          1           0        1.920374    1.353223    0.212328
      7          1           0        2.620519   -0.420988   -0.111036
      8          1           0       -0.433968    1.408453   -0.143091
 ---------------------------------------------------------------------

 SCF Done:  E(RB2PLYPD3) =  -191.596255454     A.U. after   13 cycles
 E2(B2PLYPD3) =    -0.2477563127D+00 E(B2PLYPD3) =    -0.19184401176684D+03

 The electronic state is 1-A.
 Alpha  occ. eigenvalues --  -19.72827 -10.71293 -10.66731 -10.64519  -1.20346
 Alpha  occ. eigenvalues --   -0.92840  -0.75417  -0.66172  -0.56972  -0.55178
 Alpha  occ. eigenvalues --   -0.50954  -0.47338  -0.45451  -0.34515  -0.33777
 Alpha virt. eigenvalues --   -0.01814   0.05169   0.07015   0.07989   0.09585
 Alpha virt. eigenvalues --    0.12288   0.14034   0.15398   0.17513   0.18798
 Alpha virt. eigenvalues --    0.20131   0.21589   0.24618   0.26810   0.28384

 Mulliken charges:
               1
     1  C    0.166052
     2  O   -0.339346
     3  C   -0.049378
     4  C   -0.126290
     5  H    0.101712
     6  H    0.074831
     7  H    0.106050
     8  H    0.066369
 Sum of Mulliken charges =   0.00000

 Dipole moment (field-independent basis, Debye):
    X=              3.4796    Y=              0.5873    Z=              0.0773  Tot=              3.5296
 Quadrupole moment (field-independent basis, Debye-Ang):
   XX=            -27.4667   YY=            -21.8115   ZZ=            -25.2471
   XY=             -0.7793   XZ=              0.1343   YZ=              0.1792

 Normal termination of Gaussian 09 at Wed Aug 26 10:54:54 2020.
