 Gaussian 09, Revision D.01,
 Gaussian 09:  ES64L-G09RevD.01 24-Apr-2013

 --------------------
 #p B2PLYPD3/Def2QZVP
 --------------------

 --------
 acrolein
 --------
 Symbolic Z-matrix:
 Charge =  0 Multiplicity = 1

                         Standard orientation:
 ---------------------------------------------------------------------
 Center     Atomic      Atomic             Coordinates (Angstroms)
 Number     Number       Type             X           Y           Z
 ---------------------------------------------------------------------
      1          6           0        0.681220    0.361224   -0.016603
      2          8           0        1.779333   -0.132914    0.019393
      3          6           0       -0.548391   -0.433634   -0.013842
      4          6           0       -1.764585    0.129944    0.003291
      5          1           0       -0.445816   -1.488730   -0.004464
      6          1           0       -1.861817    1.212079    0.108784
      7          1           0       -2.659244   -0.451754   -0.010095
      8          1           0        0.522751    1.446510   -0.086441
 ---------------------------------------------------------------------

 SCF Done:  E(RB2PLYPD3) =  -191.616311596     A.U. after   12 cycles
 E2(B2PLYPD3) =    -0.2467521353D+00 E(B2PLYPD3) =    -0.19186306373150D+03

 The electronic state is 1-A.
 Alpha  occ. eigenvalues --  -19.72819 -10.71420 -10.65396 -10.64027  -1.19939
 Alpha  occ. eigenvalues --   -0.92798  -0.75654  -0.67254  -0.56599  -0.56585
 Alpha  occ. eigenvalues --   -0.50818  -0.47059  -0.46909  -0.34443  -0.33929
 Alpha virt. eigenvalues --   -0.01812   0.05772   0.07336   0.08238   0.09777
 Alpha virt. eigenvalues --    0.12563   0.13962   0.15448   0.17705   0.19451
 Alpha virt. eigenvalues --    0.20102   0.21708   0.25417   0.26483   0.28691

 Mulliken charges:
               1
     1  C    0.155978
     2  O   -0.345441
     3  C   -0.043832
     4  C   -0.133742
     5  H    0.106745
     6  H    0.081865
     7  H    0.103622
     8  H    0.074805
 Sum of Mulliken charges =   0.00000

 Dipole moment (field-independent basis, Debye):
    X=             -3.4193    Y=              0.7937    Z=             -0.0107  Tot=              3.5102
 Quadrupole moment (field-independent basis, Debye-Ang):
   XX=            -27.3288   YY=            -21.7655   ZZ=            -25.1721
   XY=              1.0641   XZ=             -0.2479   YZ=              0.1044

 Normal termination of Gaussian 09 at Wed Aug 26 16:38:15 2020.
