 Gaussian 09, Revision D.01,
 Gaussian 09:  ES64L-G09RevD.01 24-Apr-2013

 --------------------
 #p B2PLYPD3/Def2QZVP
 --------------------

 --------
 acrolein
 --------
 Symbolic Z-matrix:
 Charge =  0 Multiplicity = 1

                         Standard orientation:
 ---------------------------------------------------------------------
 Center     Atomic      Atomic             Coordinates (Angstroms)
 Number     Number       Type             X           Y           Z
 ---------------------------------------------------------------------
      1          6           0        0.672113    0.348800   -0.026134
      2          8           0        1.779633   -0.123987    0.024352
      3          6           0       -0.547511   -0.442335   -0.008401
      4          6           0       -1.756013    0.129571    0.004668
      5          1           0       -0.448915   -1.514829   -0.043134
      6          1           0       -1.852673    1.207775    0.086258
      7          1           0       -2.657754   -0.402484    0.015555
      8          1           0        0.510746    1.485213   -0.074290
 ---------------------------------------------------------------------

 SCF Done:  E(RB2PLYPD3) =  -191.615101098     A.U. after   12 cycles
 E2(B2PLYPD3) =    -0.2470719589D+00 E(B2PLYPD3) =    -0.19186217305726D+03

 The electronic state is 1-A.
 Alpha  occ. eigenvalues --  -19.72859 -10.71811 -10.65225 -10.64316  -1.19922
 Alpha  occ. eigenvalues --   -0.93087  -0.75847  -0.66542  -0.57018  -0.56336
 Alpha  occ. eigenvalues --   -0.50751  -0.47103  -0.46833  -0.34629  -0.33841
 Alpha virt. eigenvalues --   -0.01886   0.05808   0.07152   0.08347   0.09755
 Alpha virt. eigenvalues --    0.12594   0.14105   0.15346   0.17394   0.19720
 Alpha virt. eigenvalues --    0.20077   0.21758   0.25410   0.26345   0.28789

 Mulliken charges:
               1
     1  C    0.156684
     2  O   -0.342895
     3  C   -0.035996
     4  C   -0.126736
     5  H    0.104433
     6  H    0.080077
     7  H    0.103221
     8  H    0.061212
 Sum of Mulliken charges =   0.00000

 Dipole moment (field-independent basis, Debye):
    X=             -3.4939    Y=              0.7030    Z=             -0.0584  Tot=              3.5644
 Quadrupole moment (field-independent basis, Debye-Ang):
   XX=            -27.1621   YY=            -21.8954   ZZ=            -25.1824
   XY=              0.9138   XZ=             -0.2673   YZ=              0.1294

 Normal termination of Gaussian 09 at Wed Aug 26 19:12:00 2020.
