 Gaussian 09, Revision D.01,
 Gaussian 09:  ES64L-G09RevD.01 24-Apr-2013

 --------------------
 #p B2PLYPD3/Def2QZVP
 --------------------

 --------
 acrolein
 --------
 Symbolic Z-matrix:
 Charge =  0 Multiplicity = 1

                         Standard orientation:
 ---------------------------------------------------------------------
 Center     Atomic      Atomic             Coordinates (Angstroms)
 Number     Number       Type             X           Y           Z
 ---------------------------------------------------------------------
      1          6           0        0.674168    0.364519    0.029365
      2          8           0        1.790903   -0.129360   -0.023667
      3          6           0       -0.555539   -0.449477    0.011425
      4          6           0       -1.760479    0.134609   -0.018950
      5          1           0       -0.435483   -1.510304    0.035215
      6          1           0       -1.847592    1.234775   -0.051394
      7          1           0       -2.683015   -0.450706    0.018248
      8          1           0        0.489964    1.463209    0.056226
 ---------------------------------------------------------------------

 SCF Done:  E(RB2PLYPD3) =  -191.615053543     A.U. after   12 cycles
 E2(B2PLYPD3) =    -0.2480809677D+00 E(B2PLYPD3) =    -0.19186313451054D+03

 The electronic state is 1-A.
 Alpha  occ. eigenvalues --  -19.72965 -10.71959 -10.65870 -10.64362  -1.18920
 Alpha  occ. eigenvalues --   -0.92753  -0.75240  -0.67029  -0.56262  -0.56072
 Alpha  occ. eigenvalues --   -0.50473  -0.46879  -0.46429  -0.34521  -0.33955
 Alpha virt. eigenvalues --   -0.01927   0.05645   0.07158   0.07933   0.09748
 Alpha virt. eigenvalues --    0.12435   0.13810   0.15373   0.17580   0.19520
 Alpha virt. eigenvalues --    0.19990   0.21516   0.25398   0.26473   0.28784

 Mulliken charges:
               1
     1  C    0.158169
     2  O   -0.353224
     3  C   -0.042468
     4  C   -0.132086
     5  H    0.109040
     6  H    0.082661
     7  H    0.102543
     8  H    0.075366
 Sum of Mulliken charges =   0.00000

 Dipole moment (field-independent basis, Debye):
    X=             -3.4959    Y=              0.7961    Z=              0.1108  Tot=              3.5871
 Quadrupole moment (field-independent basis, Debye-Ang):
   XX=            -27.5762   YY=            -21.6695   ZZ=            -25.3084
   XY=              0.9737   XZ=              0.1241   YZ=             -0.0936

 Normal termination of Gaussian 09 at Wed Aug 26 15:06:32 2020.
