 Gaussian 09, Revision D.01,
 Gaussian 09:  ES64L-G09RevD.01 24-Apr-2013

 --------------------
 #p B2PLYPD3/Def2QZVP
 --------------------

 --------
 acrolein
 --------
 Symbolic Z-matrix:
 Charge =  0 Multiplicity = 1

                         Standard orientation:
 ---------------------------------------------------------------------
 Center     Atomic      Atomic             Coordinates (Angstroms)
 Number     Number       Type             X           Y           Z
 ---------------------------------------------------------------------
      1          6           0       -0.664523    0.330166    0.013726
      2          8           0       -1.789398   -0.105887   -0.020133
      3          6           0        0.556741   -0.464629    0.025928
      4          6           0        1.753137    0.152962   -0.019330
      5          1           0        0.440118   -1.514625    0.028588
      6          1           0        1.829835    1.221921    0.003593
      7          1           0        2.699902   -0.397808   -0.040989
      8          1           0       -0.526796    1.426612    0.047931
 ---------------------------------------------------------------------

 SCF Done:  E(RB2PLYPD3) =  -191.616066120     A.U. after   13 cycles
 E2(B2PLYPD3) =    -0.2470234909D+00 E(B2PLYPD3) =    -0.19186308961062D+03

 The electronic state is 1-A.
 Alpha  occ. eigenvalues --  -19.72569 -10.71226 -10.65918 -10.64428  -1.19600
 Alpha  occ. eigenvalues --   -0.93027  -0.75565  -0.67357  -0.56706  -0.56365
 Alpha  occ. eigenvalues --   -0.50415  -0.47538  -0.46812  -0.34548  -0.33670
 Alpha virt. eigenvalues --   -0.01941   0.05733   0.07256   0.08323   0.09701
 Alpha virt. eigenvalues --    0.12583   0.14067   0.15334   0.17585   0.19892
 Alpha virt. eigenvalues --    0.20015   0.21387   0.25316   0.26371   0.28877

 Mulliken charges:
               1
     1  C    0.152710
     2  O   -0.349310
     3  C   -0.035381
     4  C   -0.130023
     5  H    0.108708
     6  H    0.089458
     7  H    0.100039
     8  H    0.063800
 Sum of Mulliken charges =   0.00000

 Dipole moment (field-independent basis, Debye):
    X=              3.5692    Y=              0.6856    Z=              0.0677  Tot=              3.6351
 Quadrupole moment (field-independent basis, Debye-Ang):
   XX=            -27.3376   YY=            -21.7840   ZZ=            -25.2036
   XY=             -0.7825   XZ=             -0.1876   YZ=              0.0132

 Normal termination of Gaussian 09 at Wed Aug 26 11:35:30 2020.
