 Gaussian 09, Revision D.01,
 Gaussian 09:  ES64L-G09RevD.01 24-Apr-2013

 --------------------
 #p B2PLYPD3/Def2QZVP
 --------------------

 --------
 acrolein
 --------
 Symbolic Z-matrix:
 Charge =  0 Multiplicity = 1

                         Standard orientation:
 ---------------------------------------------------------------------
 Center     Atomic      Atomic             Coordinates (Angstroms)
 Number     Number       Type             X           Y           Z
 ---------------------------------------------------------------------
      1          6           0       -0.673920    0.348704    0.047648
      2          8           0       -1.772397   -0.129650   -0.068849
      3          6           0        0.527879   -0.448521    0.041358
      4          6           0        1.753868    0.162173   -0.077358
      5          1           0        0.466885   -1.526790    0.194371
      6          1           0        1.783368    1.105014   -0.158141
      7          1           0        2.790329   -0.430670    0.096051
      8          1           0       -0.508366    1.515508    0.348628
 ---------------------------------------------------------------------

 SCF Done:  E(RB2PLYPD3) =  -191.579774204     A.U. after   13 cycles
 E2(B2PLYPD3) =    -0.2491576618D+00 E(B2PLYPD3) =    -0.19182893186588D+03

 The electronic state is 1-A.
 Alpha  occ. eigenvalues --  -19.73097 -10.72482 -10.65827 -10.65005  -1.20246
 Alpha  occ. eigenvalues --   -0.92763  -0.75749  -0.66471  -0.56934  -0.55412
 Alpha  occ. eigenvalues --   -0.50057  -0.47762  -0.46385  -0.34073  -0.33738
 Alpha virt. eigenvalues --   -0.02434   0.05617   0.06168   0.08160   0.09734
 Alpha virt. eigenvalues --    0.12330   0.13940   0.15257   0.17187   0.19187
 Alpha virt. eigenvalues --    0.20310   0.21514   0.24533   0.26504   0.28865

 Mulliken charges:
               1
     1  C    0.147589
     2  O   -0.333918
     3  C   -0.026671
     4  C   -0.142750
     5  H    0.108913
     6  H    0.099645
     7  H    0.094484
     8  H    0.052709
 Sum of Mulliken charges =   0.00000

 Dipole moment (field-independent basis, Debye):
    X=              3.3993    Y=              0.6719    Z=              0.4089  Tot=              3.4891
 Quadrupole moment (field-independent basis, Debye-Ang):
   XX=            -27.2483   YY=            -22.0276   ZZ=            -25.3129
   XY=             -0.8941   XZ=             -0.2178   YZ=             -0.3929

 Normal termination of Gaussian 09 at Wed Aug 26 13:04:31 2020.
