 Gaussian 09, Revision D.01,
 Gaussian 09:  ES64L-G09RevD.01 24-Apr-2013

 --------------------
 #p B2PLYPD3/Def2QZVP
 --------------------

 --------
 acrolein
 --------
 Symbolic Z-matrix:
 Charge =  0 Multiplicity = 1

                         Standard orientation:
 ---------------------------------------------------------------------
 Center     Atomic      Atomic             Coordinates (Angstroms)
 Number     Number       Type             X           Y           Z
 ---------------------------------------------------------------------
      1          6           0        0.677851    0.336801   -0.052712
      2          8           0        1.770980   -0.126893    0.028590
      3          6           0       -0.545213   -0.407395    0.023297
      4          6           0       -1.754267    0.139836   -0.020623
      5          1           0       -0.366158   -1.491680   -0.022406
      6          1           0       -1.791058    1.103515    0.270879
      7          1           0       -2.723683   -0.492646   -0.070675
      8          1           0        0.442830    1.480498   -0.106293
 ---------------------------------------------------------------------

 SCF Done:  E(RB2PLYPD3) =  -191.597302454     A.U. after   13 cycles
 E2(B2PLYPD3) =    -0.2473536768D+00 E(B2PLYPD3) =    -0.19184465613085D+03

 The electronic state is 1-A.
 Alpha  occ. eigenvalues --  -19.73228 -10.71713 -10.65514 -10.64069  -1.21099
 Alpha  occ. eigenvalues --   -0.93747  -0.76097  -0.66229  -0.56736  -0.56296
 Alpha  occ. eigenvalues --   -0.50775  -0.47898  -0.46537  -0.34753  -0.33730
 Alpha virt. eigenvalues --   -0.02280   0.05737   0.07031   0.08452   0.10018
 Alpha virt. eigenvalues --    0.12468   0.13678   0.15075   0.16857   0.19596
 Alpha virt. eigenvalues --    0.20763   0.21713   0.24076   0.26664   0.28413

 Mulliken charges:
               1
     1  C    0.163872
     2  O   -0.333496
     3  C   -0.018692
     4  C   -0.135159
     5  H    0.093563
     6  H    0.092803
     7  H    0.100866
     8  H    0.036243
 Sum of Mulliken charges =   0.00000

 Dipole moment (field-independent basis, Debye):
    X=             -3.3699    Y=              0.5968    Z=              0.0086  Tot=              3.4223
 Quadrupole moment (field-independent basis, Debye-Ang):
   XX=            -27.0861   YY=            -22.4017   ZZ=            -25.0390
   XY=              0.9059   XZ=             -0.3535   YZ=              0.3986

 Normal termination of Gaussian 09 at Wed Aug 26 11:54:22 2020.
