 Gaussian 09, Revision D.01,
 Gaussian 09:  ES64L-G09RevD.01 24-Apr-2013

 --------------------
 #p B2PLYPD3/Def2QZVP
 --------------------

 --------
 acrolein
 --------
 Symbolic Z-matrix:
 Charge =  0 Multiplicity = 1

                         Standard orientation:
 ---------------------------------------------------------------------
 Center     Atomic      Atomic             Coordinates (Angstroms)
 Number     Number       Type             X           Y           Z
 ---------------------------------------------------------------------
      1          6           0       -0.680310    0.352944    0.010364
      2          8           0       -1.782478   -0.126639   -0.019123
      3          6           0        0.550960   -0.443901    0.012441
      4          6           0        1.769972    0.127822   -0.022229
      5          1           0        0.420095   -1.490836    0.065209
      6          1           0        1.846092    1.225257   -0.026754
      7          1           0        2.659139   -0.426824    0.013610
      8          1           0       -0.509229    1.484329    0.097464
 ---------------------------------------------------------------------

 SCF Done:  E(RB2PLYPD3) =  -191.614441297     A.U. after   12 cycles
 E2(B2PLYPD3) =    -0.2471750670D+00 E(B2PLYPD3) =    -0.19186161636366D+03

 The electronic state is 1-A.
 Alpha  occ. eigenvalues --  -19.72979 -10.71875 -10.65503 -10.64247  -1.20168
 Alpha  occ. eigenvalues --   -0.92700  -0.75630  -0.66659  -0.56940  -0.56065
 Alpha  occ. eigenvalues --   -0.50939  -0.47373  -0.46852  -0.34468  -0.33816
 Alpha virt. eigenvalues --   -0.01881   0.05796   0.07218   0.08317   0.09793
 Alpha virt. eigenvalues --    0.12492   0.13892   0.15410   0.17552   0.19550
 Alpha virt. eigenvalues --    0.20003   0.21720   0.25389   0.26454   0.28799

 Mulliken charges:
               1
     1  C    0.160461
     2  O   -0.341435
     3  C   -0.042018
     4  C   -0.131737
     5  H    0.106648
     6  H    0.081874
     7  H    0.106276
     8  H    0.059930
 Sum of Mulliken charges =   0.00000

 Dipole moment (field-independent basis, Debye):
    X=              3.4243    Y=              0.7036    Z=              0.1310  Tot=              3.4983
 Quadrupole moment (field-independent basis, Debye-Ang):
   XX=            -27.2217   YY=            -21.8925   ZZ=            -25.2346
   XY=             -0.9352   XZ=             -0.0649   YZ=             -0.0880

 Normal termination of Gaussian 09 at Wed Aug 26 15:06:32 2020.
