 Gaussian 09, Revision D.01,
 Gaussian 09:  ES64L-G09RevD.01 24-Apr-2013

 --------------------
 #p B2PLYPD3/Def2QZVP
 --------------------

 --------
 acrolein
 --------
 Symbolic Z-matrix:
 Charge =  0 Multiplicity = 1

                         Standard orientation:
 ---------------------------------------------------------------------
 Center     Atomic      Atomic             Coordinates (Angstroms)
 Number     Number       Type             X           Y           Z
 ---------------------------------------------------------------------
      1          6           0       -0.658244    0.333896    0.041186
      2          8           0       -1.796077   -0.101279   -0.019529
      3          6           0        0.572276   -0.457755   -0.010912
      4          6           0        1.756705    0.157834   -0.019407
      5          1           0        0.352050   -1.622559    0.024595
      6          1           0        1.846359    1.219491   -0.065379
      7          1           0        2.651805   -0.442696    0.095901
      8          1           0       -0.506023    1.452143    0.035923
 ---------------------------------------------------------------------

 SCF Done:  E(RB2PLYPD3) =  -191.606449233     A.U. after   13 cycles
 E2(B2PLYPD3) =    -0.2485315268D+00 E(B2PLYPD3) =    -0.19185498075970D+03

 The electronic state is 1-A.
 Alpha  occ. eigenvalues --  -19.72813 -10.71709 -10.65767 -10.65623  -1.18919
 Alpha  occ. eigenvalues --   -0.93103  -0.75637  -0.65726  -0.56518  -0.56120
 Alpha  occ. eigenvalues --   -0.50107  -0.46510  -0.46321  -0.34804  -0.33617
 Alpha virt. eigenvalues --   -0.02100   0.05749   0.06594   0.08139   0.09734
 Alpha virt. eigenvalues --    0.12485   0.13846   0.15259   0.16695   0.19769
 Alpha virt. eigenvalues --    0.19989   0.21742   0.25210   0.26501   0.28544

 Mulliken charges:
               1
     1  C    0.162832
     2  O   -0.353649
     3  C   -0.032941
     4  C   -0.130911
     5  H    0.097034
     6  H    0.096043
     7  H    0.106176
     8  H    0.055416
 Sum of Mulliken charges =   0.00000

 Dipole moment (field-independent basis, Debye):
    X=              3.5713    Y=              0.6934    Z=              0.1472  Tot=              3.6410
 Quadrupole moment (field-independent basis, Debye-Ang):
   XX=            -27.6665   YY=            -21.7133   ZZ=            -25.3371
   XY=             -0.5743   XZ=              0.0609   YZ=             -0.1798

 Normal termination of Gaussian 09 at Wed Aug 26 11:21:42 2020.
