 Gaussian 09, Revision D.01,
 Gaussian 09:  ES64L-G09RevD.01 24-Apr-2013

 --------------------
 #p B2PLYPD3/Def2QZVP
 --------------------

 --------
 acrolein
 --------
 Symbolic Z-matrix:
 Charge =  0 Multiplicity = 1

                         Standard orientation:
 ---------------------------------------------------------------------
 Center     Atomic      Atomic             Coordinates (Angstroms)
 Number     Number       Type             X           Y           Z
 ---------------------------------------------------------------------
      1          6           0        0.665885    0.379780    0.042177
      2          8           0        1.775273   -0.160614   -0.042579
      3          6           0       -0.559627   -0.432888    0.084978
      4          6           0       -1.720262    0.130969   -0.051637
      5          1           0       -0.434526   -1.445790   -0.068952
      6          1           0       -1.790696    1.098222   -0.035489
      7          1           0       -2.768249   -0.445945   -0.030482
      8          1           0        0.475314    1.611255    0.022447
 ---------------------------------------------------------------------

 SCF Done:  E(RB2PLYPD3) =  -191.580469054     A.U. after   13 cycles
 E2(B2PLYPD3) =    -0.2493115721D+00 E(B2PLYPD3) =    -0.19182978062646D+03

 The electronic state is 1-A.
 Alpha  occ. eigenvalues --  -19.73447 -10.73515 -10.64808 -10.63561  -1.18444
 Alpha  occ. eigenvalues --   -0.94300  -0.75070  -0.67246  -0.56513  -0.55708
 Alpha  occ. eigenvalues --   -0.49952  -0.46955  -0.46071  -0.35385  -0.33860
 Alpha virt. eigenvalues --   -0.01823   0.05448   0.06690   0.07585   0.09950
 Alpha virt. eigenvalues --    0.12032   0.13319   0.14880   0.17618   0.19514
 Alpha virt. eigenvalues --    0.20525   0.21330   0.25076   0.26241   0.29033

 Mulliken charges:
               1
     1  C    0.156650
     2  O   -0.352714
     3  C   -0.032940
     4  C   -0.110968
     5  H    0.115698
     6  H    0.084590
     7  H    0.087008
     8  H    0.052675
 Sum of Mulliken charges =   0.00000

 Dipole moment (field-independent basis, Debye):
    X=             -3.4690    Y=              0.8220    Z=              0.0294  Tot=              3.5652
 Quadrupole moment (field-independent basis, Debye-Ang):
   XX=            -27.3965   YY=            -21.9927   ZZ=            -25.1984
   XY=              0.9746   XZ=              0.3434   YZ=              0.1210

 Normal termination of Gaussian 09 at Wed Aug 26 12:17:12 2020.
