 Gaussian 09, Revision D.01,
 Gaussian 09:  ES64L-G09RevD.01 24-Apr-2013

 --------------------
 #p B2PLYPD3/Def2QZVP
 --------------------

 --------
 acrolein
 --------
 Symbolic Z-matrix:
 Charge =  0 Multiplicity = 1

                         Standard orientation:
 ---------------------------------------------------------------------
 Center     Atomic      Atomic             Coordinates (Angstroms)
 Number     Number       Type             X           Y           Z
 ---------------------------------------------------------------------
      1          6           0       -0.672698    0.346488    0.016173
      2          8           0       -1.780383   -0.120796   -0.009846
      3          6           0        0.549757   -0.448730    0.008609
      4          6           0        1.755381    0.149530   -0.006894
      5          1           0        0.442306   -1.552414    0.002328
      6          1           0        1.817016    1.220646    0.005910
      7          1           0        2.719765   -0.433714   -0.019086
      8          1           0       -0.530657    1.448119   -0.017715
 ---------------------------------------------------------------------

 SCF Done:  E(RB2PLYPD3) =  -191.614660216     A.U. after   12 cycles
 E2(B2PLYPD3) =    -0.2473278748D+00 E(B2PLYPD3) =    -0.19186198809107D+03

 The electronic state is 1-A.
 Alpha  occ. eigenvalues --  -19.72680 -10.71396 -10.66063 -10.64751  -1.19987
 Alpha  occ. eigenvalues --   -0.92701  -0.75160  -0.66690  -0.56664  -0.55954
 Alpha  occ. eigenvalues --   -0.50244  -0.47070  -0.46708  -0.34488  -0.33803
 Alpha virt. eigenvalues --   -0.01821   0.05691   0.06965   0.08304   0.09733
 Alpha virt. eigenvalues --    0.12443   0.14009   0.15365   0.17381   0.19827
 Alpha virt. eigenvalues --    0.20000   0.21285   0.25462   0.26335   0.28926

 Mulliken charges:
               1
     1  C    0.153775
     2  O   -0.344046
     3  C   -0.035880
     4  C   -0.133490
     5  H    0.103545
     6  H    0.087687
     7  H    0.102214
     8  H    0.066195
 Sum of Mulliken charges =   0.00000

 Dipole moment (field-independent basis, Debye):
    X=              3.4624    Y=              0.7465    Z=              0.0249  Tot=              3.5420
 Quadrupole moment (field-independent basis, Debye-Ang):
   XX=            -27.3567   YY=            -21.7579   ZZ=            -25.3023
   XY=             -0.9722   XZ=             -0.0791   YZ=              0.0098

 Normal termination of Gaussian 09 at Wed Aug 26 20:45:33 2020.
