 Gaussian 09, Revision D.01,
 Gaussian 09:  ES64L-G09RevD.01 24-Apr-2013

 --------------------
 #p B2PLYPD3/Def2QZVP
 --------------------

 --------
 acrolein
 --------
 Symbolic Z-matrix:
 Charge =  0 Multiplicity = 1

                         Standard orientation:
 ---------------------------------------------------------------------
 Center     Atomic      Atomic             Coordinates (Angstroms)
 Number     Number       Type             X           Y           Z
 ---------------------------------------------------------------------
      1          6           0        0.677206    0.364182    0.017171
      2          8           0        1.790502   -0.131575   -0.021143
      3          6           0       -0.542980   -0.444355   -0.000186
      4          6           0       -1.765891    0.140344   -0.004040
      5          1           0       -0.427698   -1.509924    0.085534
      6          1           0       -1.811282    1.196716   -0.065403
      7          1           0       -2.753284   -0.468826   -0.023384
      8          1           0        0.458234    1.473608    0.094723
 ---------------------------------------------------------------------

 SCF Done:  E(RB2PLYPD3) =  -191.608965683     A.U. after   13 cycles
 E2(B2PLYPD3) =    -0.2488038938D+00 E(B2PLYPD3) =    -0.19185776957717D+03

 The electronic state is 1-A.
 Alpha  occ. eigenvalues --  -19.73069 -10.72127 -10.66400 -10.64547  -1.19183
 Alpha  occ. eigenvalues --   -0.92589  -0.75146  -0.66951  -0.56174  -0.55699
 Alpha  occ. eigenvalues --   -0.50142  -0.47077  -0.46453  -0.34332  -0.33982
 Alpha virt. eigenvalues --   -0.02188   0.05547   0.06973   0.07925   0.09771
 Alpha virt. eigenvalues --    0.12377   0.13602   0.15256   0.17620   0.19667
 Alpha virt. eigenvalues --    0.20100   0.21134   0.25090   0.26513   0.28862

 Mulliken charges:
               1
     1  C    0.154927
     2  O   -0.350157
     3  C   -0.034573
     4  C   -0.136632
     5  H    0.108800
     6  H    0.086584
     7  H    0.101568
     8  H    0.069483
 Sum of Mulliken charges =   0.00000

 Dipole moment (field-independent basis, Debye):
    X=             -3.5007    Y=              0.7833    Z=              0.0994  Tot=              3.5886
 Quadrupole moment (field-independent basis, Debye-Ang):
   XX=            -27.4675   YY=            -21.8212   ZZ=            -25.3806
   XY=              0.9895   XZ=              0.2153   YZ=             -0.1499

 Normal termination of Gaussian 09 at Wed Aug 26 09:27:59 2020.
