 Gaussian 09, Revision D.01,
 Gaussian 09:  ES64L-G09RevD.01 24-Apr-2013

 --------------------
 #p B2PLYPD3/Def2QZVP
 --------------------

 --------
 acrolein
 --------
 Symbolic Z-matrix:
 Charge =  0 Multiplicity = 1

                         Standard orientation:
 ---------------------------------------------------------------------
 Center     Atomic      Atomic             Coordinates (Angstroms)
 Number     Number       Type             X           Y           Z
 ---------------------------------------------------------------------
      1          6           0       -0.678566    0.352117    0.015153
      2          8           0       -1.778201   -0.115722   -0.015346
      3          6           0        0.547275   -0.468534    0.046856
      4          6           0        1.750050    0.151350   -0.021178
      5          1           0        0.479399   -1.551666   -0.074304
      6          1           0        1.808433    1.224011    0.013669
      7          1           0        2.721955   -0.377327   -0.033489
      8          1           0       -0.496730    1.421157   -0.028095
 ---------------------------------------------------------------------

 SCF Done:  E(RB2PLYPD3) =  -191.614148627     A.U. after   12 cycles
 E2(B2PLYPD3) =    -0.2469477794D+00 E(B2PLYPD3) =    -0.19186109640629D+03

 The electronic state is 1-A.
 Alpha  occ. eigenvalues --  -19.72699 -10.71276 -10.65796 -10.64662  -1.20420
 Alpha  occ. eigenvalues --   -0.92362  -0.75026  -0.67308  -0.56716  -0.56046
 Alpha  occ. eigenvalues --   -0.50490  -0.47337  -0.46713  -0.34360  -0.33766
 Alpha virt. eigenvalues --   -0.01631   0.05771   0.07166   0.07973   0.09686
 Alpha virt. eigenvalues --    0.12598   0.14113   0.15321   0.17668   0.19845
 Alpha virt. eigenvalues --    0.20012   0.21309   0.24971   0.26653   0.28852

 Mulliken charges:
               1
     1  C    0.151601
     2  O   -0.338608
     3  C   -0.044139
     4  C   -0.130329
     5  H    0.106838
     6  H    0.080145
     7  H    0.098349
     8  H    0.076144
 Sum of Mulliken charges =   0.00000

 Dipole moment (field-independent basis, Debye):
    X=              3.4028    Y=              0.7837    Z=             -0.0488  Tot=              3.4922
 Quadrupole moment (field-independent basis, Debye-Ang):
   XX=            -27.3063   YY=            -21.7343   ZZ=            -25.2649
   XY=             -0.9040   XZ=             -0.1899   YZ=              0.1629

 Normal termination of Gaussian 09 at Wed Aug 26 09:05:28 2020.
