 Gaussian 09, Revision D.01,
 Gaussian 09:  ES64L-G09RevD.01 24-Apr-2013

 --------------------
 #p B2PLYPD3/Def2QZVP
 --------------------

 --------
 acrolein
 --------
 Symbolic Z-matrix:
 Charge =  0 Multiplicity = 1

                         Standard orientation:
 ---------------------------------------------------------------------
 Center     Atomic      Atomic             Coordinates (Angstroms)
 Number     Number       Type             X           Y           Z
 ---------------------------------------------------------------------
      1          6           0       -0.661172    0.326818   -0.052479
      2          8           0       -1.807232   -0.105672    0.060478
      3          6           0        0.571529   -0.423590   -0.065361
      4          6           0        1.773633    0.140908    0.022160
      5          1           0        0.350554   -1.524154    0.003171
      6          1           0        1.805852    1.198161    0.224257
      7          1           0        2.677496   -0.466360    0.057824
      8          1           0       -0.479981    1.372911   -0.195000
 ---------------------------------------------------------------------

 SCF Done:  E(RB2PLYPD3) =  -191.607467900     A.U. after   13 cycles
 E2(B2PLYPD3) =    -0.2484901884D+00 E(B2PLYPD3) =    -0.19185595808877D+03

 The electronic state is 1-A.
 Alpha  occ. eigenvalues --  -19.72951 -10.71194 -10.66066 -10.64757  -1.18357
 Alpha  occ. eigenvalues --   -0.93694  -0.76722  -0.66803  -0.56667  -0.56337
 Alpha  occ. eigenvalues --   -0.50797  -0.46402  -0.46163  -0.34840  -0.33923
 Alpha virt. eigenvalues --   -0.02651   0.05650   0.07105   0.08243   0.09822
 Alpha virt. eigenvalues --    0.12728   0.13491   0.15352   0.17290   0.18885
 Alpha virt. eigenvalues --    0.20333   0.21616   0.24875   0.26795   0.28652

 Mulliken charges:
               1
     1  C    0.165067
     2  O   -0.364054
     3  C   -0.030373
     4  C   -0.125781
     5  H    0.094047
     6  H    0.087430
     7  H    0.111285
     8  H    0.062379
 Sum of Mulliken charges =   0.00000

 Dipole moment (field-independent basis, Debye):
    X=              3.6758    Y=              0.7076    Z=             -0.0150  Tot=              3.7433
 Quadrupole moment (field-independent basis, Debye-Ang):
   XX=            -27.5545   YY=            -22.0463   ZZ=            -25.1455
   XY=             -0.7902   XZ=              0.8067   YZ=              0.1435

 Normal termination of Gaussian 09 at Wed Aug 26 12:43:58 2020.
