 Gaussian 09, Revision D.01,
 Gaussian 09:  ES64L-G09RevD.01 24-Apr-2013

 --------------------
 #p B2PLYPD3/Def2QZVP
 --------------------

 --------
 acrolein
 --------
 Symbolic Z-matrix:
 Charge =  0 Multiplicity = 1

                         Standard orientation:
 ---------------------------------------------------------------------
 Center     Atomic      Atomic             Coordinates (Angstroms)
 Number     Number       Type             X           Y           Z
 ---------------------------------------------------------------------
      1          6           0       -0.682808    0.354292    0.031904
      2          8           0       -1.782220   -0.118001   -0.032329
      3          6           0        0.567340   -0.462662    0.057131
      4          6           0        1.761416    0.143774   -0.040423
      5          1           0        0.448070   -1.549386   -0.036743
      6          1           0        1.899524    1.274440   -0.009628
      7          1           0        2.614673   -0.412577   -0.017220
      8          1           0       -0.580191    1.419104    0.030557
 ---------------------------------------------------------------------

 SCF Done:  E(RB2PLYPD3) =  -191.609596875     A.U. after   12 cycles
 E2(B2PLYPD3) =    -0.2465329027D+00 E(B2PLYPD3) =    -0.19185612977778D+03

 The electronic state is 1-A.
 Alpha  occ. eigenvalues --  -19.72601 -10.71095 -10.65301 -10.64790  -1.20186
 Alpha  occ. eigenvalues --   -0.92339  -0.75350  -0.67102  -0.56651  -0.56365
 Alpha  occ. eigenvalues --   -0.50761  -0.47034  -0.46664  -0.34545  -0.33622
 Alpha virt. eigenvalues --   -0.01451   0.05794   0.07275   0.07979   0.09643
 Alpha virt. eigenvalues --    0.12482   0.14022   0.15452   0.17632   0.19423
 Alpha virt. eigenvalues --    0.19908   0.21978   0.24990   0.26505   0.28561

 Mulliken charges:
               1
     1  C    0.158710
     2  O   -0.341722
     3  C   -0.059591
     4  C   -0.126124
     5  H    0.106914
     6  H    0.080566
     7  H    0.102843
     8  H    0.078404
 Sum of Mulliken charges =   0.00000

 Dipole moment (field-independent basis, Debye):
    X=              3.3610    Y=              0.7894    Z=              0.0579  Tot=              3.4529
 Quadrupole moment (field-independent basis, Debye-Ang):
   XX=            -27.4528   YY=            -21.5409   ZZ=            -25.2384
   XY=             -0.9353   XZ=             -0.2470   YZ=              0.1009

 Normal termination of Gaussian 09 at Wed Aug 26 08:59:29 2020.
