 Gaussian 09, Revision D.01,
 Gaussian 09:  ES64L-G09RevD.01 24-Apr-2013

 --------------------
 #p B2PLYPD3/Def2QZVP
 --------------------

 --------
 acrolein
 --------
 Symbolic Z-matrix:
 Charge =  0 Multiplicity = 1

                         Standard orientation:
 ---------------------------------------------------------------------
 Center     Atomic      Atomic             Coordinates (Angstroms)
 Number     Number       Type             X           Y           Z
 ---------------------------------------------------------------------
      1          6           0        0.661140    0.340713    0.010507
      2          8           0        1.796930   -0.109336   -0.018210
      3          6           0       -0.572835   -0.462019    0.013814
      4          6           0       -1.745982    0.153060   -0.024779
      5          1           0       -0.447855   -1.537915    0.054084
      6          1           0       -1.811429    1.195658   -0.017232
      7          1           0       -2.652971   -0.388138    0.016862
      8          1           0        0.482870    1.414561    0.094707
 ---------------------------------------------------------------------

 SCF Done:  E(RB2PLYPD3) =  -191.615101600     A.U. after   12 cycles
 E2(B2PLYPD3) =    -0.2471525072D+00 E(B2PLYPD3) =    -0.19186225410701D+03

 The electronic state is 1-A.
 Alpha  occ. eigenvalues --  -19.72812 -10.71532 -10.64780 -10.64402  -1.18762
 Alpha  occ. eigenvalues --   -0.93541  -0.75915  -0.67441  -0.56779  -0.56667
 Alpha  occ. eigenvalues --   -0.50604  -0.47488  -0.46309  -0.34867  -0.33832
 Alpha virt. eigenvalues --   -0.01799   0.05830   0.07164   0.08090   0.09757
 Alpha virt. eigenvalues --    0.12829   0.14106   0.15281   0.17354   0.19814
 Alpha virt. eigenvalues --    0.20192   0.21806   0.25358   0.26642   0.28692

 Mulliken charges:
               1
     1  C    0.152985
     2  O   -0.356035
     3  C   -0.031706
     4  C   -0.130070
     5  H    0.104745
     6  H    0.086736
     7  H    0.100698
     8  H    0.072647
 Sum of Mulliken charges =   0.00000

 Dipole moment (field-independent basis, Debye):
    X=             -3.5844    Y=              0.7391    Z=              0.1346  Tot=              3.6623
 Quadrupole moment (field-independent basis, Debye-Ang):
   XX=            -27.5829   YY=            -21.6977   ZZ=            -25.1176
   XY=              0.7663   XZ=              0.0508   YZ=             -0.0613

 Normal termination of Gaussian 09 at Wed Aug 26 20:43:10 2020.
