 Gaussian 09, Revision D.01,
 Gaussian 09:  ES64L-G09RevD.01 24-Apr-2013

 --------------------
 #p B2PLYPD3/Def2QZVP
 --------------------

 --------
 acrolein
 --------
 Symbolic Z-matrix:
 Charge =  0 Multiplicity = 1

                         Standard orientation:
 ---------------------------------------------------------------------
 Center     Atomic      Atomic             Coordinates (Angstroms)
 Number     Number       Type             X           Y           Z
 ---------------------------------------------------------------------
      1          6           0        0.696850   -0.342700    0.057377
      2          8           0        1.791373    0.105186   -0.070669
      3          6           0       -0.593559    0.465052    0.065086
      4          6           0       -1.768447   -0.168827   -0.034642
      5          1           0       -0.438629    1.643085    0.019099
      6          1           0       -1.877883   -1.174913   -0.262588
      7          1           0       -2.612327    0.340011    0.004261
      8          1           0        0.588793   -1.370824    0.277646
 ---------------------------------------------------------------------

 SCF Done:  E(RB2PLYPD3) =  -191.595580406     A.U. after   14 cycles
 E2(B2PLYPD3) =    -0.2460863303D+00 E(B2PLYPD3) =    -0.19184166673656D+03

 The electronic state is 1-A.
 Alpha  occ. eigenvalues --  -19.72837 -10.71090 -10.65751 -10.63735  -1.20794
 Alpha  occ. eigenvalues --   -0.92294  -0.75818  -0.66863  -0.57142  -0.56713
 Alpha  occ. eigenvalues --   -0.51343  -0.46965  -0.46780  -0.34455  -0.33462
 Alpha virt. eigenvalues --   -0.01370   0.06032   0.07099   0.07817   0.09662
 Alpha virt. eigenvalues --    0.12912   0.14144   0.15754   0.16928   0.19089
 Alpha virt. eigenvalues --    0.20350   0.22226   0.24864   0.26541   0.28178

 Mulliken charges:
               1
     1  C    0.160586
     2  O   -0.333672
     3  C   -0.065875
     4  C   -0.122626
     5  H    0.096570
     6  H    0.083096
     7  H    0.101495
     8  H    0.080424
 Sum of Mulliken charges =   0.00000

 Dipole moment (field-independent basis, Debye):
    X=             -3.2607    Y=             -0.7906    Z=              0.0974  Tot=              3.3565
 Quadrupole moment (field-independent basis, Debye-Ang):
   XX=            -27.3392   YY=            -21.6688   ZZ=            -25.1046
   XY=             -0.6873   XZ=              0.8217   YZ=              0.2091

 Normal termination of Gaussian 09 at Wed Aug 26 14:25:36 2020.
