 Gaussian 09, Revision D.01,
 Gaussian 09:  ES64L-G09RevD.01 24-Apr-2013

 --------------------
 #p B2PLYPD3/Def2QZVP
 --------------------

 --------
 acrolein
 --------
 Symbolic Z-matrix:
 Charge =  0 Multiplicity = 1

                         Standard orientation:
 ---------------------------------------------------------------------
 Center     Atomic      Atomic             Coordinates (Angstroms)
 Number     Number       Type             X           Y           Z
 ---------------------------------------------------------------------
      1          6           0        0.667974    0.342053   -0.022923
      2          8           0        1.796326   -0.107869    0.012054
      3          6           0       -0.561808   -0.463161   -0.030173
      4          6           0       -1.758850    0.136294    0.018602
      5          1           0       -0.442053   -1.592312    0.050492
      6          1           0       -1.866933    1.267469   -0.045317
      7          1           0       -2.624890   -0.384308    0.032065
      8          1           0        0.479380    1.480989    0.073294
 ---------------------------------------------------------------------

 SCF Done:  E(RB2PLYPD3) =  -191.606299123     A.U. after   13 cycles
 E2(B2PLYPD3) =    -0.2483874278D+00 E(B2PLYPD3) =    -0.19185468655125D+03

 The electronic state is 1-A.
 Alpha  occ. eigenvalues --  -19.72997 -10.72205 -10.65545 -10.65281  -1.19311
 Alpha  occ. eigenvalues --   -0.92868  -0.75799  -0.65577  -0.57138  -0.55512
 Alpha  occ. eigenvalues --   -0.50601  -0.46765  -0.46239  -0.34755  -0.33754
 Alpha virt. eigenvalues --   -0.01987   0.05701   0.06799   0.07982   0.09657
 Alpha virt. eigenvalues --    0.12506   0.14078   0.15236   0.17009   0.19607
 Alpha virt. eigenvalues --    0.20035   0.21948   0.24912   0.26597   0.28584

 Mulliken charges:
               1
     1  C    0.162847
     2  O   -0.345232
     3  C   -0.040679
     4  C   -0.122955
     5  H    0.100362
     6  H    0.079858
     7  H    0.107238
     8  H    0.058561
 Sum of Mulliken charges =   0.00000

 Dipole moment (field-independent basis, Debye):
    X=             -3.5610    Y=              0.6502    Z=              0.0103  Tot=              3.6199
 Quadrupole moment (field-independent basis, Debye-Ang):
   XX=            -27.4108   YY=            -21.7950   ZZ=            -25.3343
   XY=              0.7342   XZ=             -0.0945   YZ=             -0.1364

 Normal termination of Gaussian 09 at Wed Aug 26 08:37:56 2020.
