 Gaussian 09, Revision D.01,
 Gaussian 09:  ES64L-G09RevD.01 24-Apr-2013

 --------------------
 #p B2PLYPD3/Def2QZVP
 --------------------

 --------
 acrolein
 --------
 Symbolic Z-matrix:
 Charge =  0 Multiplicity = 1

                         Standard orientation:
 ---------------------------------------------------------------------
 Center     Atomic      Atomic             Coordinates (Angstroms)
 Number     Number       Type             X           Y           Z
 ---------------------------------------------------------------------
      1          6           0       -0.675453    0.350443   -0.063380
      2          8           0       -1.821958   -0.105678    0.060286
      3          6           0        0.612828   -0.504198   -0.051682
      4          6           0        1.745809    0.161492    0.021018
      5          1           0        0.538563   -1.586915   -0.120763
      6          1           0        1.898297    1.363135   -0.002029
      7          1           0        2.489129   -0.418941    0.256126
      8          1           0       -0.449430    1.441727   -0.051365
 ---------------------------------------------------------------------

 SCF Done:  E(RB2PLYPD3) =  -191.583847873     A.U. after   13 cycles
 E2(B2PLYPD3) =    -0.2495379389D+00 E(B2PLYPD3) =    -0.19183338581187D+03

 The electronic state is 1-A.
 Alpha  occ. eigenvalues --  -19.73223 -10.72711 -10.65069 -10.64916  -1.17797
 Alpha  occ. eigenvalues --   -0.93254  -0.74987  -0.66346  -0.56853  -0.54692
 Alpha  occ. eigenvalues --   -0.50437  -0.47185  -0.45379  -0.34935  -0.33556
 Alpha virt. eigenvalues --   -0.01377   0.05412   0.06941   0.07033   0.09466
 Alpha virt. eigenvalues --    0.12272   0.13817   0.15129   0.17441   0.19071
 Alpha virt. eigenvalues --    0.19821   0.22039   0.24543   0.27027   0.27791

 Mulliken charges:
               1
     1  C    0.166533
     2  O   -0.355163
     3  C   -0.058758
     4  C   -0.125385
     5  H    0.104453
     6  H    0.085663
     7  H    0.101853
     8  H    0.080804
 Sum of Mulliken charges =   0.00000

 Dipole moment (field-independent basis, Debye):
    X=              3.5137    Y=              0.7137    Z=             -0.1161  Tot=              3.5873
 Quadrupole moment (field-independent basis, Debye-Ang):
   XX=            -28.4541   YY=            -21.1820   ZZ=            -25.3040
   XY=             -0.7181   XZ=              0.8105   YZ=             -0.0268

 Normal termination of Gaussian 09 at Wed Aug 26 11:48:38 2020.
