 Gaussian 09, Revision D.01,
 Gaussian 09:  ES64L-G09RevD.01 24-Apr-2013

 --------------------
 #p B2PLYPD3/Def2QZVP
 --------------------

 --------
 acrolein
 --------
 Symbolic Z-matrix:
 Charge =  0 Multiplicity = 1

                         Standard orientation:
 ---------------------------------------------------------------------
 Center     Atomic      Atomic             Coordinates (Angstroms)
 Number     Number       Type             X           Y           Z
 ---------------------------------------------------------------------
      1          6           0       -0.667478    0.353312   -0.003068
      2          8           0       -1.783876   -0.124850    0.009800
      3          6           0        0.558565   -0.439196   -0.026875
      4          6           0        1.756890    0.142395    0.006780
      5          1           0        0.416995   -1.552444    0.017831
      6          1           0        1.818980    1.176442   -0.000524
      7          1           0        2.676527   -0.418036    0.050715
      8          1           0       -0.529358    1.453775   -0.007445
 ---------------------------------------------------------------------

 SCF Done:  E(RB2PLYPD3) =  -191.614383886     A.U. after   12 cycles
 E2(B2PLYPD3) =    -0.2472505388D+00 E(B2PLYPD3) =    -0.19186163442465D+03

 The electronic state is 1-A.
 Alpha  occ. eigenvalues --  -19.72760 -10.71557 -10.65026 -10.64714  -1.19277
 Alpha  occ. eigenvalues --   -0.93201  -0.75843  -0.66777  -0.56888  -0.56485
 Alpha  occ. eigenvalues --   -0.50500  -0.46790  -0.46682  -0.34688  -0.33883
 Alpha virt. eigenvalues --   -0.01879   0.05816   0.07027   0.08252   0.09799
 Alpha virt. eigenvalues --    0.12608   0.14039   0.15326   0.17171   0.19937
 Alpha virt. eigenvalues --    0.20104   0.21761   0.25460   0.26405   0.28890

 Mulliken charges:
               1
     1  C    0.154069
     2  O   -0.351329
     3  C   -0.032225
     4  C   -0.132394
     5  H    0.101081
     6  H    0.087093
     7  H    0.104686
     8  H    0.069020
 Sum of Mulliken charges =   0.00000

 Dipole moment (field-independent basis, Debye):
    X=              3.5171    Y=              0.7937    Z=              0.0334  Tot=              3.6057
 Quadrupole moment (field-independent basis, Debye-Ang):
   XX=            -27.3688   YY=            -21.7645   ZZ=            -25.1952
   XY=             -0.9367   XZ=              0.1911   YZ=             -0.0740

 Normal termination of Gaussian 09 at Wed Aug 26 20:06:57 2020.
