 Gaussian 09, Revision D.01,
 Gaussian 09:  ES64L-G09RevD.01 24-Apr-2013

 --------------------
 #p B2PLYPD3/Def2QZVP
 --------------------

 --------
 acrolein
 --------
 Symbolic Z-matrix:
 Charge =  0 Multiplicity = 1

                         Standard orientation:
 ---------------------------------------------------------------------
 Center     Atomic      Atomic             Coordinates (Angstroms)
 Number     Number       Type             X           Y           Z
 ---------------------------------------------------------------------
      1          6           0       -0.668050    0.365478   -0.020030
      2          8           0       -1.783510   -0.132155    0.011449
      3          6           0        0.547101   -0.447934   -0.001291
      4          6           0        1.746448    0.132432   -0.014379
      5          1           0        0.433430   -1.517572    0.018534
      6          1           0        1.835653    1.216552    0.094098
      7          1           0        2.729402   -0.436300    0.019306
      8          1           0       -0.483405    1.494703   -0.009327
 ---------------------------------------------------------------------

 SCF Done:  E(RB2PLYPD3) =  -191.611709101     A.U. after   13 cycles
 E2(B2PLYPD3) =    -0.2484317631D+00 E(B2PLYPD3) =    -0.19186014086407D+03

 The electronic state is 1-A.
 Alpha  occ. eigenvalues --  -19.72965 -10.72168 -10.66115 -10.64379  -1.18991
 Alpha  occ. eigenvalues --   -0.93003  -0.74962  -0.66722  -0.56273  -0.55842
 Alpha  occ. eigenvalues --   -0.50249  -0.46728  -0.46283  -0.34649  -0.33962
 Alpha virt. eigenvalues --   -0.01944   0.05560   0.06987   0.07949   0.09745
 Alpha virt. eigenvalues --    0.12344   0.13866   0.15312   0.17452   0.19782
 Alpha virt. eigenvalues --    0.19979   0.21244   0.25351   0.26292   0.28774

 Mulliken charges:
               1
     1  C    0.158642
     2  O   -0.352043
     3  C   -0.039353
     4  C   -0.124137
     5  H    0.110188
     6  H    0.080636
     7  H    0.096330
     8  H    0.069736
 Sum of Mulliken charges =   0.00000

 Dipole moment (field-independent basis, Debye):
    X=              3.5037    Y=              0.7774    Z=              0.0612  Tot=              3.5894
 Quadrupole moment (field-independent basis, Debye-Ang):
   XX=            -27.4788   YY=            -21.7764   ZZ=            -25.3173
   XY=             -0.9520   XZ=              0.2605   YZ=              0.0780

 Normal termination of Gaussian 09 at Wed Aug 26 09:53:45 2020.
