 Gaussian 09, Revision D.01,
 Gaussian 09:  ES64L-G09RevD.01 24-Apr-2013

 --------------------
 #p B2PLYPD3/Def2QZVP
 --------------------

 --------
 acrolein
 --------
 Symbolic Z-matrix:
 Charge =  0 Multiplicity = 1

                         Standard orientation:
 ---------------------------------------------------------------------
 Center     Atomic      Atomic             Coordinates (Angstroms)
 Number     Number       Type             X           Y           Z
 ---------------------------------------------------------------------
      1          6           0       -0.670965    0.346357   -0.010646
      2          8           0       -1.791041   -0.127089    0.007549
      3          6           0        0.546899   -0.422882   -0.002542
      4          6           0        1.766210    0.125534   -0.003648
      5          1           0        0.380980   -1.497769    0.031797
      6          1           0        1.780663    1.172021    0.120567
      7          1           0        2.750296   -0.448110   -0.051235
      8          1           0       -0.436480    1.496516   -0.060503
 ---------------------------------------------------------------------

 SCF Done:  E(RB2PLYPD3) =  -191.606926152     A.U. after   13 cycles
 E2(B2PLYPD3) =    -0.2486940343D+00 E(B2PLYPD3) =    -0.19185562018624D+03

 The electronic state is 1-A.
 Alpha  occ. eigenvalues --  -19.73248 -10.72254 -10.66187 -10.64350  -1.19470
 Alpha  occ. eigenvalues --   -0.93424  -0.75844  -0.66229  -0.56451  -0.55873
 Alpha  occ. eigenvalues --   -0.50621  -0.47098  -0.46354  -0.34707  -0.33959
 Alpha virt. eigenvalues --   -0.02402   0.05612   0.06947   0.08387   0.09885
 Alpha virt. eigenvalues --    0.12422   0.13520   0.15335   0.17213   0.19644
 Alpha virt. eigenvalues --    0.20231   0.21279   0.25325   0.26422   0.28814

 Mulliken charges:
               1
     1  C    0.163205
     2  O   -0.348637
     3  C   -0.020914
     4  C   -0.132215
     5  H    0.099320
     6  H    0.085396
     7  H    0.109446
     8  H    0.044397
 Sum of Mulliken charges =   0.00000

 Dipole moment (field-independent basis, Debye):
    X=              3.5785    Y=              0.6577    Z=              0.0390  Tot=              3.6387
 Quadrupole moment (field-independent basis, Debye-Ang):
   XX=            -27.1054   YY=            -22.2405   ZZ=            -25.2671
   XY=             -0.9059   XZ=              0.0955   YZ=              0.1129

 Normal termination of Gaussian 09 at Wed Aug 26 21:21:15 2020.
