 Gaussian 09, Revision D.01,
 Gaussian 09:  ES64L-G09RevD.01 24-Apr-2013

 --------------------
 #p B2PLYPD3/Def2QZVP
 --------------------

 --------
 acrolein
 --------
 Symbolic Z-matrix:
 Charge =  0 Multiplicity = 1

                         Standard orientation:
 ---------------------------------------------------------------------
 Center     Atomic      Atomic             Coordinates (Angstroms)
 Number     Number       Type             X           Y           Z
 ---------------------------------------------------------------------
      1          6           0       -0.660712    0.325888   -0.011043
      2          8           0       -1.811742   -0.099172    0.024742
      3          6           0        0.572207   -0.462722   -0.044976
      4          6           0        1.737673    0.155678    0.031526
      5          1           0        0.484059   -1.530141   -0.049397
      6          1           0        1.900982    1.247297   -0.075107
      7          1           0        2.685204   -0.429712    0.108313
      8          1           0       -0.471325    1.392868   -0.034787
 ---------------------------------------------------------------------

 SCF Done:  E(RB2PLYPD3) =  -191.612067785     A.U. after   13 cycles
 E2(B2PLYPD3) =    -0.2479399675D+00 E(B2PLYPD3) =    -0.19186000775256D+03

 The electronic state is 1-A.
 Alpha  occ. eigenvalues --  -19.72768 -10.71475 -10.66209 -10.64440  -1.18365
 Alpha  occ. eigenvalues --   -0.93607  -0.75541  -0.67313  -0.56596  -0.55997
 Alpha  occ. eigenvalues --   -0.50398  -0.46814  -0.46058  -0.34984  -0.33792
 Alpha virt. eigenvalues --   -0.01987   0.05548   0.07045   0.08079   0.09584
 Alpha virt. eigenvalues --    0.12570   0.14043   0.15225   0.17582   0.19718
 Alpha virt. eigenvalues --    0.20016   0.21392   0.24933   0.26655   0.28207

 Mulliken charges:
               1
     1  C    0.155577
     2  O   -0.359249
     3  C   -0.033294
     4  C   -0.123336
     5  H    0.106161
     6  H    0.089622
     7  H    0.093020
     8  H    0.071499
 Sum of Mulliken charges =   0.00000

 Dipole moment (field-independent basis, Debye):
    X=              3.7099    Y=              0.6962    Z=             -0.0995  Tot=              3.7759
 Quadrupole moment (field-independent basis, Debye-Ang):
   XX=            -27.6653   YY=            -21.7338   ZZ=            -25.1950
   XY=             -0.6305   XZ=              0.2300   YZ=             -0.1194

 Normal termination of Gaussian 09 at Wed Aug 26 21:13:57 2020.
