 Gaussian 09, Revision D.01,
 Gaussian 09:  ES64L-G09RevD.01 24-Apr-2013

 --------------------
 #p B2PLYPD3/Def2QZVP
 --------------------

 --------
 acrolein
 --------
 Symbolic Z-matrix:
 Charge =  0 Multiplicity = 1

                         Standard orientation:
 ---------------------------------------------------------------------
 Center     Atomic      Atomic             Coordinates (Angstroms)
 Number     Number       Type             X           Y           Z
 ---------------------------------------------------------------------
      1          6           0        0.660650    0.316487   -0.015535
      2          8           0        1.796049   -0.088731    0.025266
      3          6           0       -0.550207   -0.458693   -0.056398
      4          6           0       -1.757401    0.152215    0.004486
      5          1           0       -0.407414   -1.576616    0.054999
      6          1           0       -1.873320    1.226676    0.043124
      7          1           0       -2.666496   -0.417746    0.123196
      8          1           0        0.460584    1.417482   -0.018764
 ---------------------------------------------------------------------

 SCF Done:  E(RB2PLYPD3) =  -191.611777454     A.U. after   13 cycles
 E2(B2PLYPD3) =    -0.2479030853D+00 E(B2PLYPD3) =    -0.19185968053966D+03

 The electronic state is 1-A.
 Alpha  occ. eigenvalues --  -19.72674 -10.71221 -10.66295 -10.65212  -1.19633
 Alpha  occ. eigenvalues --   -0.93091  -0.76200  -0.66223  -0.56815  -0.56037
 Alpha  occ. eigenvalues --   -0.50330  -0.47128  -0.46713  -0.34587  -0.33644
 Alpha virt. eigenvalues --   -0.02382   0.05706   0.06887   0.08514   0.09694
 Alpha virt. eigenvalues --    0.12665   0.13892   0.15261   0.17286   0.19804
 Alpha virt. eigenvalues --    0.19923   0.21697   0.24967   0.26593   0.28408

 Mulliken charges:
               1
     1  C    0.157714
     2  O   -0.348407
     3  C   -0.026126
     4  C   -0.125934
     5  H    0.098122
     6  H    0.090879
     7  H    0.103605
     8  H    0.050146
 Sum of Mulliken charges =   0.00000

 Dipole moment (field-independent basis, Debye):
    X=             -3.6723    Y=              0.6167    Z=              0.1149  Tot=              3.7255
 Quadrupole moment (field-independent basis, Debye-Ang):
   XX=            -27.3049   YY=            -21.9325   ZZ=            -25.2532
   XY=              0.4836   XZ=             -0.5408   YZ=             -0.1300

 Normal termination of Gaussian 09 at Wed Aug 26 08:27:37 2020.
