 Gaussian 09, Revision D.01,
 Gaussian 09:  ES64L-G09RevD.01 24-Apr-2013

 --------------------
 #p B2PLYPD3/Def2QZVP
 --------------------

 --------
 acrolein
 --------
 Symbolic Z-matrix:
 Charge =  0 Multiplicity = 1

                         Standard orientation:
 ---------------------------------------------------------------------
 Center     Atomic      Atomic             Coordinates (Angstroms)
 Number     Number       Type             X           Y           Z
 ---------------------------------------------------------------------
      1          6           0       -0.667096    0.349123   -0.001180
      2          8           0       -1.771970   -0.131356   -0.015579
      3          6           0        0.535807   -0.420710   -0.001074
      4          6           0        1.751528    0.134272   -0.006926
      5          1           0        0.418360   -1.517723    0.081715
      6          1           0        1.819875    1.207157   -0.091735
      7          1           0        2.771101   -0.462501    0.026679
      8          1           0       -0.555007    1.447800    0.163052
 ---------------------------------------------------------------------

 SCF Done:  E(RB2PLYPD3) =  -191.607569640     A.U. after   13 cycles
 E2(B2PLYPD3) =    -0.2476579915D+00 E(B2PLYPD3) =    -0.19185522763172D+03

 The electronic state is 1-A.
 Alpha  occ. eigenvalues --  -19.72616 -10.71225 -10.66632 -10.64412  -1.19890
 Alpha  occ. eigenvalues --   -0.93175  -0.75381  -0.66556  -0.56899  -0.55683
 Alpha  occ. eigenvalues --   -0.50186  -0.47138  -0.45846  -0.34687  -0.33845
 Alpha virt. eigenvalues --   -0.02047   0.05487   0.06851   0.08423   0.09737
 Alpha virt. eigenvalues --    0.12237   0.14002   0.15295   0.17549   0.19288
 Alpha virt. eigenvalues --    0.20229   0.20975   0.25270   0.26718   0.29033

 Mulliken charges:
               1
     1  C    0.151782
     2  O   -0.346056
     3  C   -0.034202
     4  C   -0.127955
     5  H    0.105232
     6  H    0.085260
     7  H    0.100983
     8  H    0.064958
 Sum of Mulliken charges =   0.00000

 Dipole moment (field-independent basis, Debye):
    X=              3.5016    Y=              0.7655    Z=              0.1020  Tot=              3.5857
 Quadrupole moment (field-independent basis, Debye-Ang):
   XX=            -27.1632   YY=            -21.9581   ZZ=            -25.2530
   XY=             -1.0839   XZ=             -0.1300   YZ=             -0.1803

 Normal termination of Gaussian 09 at Wed Aug 26 09:26:45 2020.
