 Gaussian 09, Revision D.01,
 Gaussian 09:  ES64L-G09RevD.01 24-Apr-2013

 --------------------
 #p B2PLYPD3/Def2QZVP
 --------------------

 --------
 acrolein
 --------
 Symbolic Z-matrix:
 Charge =  0 Multiplicity = 1

                         Standard orientation:
 ---------------------------------------------------------------------
 Center     Atomic      Atomic             Coordinates (Angstroms)
 Number     Number       Type             X           Y           Z
 ---------------------------------------------------------------------
      1          6           0       -0.666875    0.325539    0.032741
      2          8           0       -1.802736   -0.100467   -0.033703
      3          6           0        0.557255   -0.458356    0.008475
      4          6           0        1.780172    0.144973   -0.023392
      5          1           0        0.401655   -1.565306    0.120403
      6          1           0        1.844214    1.251503   -0.013653
      7          1           0        2.655811   -0.416624   -0.040706
      8          1           0       -0.503095    1.461231    0.096637
 ---------------------------------------------------------------------

 SCF Done:  E(RB2PLYPD3) =  -191.609926582     A.U. after   12 cycles
 E2(B2PLYPD3) =    -0.2486800586D+00 E(B2PLYPD3) =    -0.19185860664075D+03

 The electronic state is 1-A.
 Alpha  occ. eigenvalues --  -19.72861 -10.71857 -10.66241 -10.65439  -1.19246
 Alpha  occ. eigenvalues --   -0.92649  -0.76107  -0.65778  -0.56844  -0.55770
 Alpha  occ. eigenvalues --   -0.50495  -0.47365  -0.46270  -0.34397  -0.33669
 Alpha virt. eigenvalues --   -0.02478   0.05732   0.06849   0.08312   0.09676
 Alpha virt. eigenvalues --    0.12470   0.13804   0.15212   0.17214   0.19649
 Alpha virt. eigenvalues --    0.20008   0.21671   0.25036   0.26481   0.28896

 Mulliken charges:
               1
     1  C    0.160848
     2  O   -0.348216
     3  C   -0.032829
     4  C   -0.130659
     5  H    0.098920
     6  H    0.089972
     7  H    0.111624
     8  H    0.050339
 Sum of Mulliken charges =   0.00000

 Dipole moment (field-independent basis, Debye):
    X=              3.6344    Y=              0.6181    Z=              0.1991  Tot=              3.6920
 Quadrupole moment (field-independent basis, Debye-Ang):
   XX=            -27.3665   YY=            -21.8878   ZZ=            -25.3721
   XY=             -0.7078   XZ=             -0.2262   YZ=             -0.1430

 Normal termination of Gaussian 09 at Wed Aug 26 09:49:04 2020.
