 Gaussian 09, Revision D.01,
 Gaussian 09:  ES64L-G09RevD.01 24-Apr-2013

 --------------------
 #p B2PLYPD3/Def2QZVP
 --------------------

 --------
 acrolein
 --------
 Symbolic Z-matrix:
 Charge =  0 Multiplicity = 1

                         Standard orientation:
 ---------------------------------------------------------------------
 Center     Atomic      Atomic             Coordinates (Angstroms)
 Number     Number       Type             X           Y           Z
 ---------------------------------------------------------------------
      1          6           0        0.670469    0.322456    0.030136
      2          8           0        1.815142   -0.103158   -0.053125
      3          6           0       -0.612058   -0.471712    0.045892
      4          6           0       -1.746451    0.163790   -0.063760
      5          1           0       -0.583713   -1.517718    0.108256
      6          1           0       -1.872309    1.281115   -0.101405
      7          1           0       -2.444700   -0.407306    0.051152
      8          1           0        0.507831    1.381969    0.293385
 ---------------------------------------------------------------------

 SCF Done:  E(RB2PLYPD3) =  -191.578508887     A.U. after   13 cycles
 E2(B2PLYPD3) =    -0.2470430058D+00 E(B2PLYPD3) =    -0.19182555189232D+03

 The electronic state is 1-A.
 Alpha  occ. eigenvalues --  -19.73059 -10.71952 -10.64030 -10.63244  -1.18679
 Alpha  occ. eigenvalues --   -0.94470  -0.76425  -0.67047  -0.58210  -0.55710
 Alpha  occ. eigenvalues --   -0.50819  -0.48322  -0.45835  -0.35329  -0.33611
 Alpha virt. eigenvalues --   -0.01438   0.06016   0.06826   0.07994   0.09619
 Alpha virt. eigenvalues --    0.12825   0.14149   0.15413   0.17599   0.18660
 Alpha virt. eigenvalues --    0.20273   0.22652   0.24798   0.26932   0.27791

 Mulliken charges:
               1
     1  C    0.156157
     2  O   -0.348294
     3  C   -0.043967
     4  C   -0.136283
     5  H    0.095916
     6  H    0.089359
     7  H    0.112245
     8  H    0.074867
 Sum of Mulliken charges =   0.00000

 Dipole moment (field-independent basis, Debye):
    X=             -3.5129    Y=              0.6590    Z=              0.3143  Tot=              3.5879
 Quadrupole moment (field-independent basis, Debye-Ang):
   XX=            -28.0438   YY=            -21.4537   ZZ=            -24.9584
   XY=              0.8103   XZ=              0.2505   YZ=             -0.1859

 Normal termination of Gaussian 09 at Wed Aug 26 14:27:14 2020.
