 Gaussian 09, Revision D.01,
 Gaussian 09:  ES64L-G09RevD.01 24-Apr-2013

 --------------------
 #p B2PLYPD3/Def2QZVP
 --------------------

 --------
 acrolein
 --------
 Symbolic Z-matrix:
 Charge =  0 Multiplicity = 1

                         Standard orientation:
 ---------------------------------------------------------------------
 Center     Atomic      Atomic             Coordinates (Angstroms)
 Number     Number       Type             X           Y           Z
 ---------------------------------------------------------------------
      1          6           0        0.667892    0.343535   -0.034645
      2          8           0        1.795285   -0.097847    0.052220
      3          6           0       -0.575740   -0.486806   -0.064826
      4          6           0       -1.770275    0.151026    0.010329
      5          1           0       -0.359864   -1.579342   -0.099222
      6          1           0       -1.880602    1.234953   -0.061669
      7          1           0       -2.646878   -0.328191    0.321580
      8          1           0        0.593806    1.408825   -0.043600
 ---------------------------------------------------------------------

 SCF Done:  E(RB2PLYPD3) =  -191.605815216     A.U. after   14 cycles
 E2(B2PLYPD3) =    -0.2478522018D+00 E(B2PLYPD3) =    -0.19185366741735D+03

 The electronic state is 1-A.
 Alpha  occ. eigenvalues --  -19.72467 -10.71143 -10.65791 -10.65676  -1.19149
 Alpha  occ. eigenvalues --   -0.92228  -0.75470  -0.67267  -0.56768  -0.56025
 Alpha  occ. eigenvalues --   -0.50527  -0.47512  -0.46042  -0.34260  -0.33344
 Alpha virt. eigenvalues --   -0.02018   0.05733   0.07302   0.07702   0.09609
 Alpha virt. eigenvalues --    0.12412   0.14217   0.15386   0.17264   0.19328
 Alpha virt. eigenvalues --    0.19910   0.21962   0.24616   0.26552   0.28738

 Mulliken charges:
               1
     1  C    0.158326
     2  O   -0.354893
     3  C   -0.051240
     4  C   -0.124125
     5  H    0.111435
     6  H    0.085660
     7  H    0.100103
     8  H    0.074735
 Sum of Mulliken charges =   0.00000

 Dipole moment (field-independent basis, Debye):
    X=             -3.4937    Y=              0.7709    Z=             -0.0298  Tot=              3.5778
 Quadrupole moment (field-independent basis, Debye-Ang):
   XX=            -27.6195   YY=            -21.6269   ZZ=            -25.2036
   XY=              0.5424   XZ=             -0.9294   YZ=             -0.1031

 Normal termination of Gaussian 09 at Wed Aug 26 12:59:42 2020.
