 Gaussian 09, Revision D.01,
 Gaussian 09:  ES64L-G09RevD.01 24-Apr-2013

 --------------------
 #p B2PLYPD3/Def2QZVP
 --------------------

 --------
 acrolein
 --------
 Symbolic Z-matrix:
 Charge =  0 Multiplicity = 1

                         Standard orientation:
 ---------------------------------------------------------------------
 Center     Atomic      Atomic             Coordinates (Angstroms)
 Number     Number       Type             X           Y           Z
 ---------------------------------------------------------------------
      1          6           0        0.661981    0.328902   -0.014125
      2          8           0        1.799764   -0.097777    0.014779
      3          6           0       -0.569167   -0.481060   -0.020671
      4          6           0       -1.740476    0.167748   -0.000539
      5          1           0       -0.445681   -1.555726    0.049806
      6          1           0       -1.854740    1.274754    0.106023
      7          1           0       -2.713096   -0.434045   -0.005305
      8          1           0        0.501374    1.403693   -0.056749
 ---------------------------------------------------------------------

 SCF Done:  E(RB2PLYPD3) =  -191.610909654     A.U. after   13 cycles
 E2(B2PLYPD3) =    -0.2479807067D+00 E(B2PLYPD3) =    -0.19185889036090D+03

 The electronic state is 1-A.
 Alpha  occ. eigenvalues --  -19.72613 -10.71288 -10.66753 -10.64842  -1.19037
 Alpha  occ. eigenvalues --   -0.92897  -0.74788  -0.67100  -0.56314  -0.55702
 Alpha  occ. eigenvalues --   -0.50275  -0.46856  -0.46239  -0.34698  -0.33634
 Alpha virt. eigenvalues --   -0.01819   0.05498   0.06979   0.07963   0.09619
 Alpha virt. eigenvalues --    0.12425   0.13887   0.15285   0.17551   0.19399
 Alpha virt. eigenvalues --    0.20096   0.21198   0.25098   0.26553   0.28558

 Mulliken charges:
               1
     1  C    0.156056
     2  O   -0.354065
     3  C   -0.041149
     4  C   -0.125600
     5  H    0.109361
     6  H    0.092737
     7  H    0.093419
     8  H    0.069241
 Sum of Mulliken charges =   0.00000

 Dipole moment (field-independent basis, Debye):
    X=             -3.5784    Y=              0.6936    Z=              0.0636  Tot=              3.6455
 Quadrupole moment (field-independent basis, Debye-Ang):
   XX=            -27.7806   YY=            -21.5901   ZZ=            -25.3219
   XY=              0.6572   XZ=             -0.2711   YZ=              0.0377

 Normal termination of Gaussian 09 at Wed Aug 26 10:08:22 2020.
