 Gaussian 09, Revision D.01,
 Gaussian 09:  ES64L-G09RevD.01 24-Apr-2013

 --------------------
 #p B2PLYPD3/Def2QZVP
 --------------------

 --------
 acrolein
 --------
 Symbolic Z-matrix:
 Charge =  0 Multiplicity = 1

                         Standard orientation:
 ---------------------------------------------------------------------
 Center     Atomic      Atomic             Coordinates (Angstroms)
 Number     Number       Type             X           Y           Z
 ---------------------------------------------------------------------
      1          6           0        0.668133    0.376011    0.084549
      2          8           0        1.787527   -0.158696   -0.079375
      3          6           0       -0.542627   -0.385253    0.023627
      4          6           0       -1.767776    0.093236   -0.067830
      5          1           0       -0.519061   -1.460546    0.271330
      6          1           0       -1.805311    1.117540   -0.124047
      7          1           0       -2.620018   -0.386234    0.016605
      8          1           0        0.497795    1.494842    0.229034
 ---------------------------------------------------------------------

 SCF Done:  E(RB2PLYPD3) =  -191.592072359     A.U. after   13 cycles
 E2(B2PLYPD3) =    -0.2491312084D+00 E(B2PLYPD3) =    -0.19184120356753D+03

 The electronic state is 1-A.
 Alpha  occ. eigenvalues --  -19.73357 -10.72712 -10.64095 -10.63596  -1.17574
 Alpha  occ. eigenvalues --   -0.94210  -0.77610  -0.66806  -0.58434  -0.56680
 Alpha  occ. eigenvalues --   -0.51276  -0.46863  -0.44334  -0.34725  -0.34522
 Alpha virt. eigenvalues --   -0.02762   0.05870   0.06699   0.08207   0.09749
 Alpha virt. eigenvalues --    0.12638   0.14426   0.14906   0.17581   0.19420
 Alpha virt. eigenvalues --    0.20017   0.22405   0.24917   0.26625   0.29416

 Mulliken charges:
               1
     1  C    0.144024
     2  O   -0.355945
     3  C   -0.006191
     4  C   -0.118513
     5  H    0.089708
     6  H    0.063028
     7  H    0.105400
     8  H    0.078489
 Sum of Mulliken charges =   0.00000

 Dipole moment (field-independent basis, Debye):
    X=             -3.6292    Y=              0.9396    Z=              0.5013  Tot=              3.7823
 Quadrupole moment (field-independent basis, Debye-Ang):
   XX=            -27.2106   YY=            -22.0849   ZZ=            -24.9836
   XY=              1.3329   XZ=              0.3070   YZ=             -0.3321

 Normal termination of Gaussian 09 at Wed Aug 26 13:09:27 2020.
