 Gaussian 09, Revision D.01,
 Gaussian 09:  ES64L-G09RevD.01 24-Apr-2013

 --------------------
 #p B2PLYPD3/Def2QZVP
 --------------------

 --------
 acrolein
 --------
 Symbolic Z-matrix:
 Charge =  0 Multiplicity = 1

                         Standard orientation:
 ---------------------------------------------------------------------
 Center     Atomic      Atomic             Coordinates (Angstroms)
 Number     Number       Type             X           Y           Z
 ---------------------------------------------------------------------
      1          6           0        0.665725    0.337542   -0.034609
      2          8           0        1.783635   -0.122711    0.020785
      3          6           0       -0.548256   -0.427811    0.004993
      4          6           0       -1.753997    0.132720    0.000532
      5          1           0       -0.395160   -1.503502   -0.008138
      6          1           0       -1.842968    1.188098    0.139866
      7          1           0       -2.713753   -0.455389   -0.056047
      8          1           0        0.501972    1.497770   -0.067462
 ---------------------------------------------------------------------

 SCF Done:  E(RB2PLYPD3) =  -191.610735364     A.U. after   13 cycles
 E2(B2PLYPD3) =    -0.2478609963D+00 E(B2PLYPD3) =    -0.19185859636019D+03

 The electronic state is 1-A.
 Alpha  occ. eigenvalues --  -19.72940 -10.71901 -10.66071 -10.64316  -1.19664
 Alpha  occ. eigenvalues --   -0.93490  -0.75785  -0.66156  -0.56657  -0.56109
 Alpha  occ. eigenvalues --   -0.50366  -0.47139  -0.46587  -0.34822  -0.33748
 Alpha virt. eigenvalues --   -0.02207   0.05652   0.06950   0.08500   0.09839
 Alpha virt. eigenvalues --    0.12356   0.13794   0.15310   0.17230   0.19687
 Alpha virt. eigenvalues --    0.20183   0.21411   0.25273   0.26445   0.28721

 Mulliken charges:
               1
     1  C    0.161541
     2  O   -0.346878
     3  C   -0.026897
     4  C   -0.127884
     5  H    0.102182
     6  H    0.089680
     7  H    0.103033
     8  H    0.045224
 Sum of Mulliken charges =   0.00000

 Dipole moment (field-independent basis, Debye):
    X=             -3.5641    Y=              0.6483    Z=             -0.0396  Tot=              3.6228
 Quadrupole moment (field-independent basis, Debye-Ang):
   XX=            -27.1610   YY=            -22.0915   ZZ=            -25.2124
   XY=              0.8369   XZ=             -0.1675   YZ=              0.2062

 Normal termination of Gaussian 09 at Wed Aug 26 21:01:15 2020.
