 Gaussian 09, Revision D.01,
 Gaussian 09:  ES64L-G09RevD.01 24-Apr-2013

 --------------------
 #p B2PLYPD3/Def2QZVP
 --------------------

 --------
 acrolein
 --------
 Symbolic Z-matrix:
 Charge =  0 Multiplicity = 1

                         Standard orientation:
 ---------------------------------------------------------------------
 Center     Atomic      Atomic             Coordinates (Angstroms)
 Number     Number       Type             X           Y           Z
 ---------------------------------------------------------------------
      1          6           0        0.640041   -0.344008   -0.080048
      2          8           0        1.800151    0.079980    0.063955
      3          6           0       -0.582193    0.504234   -0.046515
      4          6           0       -1.744475   -0.159886    0.005400
      5          1           0       -0.375104    1.631058   -0.035904
      6          1           0       -1.859313   -1.309814    0.103537
      7          1           0       -2.580085    0.338247    0.198923
      8          1           0        0.533054   -1.301364   -0.051218
 ---------------------------------------------------------------------

 SCF Done:  E(RB2PLYPD3) =  -191.581301058     A.U. after   13 cycles
 E2(B2PLYPD3) =    -0.2487547782D+00 E(B2PLYPD3) =    -0.19183005583671D+03

 The electronic state is 1-A.
 Alpha  occ. eigenvalues --  -19.72332 -10.70254 -10.65825 -10.65549  -1.17304
 Alpha  occ. eigenvalues --   -0.93064  -0.76594  -0.68508  -0.56777  -0.56042
 Alpha  occ. eigenvalues --   -0.50128  -0.46548  -0.45409  -0.34573  -0.33764
 Alpha virt. eigenvalues --   -0.02033   0.05483   0.07084   0.07314   0.09549
 Alpha virt. eigenvalues --    0.12674   0.14249   0.15125   0.17261   0.19498
 Alpha virt. eigenvalues --    0.19764   0.22175   0.24492   0.27060   0.28677

 Mulliken charges:
               1
     1  C    0.166828
     2  O   -0.376308
     3  C   -0.048296
     4  C   -0.120460
     5  H    0.109477
     6  H    0.079059
     7  H    0.100852
     8  H    0.088850
 Sum of Mulliken charges =   0.00000

 Dipole moment (field-independent basis, Debye):
    X=             -3.6682    Y=             -0.7565    Z=             -0.0354  Tot=              3.7456
 Quadrupole moment (field-independent basis, Debye-Ang):
   XX=            -28.1423   YY=            -21.2041   ZZ=            -25.1928
   XY=             -0.4770   XZ=             -0.9601   YZ=             -0.0495

 Normal termination of Gaussian 09 at Wed Aug 26 11:42:00 2020.
