 Gaussian 09, Revision D.01,
 Gaussian 09:  ES64L-G09RevD.01 24-Apr-2013

 --------------------
 #p B2PLYPD3/Def2QZVP
 --------------------

 --------
 acrolein
 --------
 Symbolic Z-matrix:
 Charge =  0 Multiplicity = 1

                         Standard orientation:
 ---------------------------------------------------------------------
 Center     Atomic      Atomic             Coordinates (Angstroms)
 Number     Number       Type             X           Y           Z
 ---------------------------------------------------------------------
      1          6           0       -0.667626    0.345191    0.000804
      2          8           0       -1.792728   -0.113988   -0.009540
      3          6           0        0.566710   -0.464352    0.003923
      4          6           0        1.758043    0.147950   -0.017713
      5          1           0        0.446840   -1.562684    0.052327
      6          1           0        1.846568    1.256570   -0.008396
      7          1           0        2.614630   -0.423805    0.028225
      8          1           0       -0.508968    1.469083    0.082074
 ---------------------------------------------------------------------

 SCF Done:  E(RB2PLYPD3) =  -191.612538312     A.U. after   12 cycles
 E2(B2PLYPD3) =    -0.2478454972D+00 E(B2PLYPD3) =    -0.19186038380881D+03

 The electronic state is 1-A.
 Alpha  occ. eigenvalues --  -19.72849 -10.71941 -10.65374 -10.64895  -1.19226
 Alpha  occ. eigenvalues --   -0.92881  -0.75490  -0.66214  -0.56760  -0.55946
 Alpha  occ. eigenvalues --   -0.50402  -0.47217  -0.46485  -0.34636  -0.33727
 Alpha virt. eigenvalues --   -0.01817   0.05770   0.06912   0.08067   0.09711
 Alpha virt. eigenvalues --    0.12540   0.13963   0.15319   0.17199   0.19571
 Alpha virt. eigenvalues --    0.20038   0.21877   0.25239   0.26463   0.28630

 Mulliken charges:
               1
     1  C    0.159632
     2  O   -0.348325
     3  C   -0.042760
     4  C   -0.129272
     5  H    0.103454
     6  H    0.087565
     7  H    0.105531
     8  H    0.064174
 Sum of Mulliken charges =   0.00000

 Dipole moment (field-independent basis, Debye):
    X=              3.5158    Y=              0.6930    Z=              0.1141  Tot=              3.5852
 Quadrupole moment (field-independent basis, Debye-Ang):
   XX=            -27.6235   YY=            -21.6189   ZZ=            -25.2974
   XY=             -0.8504   XZ=              0.0344   YZ=             -0.0665

 Normal termination of Gaussian 09 at Wed Aug 26 18:36:17 2020.
