 Gaussian 09, Revision D.01,
 Gaussian 09:  ES64L-G09RevD.01 24-Apr-2013

 --------------------
 #p B2PLYPD3/Def2QZVP
 --------------------

 --------
 acrolein
 --------
 Symbolic Z-matrix:
 Charge =  0 Multiplicity = 1

                         Standard orientation:
 ---------------------------------------------------------------------
 Center     Atomic      Atomic             Coordinates (Angstroms)
 Number     Number       Type             X           Y           Z
 ---------------------------------------------------------------------
      1          6           0        0.671161    0.358126    0.011425
      2          8           0        1.789986   -0.129472   -0.021217
      3          6           0       -0.561764   -0.437059    0.037002
      4          6           0       -1.756299    0.134223   -0.027154
      5          1           0       -0.457251   -1.522790    0.022449
      6          1           0       -1.851496    1.188780    0.017184
      7          1           0       -2.634520   -0.424885   -0.043716
      8          1           0        0.504794    1.462929    0.046179
 ---------------------------------------------------------------------

 SCF Done:  E(RB2PLYPD3) =  -191.614987277     A.U. after   13 cycles
 E2(B2PLYPD3) =    -0.2473193144D+00 E(B2PLYPD3) =    -0.19186230659136D+03

 The electronic state is 1-A.
 Alpha  occ. eigenvalues --  -19.72935 -10.71897 -10.64685 -10.64323  -1.18968
 Alpha  occ. eigenvalues --   -0.93348  -0.75982  -0.66915  -0.56897  -0.56580
 Alpha  occ. eigenvalues --   -0.50669  -0.47018  -0.46478  -0.34774  -0.33961
 Alpha virt. eigenvalues --   -0.01874   0.05827   0.07137   0.08148   0.09782
 Alpha virt. eigenvalues --    0.12672   0.14024   0.15327   0.17365   0.19909
 Alpha virt. eigenvalues --    0.20012   0.21937   0.25412   0.26392   0.28616

 Mulliken charges:
               1
     1  C    0.155628
     2  O   -0.352032
     3  C   -0.034928
     4  C   -0.128711
     5  H    0.102535
     6  H    0.082594
     7  H    0.102848
     8  H    0.072067
 Sum of Mulliken charges =   0.00000

 Dipole moment (field-independent basis, Debye):
    X=             -3.5338    Y=              0.7914    Z=              0.0706  Tot=              3.6220
 Quadrupole moment (field-independent basis, Debye-Ang):
   XX=            -27.4303   YY=            -21.7442   ZZ=            -25.1556
   XY=              0.9738   XZ=              0.1793   YZ=              0.0588

 Normal termination of Gaussian 09 at Wed Aug 26 18:48:14 2020.
