 Gaussian 09, Revision D.01,
 Gaussian 09:  ES64L-G09RevD.01 24-Apr-2013

 --------------------
 #p B2PLYPD3/Def2QZVP
 --------------------

 --------
 acrolein
 --------
 Symbolic Z-matrix:
 Charge =  0 Multiplicity = 1

                         Standard orientation:
 ---------------------------------------------------------------------
 Center     Atomic      Atomic             Coordinates (Angstroms)
 Number     Number       Type             X           Y           Z
 ---------------------------------------------------------------------
      1          6           0        0.661301    0.334376    0.026011
      2          8           0        1.798147   -0.108369   -0.021018
      3          6           0       -0.563513   -0.463205    0.002322
      4          6           0       -1.744607    0.156134   -0.015865
      5          1           0       -0.478994   -1.547496    0.061270
      6          1           0       -1.822619    1.211037   -0.029383
      7          1           0       -2.678748   -0.403016    0.003974
      8          1           0        0.476104    1.442599    0.057472
 ---------------------------------------------------------------------

 SCF Done:  E(RB2PLYPD3) =  -191.615459076     A.U. after   12 cycles
 E2(B2PLYPD3) =    -0.2477838566D+00 E(B2PLYPD3) =    -0.19186324293287D+03

 The electronic state is 1-A.
 Alpha  occ. eigenvalues --  -19.72820 -10.71816 -10.65467 -10.64608  -1.18843
 Alpha  occ. eigenvalues --   -0.93373  -0.75606  -0.66948  -0.56533  -0.56342
 Alpha  occ. eigenvalues --   -0.50239  -0.47329  -0.46435  -0.34763  -0.33821
 Alpha virt. eigenvalues --   -0.01961   0.05748   0.06981   0.08114   0.09703
 Alpha virt. eigenvalues --    0.12697   0.14042   0.15240   0.17358   0.19929
 Alpha virt. eigenvalues --    0.20105   0.21498   0.25319   0.26448   0.28728

 Mulliken charges:
               1
     1  C    0.152345
     2  O   -0.352794
     3  C   -0.027836
     4  C   -0.129316
     5  H    0.103663
     6  H    0.088750
     7  H    0.099852
     8  H    0.065337
 Sum of Mulliken charges =   0.00000

 Dipole moment (field-independent basis, Debye):
    X=             -3.6268    Y=              0.6960    Z=              0.1296  Tot=              3.6953
 Quadrupole moment (field-independent basis, Debye-Ang):
   XX=            -27.5364   YY=            -21.7403   ZZ=            -25.2230
   XY=              0.7830   XZ=              0.0969   YZ=             -0.1088

 Normal termination of Gaussian 09 at Wed Aug 26 16:16:40 2020.
