 Gaussian 09, Revision D.01,
 Gaussian 09:  ES64L-G09RevD.01 24-Apr-2013

 --------------------
 #p B2PLYPD3/Def2QZVP
 --------------------

 --------
 acrolein
 --------
 Symbolic Z-matrix:
 Charge =  0 Multiplicity = 1

                         Standard orientation:
 ---------------------------------------------------------------------
 Center     Atomic      Atomic             Coordinates (Angstroms)
 Number     Number       Type             X           Y           Z
 ---------------------------------------------------------------------
      1          6           0        0.673526    0.353266    0.032059
      2          8           0        1.787976   -0.133191   -0.025449
      3          6           0       -0.573863   -0.446707    0.032260
      4          6           0       -1.754416    0.138749   -0.024748
      5          1           0       -0.481916   -1.450348    0.013607
      6          1           0       -1.829539    1.216684    0.025008
      7          1           0       -2.589823   -0.445034   -0.056311
      8          1           0        0.525988    1.472382   -0.016135
 ---------------------------------------------------------------------

 SCF Done:  E(RB2PLYPD3) =  -191.609520002     A.U. after   12 cycles
 E2(B2PLYPD3) =    -0.2467024487D+00 E(B2PLYPD3) =    -0.19185622245037D+03

 The electronic state is 1-A.
 Alpha  occ. eigenvalues --  -19.72942 -10.71971 -10.64407 -10.63418  -1.19177
 Alpha  occ. eigenvalues --   -0.93629  -0.75656  -0.67639  -0.57461  -0.56180
 Alpha  occ. eigenvalues --   -0.50683  -0.48002  -0.46556  -0.34896  -0.33796
 Alpha virt. eigenvalues --   -0.01575   0.05880   0.07378   0.08021   0.09823
 Alpha virt. eigenvalues --    0.12670   0.13825   0.15355   0.17798   0.19701
 Alpha virt. eigenvalues --    0.20004   0.21968   0.25348   0.26559   0.28704

 Mulliken charges:
               1
     1  C    0.155540
     2  O   -0.349775
     3  C   -0.043020
     4  C   -0.129151
     5  H    0.109133
     6  H    0.086718
     7  H    0.101659
     8  H    0.068896
 Sum of Mulliken charges =   0.00000

 Dipole moment (field-independent basis, Debye):
    X=             -3.4580    Y=              0.7460    Z=              0.0703  Tot=              3.5383
 Quadrupole moment (field-independent basis, Debye-Ang):
   XX=            -27.5751   YY=            -21.6692   ZZ=            -25.0644
   XY=              1.0996   XZ=              0.2070   YZ=              0.0544

 Normal termination of Gaussian 09 at Wed Aug 26 09:07:21 2020.
