 Gaussian 09, Revision D.01,
 Gaussian 09:  ES64L-G09RevD.01 24-Apr-2013

 --------------------
 #p B2PLYPD3/Def2QZVP
 --------------------

 --------
 acrolein
 --------
 Symbolic Z-matrix:
 Charge =  0 Multiplicity = 1

                         Standard orientation:
 ---------------------------------------------------------------------
 Center     Atomic      Atomic             Coordinates (Angstroms)
 Number     Number       Type             X           Y           Z
 ---------------------------------------------------------------------
      1          6           0       -0.659286    0.344918   -0.063061
      2          8           0       -1.808051   -0.097253    0.051005
      3          6           0        0.584301   -0.467646   -0.070632
      4          6           0        1.768246    0.122297    0.009574
      5          1           0        0.421755   -1.492573    0.063807
      6          1           0        1.951746    1.406065    0.088928
      7          1           0        2.498908   -0.431431    0.175535
      8          1           0       -0.567566    1.298543    0.008401
 ---------------------------------------------------------------------

 SCF Done:  E(RB2PLYPD3) =  -191.553627527     A.U. after   13 cycles
 E2(B2PLYPD3) =    -0.2480928734D+00 E(B2PLYPD3) =    -0.19180172040039D+03

 The electronic state is 1-A.
 Alpha  occ. eigenvalues --  -19.72536 -10.70217 -10.65852 -10.64401  -1.17882
 Alpha  occ. eigenvalues --   -0.93634  -0.77349  -0.68928  -0.57915  -0.55610
 Alpha  occ. eigenvalues --   -0.50652  -0.46118  -0.45549  -0.34932  -0.33885
 Alpha virt. eigenvalues --   -0.02029   0.04939   0.07264   0.07791   0.09458
 Alpha virt. eigenvalues --    0.12094   0.13995   0.15265   0.17960   0.18576
 Alpha virt. eigenvalues --    0.19884   0.22621   0.24372   0.27376   0.28237

 Mulliken charges:
               1
     1  C    0.171137
     2  O   -0.370653
     3  C   -0.059057
     4  C   -0.131888
     5  H    0.109107
     6  H    0.078559
     7  H    0.115257
     8  H    0.087537
 Sum of Mulliken charges =   0.00000

 Dipole moment (field-independent basis, Debye):
    X=              3.5913    Y=              0.7549    Z=              0.1038  Tot=              3.6713
 Quadrupole moment (field-independent basis, Debye-Ang):
   XX=            -28.0979   YY=            -21.3426   ZZ=            -25.0824
   XY=             -0.8559   XZ=              0.8739   YZ=             -0.1207

 Normal termination of Gaussian 09 at Wed Aug 26 12:56:25 2020.
