 Gaussian 09, Revision D.01,
 Gaussian 09:  ES64L-G09RevD.01 24-Apr-2013

 --------------------
 #p B2PLYPD3/Def2QZVP
 --------------------

 --------
 acrolein
 --------
 Symbolic Z-matrix:
 Charge =  0 Multiplicity = 1

                         Standard orientation:
 ---------------------------------------------------------------------
 Center     Atomic      Atomic             Coordinates (Angstroms)
 Number     Number       Type             X           Y           Z
 ---------------------------------------------------------------------
      1          6           0        0.670605    0.337711   -0.005166
      2          8           0        1.789532   -0.108813    0.014907
      3          6           0       -0.554260   -0.457882   -0.023832
      4          6           0       -1.762279    0.144353    0.007228
      5          1           0       -0.417410   -1.542596   -0.026431
      6          1           0       -1.857688    1.242119   -0.012317
      7          1           0       -2.701512   -0.406597    0.079144
      8          1           0        0.535959    1.432485   -0.029028
 ---------------------------------------------------------------------

 SCF Done:  E(RB2PLYPD3) =  -191.615700061     A.U. after   13 cycles
 E2(B2PLYPD3) =    -0.2473322531D+00 E(B2PLYPD3) =    -0.19186303231396D+03

 The electronic state is 1-A.
 Alpha  occ. eigenvalues --  -19.72627 -10.71267 -10.66221 -10.64853  -1.19775
 Alpha  occ. eigenvalues --   -0.92633  -0.75449  -0.66801  -0.56608  -0.56115
 Alpha  occ. eigenvalues --   -0.50483  -0.47035  -0.46717  -0.34476  -0.33715
 Alpha virt. eigenvalues --   -0.01965   0.05681   0.07155   0.08323   0.09673
 Alpha virt. eigenvalues --    0.12442   0.14088   0.15364   0.17432   0.19711
 Alpha virt. eigenvalues --    0.19941   0.21440   0.25309   0.26416   0.28811

 Mulliken charges:
               1
     1  C    0.157517
     2  O   -0.347421
     3  C   -0.039912
     4  C   -0.129653
     5  H    0.105664
     6  H    0.085925
     7  H    0.102986
     8  H    0.064894
 Sum of Mulliken charges =   0.00000

 Dipole moment (field-independent basis, Debye):
    X=             -3.5308    Y=              0.7112    Z=             -0.0121  Tot=              3.6018
 Quadrupole moment (field-independent basis, Debye-Ang):
   XX=            -27.3032   YY=            -21.7911   ZZ=            -25.2846
   XY=              0.7859   XZ=             -0.2489   YZ=             -0.0416

 Normal termination of Gaussian 09 at Wed Aug 26 14:35:52 2020.
