 Gaussian 09, Revision D.01,
 Gaussian 09:  ES64L-G09RevD.01 24-Apr-2013

 --------------------
 #p B2PLYPD3/Def2QZVP
 --------------------

 --------
 acrolein
 --------
 Symbolic Z-matrix:
 Charge =  0 Multiplicity = 1

                         Standard orientation:
 ---------------------------------------------------------------------
 Center     Atomic      Atomic             Coordinates (Angstroms)
 Number     Number       Type             X           Y           Z
 ---------------------------------------------------------------------
      1          6           0       -0.654010    0.312690    0.037149
      2          8           0       -1.794008   -0.079089   -0.067218
      3          6           0        0.544843   -0.464330    0.046999
      4          6           0        1.783005    0.162608   -0.079137
      5          1           0        0.324789   -1.556549    0.178147
      6          1           0        1.869899    1.251449   -0.060605
      7          1           0        2.637810   -0.476965    0.042297
      8          1           0       -0.523459    1.348972    0.347845
 ---------------------------------------------------------------------

 SCF Done:  E(RB2PLYPD3) =  -191.601322753     A.U. after   13 cycles
 E2(B2PLYPD3) =    -0.2490068086D+00 E(B2PLYPD3) =    -0.19185032956199D+03

 The electronic state is 1-A.
 Alpha  occ. eigenvalues --  -19.72477 -10.70634 -10.66954 -10.65649  -1.19356
 Alpha  occ. eigenvalues --   -0.92477  -0.76509  -0.66452  -0.56436  -0.55964
 Alpha  occ. eigenvalues --   -0.50402  -0.48137  -0.45750  -0.34098  -0.33346
 Alpha virt. eigenvalues --   -0.02970   0.05747   0.06614   0.08474   0.09654
 Alpha virt. eigenvalues --    0.12563   0.13727   0.15180   0.17528   0.18518
 Alpha virt. eigenvalues --    0.20177   0.21671   0.24387   0.27211   0.28363

 Mulliken charges:
               1
     1  C    0.159443
     2  O   -0.353121
     3  C   -0.041751
     4  C   -0.130333
     5  H    0.102417
     6  H    0.098100
     7  H    0.107614
     8  H    0.057632
 Sum of Mulliken charges =   0.00000

 Dipole moment (field-independent basis, Debye):
    X=              3.6139    Y=              0.5905    Z=              0.4437  Tot=              3.6886
 Quadrupole moment (field-independent basis, Debye-Ang):
   XX=            -27.6554   YY=            -21.7593   ZZ=            -25.3318
   XY=             -0.4372   XZ=             -0.2976   YZ=             -0.2696

 Normal termination of Gaussian 09 at Wed Aug 26 13:46:47 2020.
