 Gaussian 09, Revision D.01,
 Gaussian 09:  ES64L-G09RevD.01 24-Apr-2013

 --------------------
 #p B2PLYPD3/Def2QZVP
 --------------------

 --------
 acrolein
 --------
 Symbolic Z-matrix:
 Charge =  0 Multiplicity = 1

                         Standard orientation:
 ---------------------------------------------------------------------
 Center     Atomic      Atomic             Coordinates (Angstroms)
 Number     Number       Type             X           Y           Z
 ---------------------------------------------------------------------
      1          6           0       -0.672967    0.356788   -0.022793
      2          8           0       -1.790775   -0.132814    0.022674
      3          6           0        0.560579   -0.442961   -0.021830
      4          6           0        1.751234    0.128980    0.012835
      5          1           0        0.485679   -1.474498    0.003864
      6          1           0        1.810054    1.236077    0.092575
      7          1           0        2.681901   -0.424073   -0.012723
      8          1           0       -0.484513    1.468168   -0.074374
 ---------------------------------------------------------------------

 SCF Done:  E(RB2PLYPD3) =  -191.613189890     A.U. after   13 cycles
 E2(B2PLYPD3) =    -0.2476189993D+00 E(B2PLYPD3) =    -0.19186080888915D+03

 The electronic state is 1-A.
 Alpha  occ. eigenvalues --  -19.73053 -10.72118 -10.65525 -10.63694  -1.19030
 Alpha  occ. eigenvalues --   -0.93391  -0.75283  -0.67258  -0.56715  -0.56085
 Alpha  occ. eigenvalues --   -0.50702  -0.46857  -0.46485  -0.34844  -0.34004
 Alpha virt. eigenvalues --   -0.01803   0.05688   0.07229   0.08064   0.09749
 Alpha virt. eigenvalues --    0.12493   0.13845   0.15389   0.17735   0.19428
 Alpha virt. eigenvalues --    0.20064   0.21409   0.25530   0.26390   0.28912

 Mulliken charges:
               1
     1  C    0.155619
     2  O   -0.350647
     3  C   -0.037834
     4  C   -0.125456
     5  H    0.107750
     6  H    0.075869
     7  H    0.102766
     8  H    0.071933
 Sum of Mulliken charges =   0.00000

 Dipole moment (field-independent basis, Debye):
    X=              3.5084    Y=              0.7536    Z=             -0.0319  Tot=              3.5886
 Quadrupole moment (field-independent basis, Debye-Ang):
   XX=            -27.4560   YY=            -21.8265   ZZ=            -25.1881
   XY=             -1.1079   XZ=              0.2211   YZ=              0.0689

 Normal termination of Gaussian 09 at Wed Aug 26 18:09:35 2020.
