 Gaussian 09, Revision D.01,
 Gaussian 09:  ES64L-G09RevD.01 24-Apr-2013

 --------------------
 #p B2PLYPD3/Def2QZVP
 --------------------

 --------
 acrolein
 --------
 Symbolic Z-matrix:
 Charge =  0 Multiplicity = 1

                         Standard orientation:
 ---------------------------------------------------------------------
 Center     Atomic      Atomic             Coordinates (Angstroms)
 Number     Number       Type             X           Y           Z
 ---------------------------------------------------------------------
      1          6           0       -0.673314    0.339761    0.009110
      2          8           0       -1.790764   -0.118300   -0.010964
      3          6           0        0.565827   -0.454290    0.005955
      4          6           0        1.755070    0.146611   -0.019332
      5          1           0        0.446920   -1.531963    0.077752
      6          1           0        1.803706    1.208846    0.089616
      7          1           0        2.681040   -0.406871   -0.050393
      8          1           0       -0.491044    1.483894   -0.003660
 ---------------------------------------------------------------------

 SCF Done:  E(RB2PLYPD3) =  -191.614346261     A.U. after   12 cycles
 E2(B2PLYPD3) =    -0.2474919887D+00 E(B2PLYPD3) =    -0.19186183824938D+03

 The electronic state is 1-A.
 Alpha  occ. eigenvalues --  -19.73032 -10.72102 -10.65364 -10.64531  -1.19798
 Alpha  occ. eigenvalues --   -0.93114  -0.75327  -0.66389  -0.56642  -0.56156
 Alpha  occ. eigenvalues --   -0.50611  -0.47477  -0.46649  -0.34742  -0.33736
 Alpha virt. eigenvalues --   -0.01798   0.05804   0.07011   0.08168   0.09784
 Alpha virt. eigenvalues --    0.12596   0.13858   0.15312   0.17277   0.19797
 Alpha virt. eigenvalues --    0.20195   0.21544   0.25292   0.26382   0.28770

 Mulliken charges:
               1
     1  C    0.158641
     2  O   -0.342481
     3  C   -0.033600
     4  C   -0.129063
     5  H    0.102527
     6  H    0.086440
     7  H    0.103774
     8  H    0.053763
 Sum of Mulliken charges =   0.00000

 Dipole moment (field-independent basis, Debye):
    X=              3.4839    Y=              0.6604    Z=              0.1356  Tot=              3.5485
 Quadrupole moment (field-independent basis, Debye-Ang):
   XX=            -27.3491   YY=            -21.9227   ZZ=            -25.2260
   XY=             -0.8763   XZ=              0.0082   YZ=              0.0266

 Normal termination of Gaussian 09 at Wed Aug 26 10:24:00 2020.
