 Gaussian 09, Revision D.01,
 Gaussian 09:  ES64L-G09RevD.01 24-Apr-2013

 --------------------
 #p B2PLYPD3/Def2QZVP
 --------------------

 --------
 acrolein
 --------
 Symbolic Z-matrix:
 Charge =  0 Multiplicity = 1

                         Standard orientation:
 ---------------------------------------------------------------------
 Center     Atomic      Atomic             Coordinates (Angstroms)
 Number     Number       Type             X           Y           Z
 ---------------------------------------------------------------------
      1          6           0        0.654362    0.345913    0.034765
      2          8           0        1.786057   -0.112405   -0.024373
      3          6           0       -0.562887   -0.454612    0.043821
      4          6           0       -1.745762    0.135458   -0.030962
      5          1           0       -0.465007   -1.535448   -0.036609
      6          1           0       -1.875992    1.258552    0.034224
      7          1           0       -2.588074   -0.381482   -0.042058
      8          1           0        0.566336    1.397062   -0.046316
 ---------------------------------------------------------------------

 SCF Done:  E(RB2PLYPD3) =  -191.605689283     A.U. after   13 cycles
 E2(B2PLYPD3) =    -0.2469217347D+00 E(B2PLYPD3) =    -0.19185261101744D+03

 The electronic state is 1-A.
 Alpha  occ. eigenvalues --  -19.72411 -10.70920 -10.64902 -10.64426  -1.18626
 Alpha  occ. eigenvalues --   -0.93565  -0.76426  -0.67472  -0.57362  -0.56736
 Alpha  occ. eigenvalues --   -0.50412  -0.46843  -0.46273  -0.34863  -0.33767
 Alpha virt. eigenvalues --   -0.01848   0.05772   0.07236   0.08027   0.09668
 Alpha virt. eigenvalues --    0.12612   0.14314   0.15319   0.17504   0.19669
 Alpha virt. eigenvalues --    0.20003   0.22127   0.24991   0.26635   0.28853

 Mulliken charges:
               1
     1  C    0.152911
     2  O   -0.358139
     3  C   -0.043275
     4  C   -0.120737
     5  H    0.106467
     6  H    0.078200
     7  H    0.103312
     8  H    0.081260
 Sum of Mulliken charges =   0.00000

 Dipole moment (field-independent basis, Debye):
    X=             -3.6146    Y=              0.7658    Z=              0.0313  Tot=              3.6950
 Quadrupole moment (field-independent basis, Debye-Ang):
   XX=            -27.5071   YY=            -21.5742   ZZ=            -25.0784
   XY=              0.9599   XZ=              0.1817   YZ=              0.1241

 Normal termination of Gaussian 09 at Wed Aug 26 09:13:02 2020.
