 Gaussian 09, Revision D.01,
 Gaussian 09:  ES64L-G09RevD.01 24-Apr-2013

 --------------------
 #p B2PLYPD3/Def2QZVP
 --------------------

 --------
 acrolein
 --------
 Symbolic Z-matrix:
 Charge =  0 Multiplicity = 1

                         Standard orientation:
 ---------------------------------------------------------------------
 Center     Atomic      Atomic             Coordinates (Angstroms)
 Number     Number       Type             X           Y           Z
 ---------------------------------------------------------------------
      1          6           0       -0.679981    0.349118    0.012206
      2          8           0       -1.791336   -0.117209   -0.019135
      3          6           0        0.572385   -0.466691    0.011509
      4          6           0        1.755879    0.143393   -0.010356
      5          1           0        0.441644   -1.534648    0.041985
      6          1           0        1.877987    1.246905   -0.063616
      7          1           0        2.647023   -0.398538   -0.001323
      8          1           0       -0.525659    1.469032    0.095882
 ---------------------------------------------------------------------

 SCF Done:  E(RB2PLYPD3) =  -191.614687853     A.U. after   12 cycles
 E2(B2PLYPD3) =    -0.2470030743D+00 E(B2PLYPD3) =    -0.19186169092719D+03

 The electronic state is 1-A.
 Alpha  occ. eigenvalues --  -19.72936 -10.71931 -10.65214 -10.64578  -1.19871
 Alpha  occ. eigenvalues --   -0.92688  -0.75116  -0.66602  -0.56785  -0.56040
 Alpha  occ. eigenvalues --   -0.50856  -0.47000  -0.46788  -0.34733  -0.33668
 Alpha virt. eigenvalues --   -0.01451   0.05782   0.07204   0.08016   0.09673
 Alpha virt. eigenvalues --    0.12533   0.14050   0.15382   0.17386   0.19546
 Alpha virt. eigenvalues --    0.20058   0.21747   0.25282   0.26502   0.28521

 Mulliken charges:
               1
     1  C    0.160437
     2  O   -0.342310
     3  C   -0.051188
     4  C   -0.126737
     5  H    0.107828
     6  H    0.083482
     7  H    0.101143
     8  H    0.067346
 Sum of Mulliken charges =   0.00000

 Dipole moment (field-independent basis, Debye):
    X=              3.4168    Y=              0.7155    Z=              0.0697  Tot=              3.4916
 Quadrupole moment (field-independent basis, Debye-Ang):
   XX=            -27.4115   YY=            -21.7083   ZZ=            -25.2469
   XY=             -0.7858   XZ=             -0.1834   YZ=             -0.0980

 Normal termination of Gaussian 09 at Wed Aug 26 19:12:30 2020.
