 Gaussian 09, Revision D.01,
 Gaussian 09:  ES64L-G09RevD.01 24-Apr-2013

 --------------------
 #p B2PLYPD3/Def2QZVP
 --------------------

 --------
 acrolein
 --------
 Symbolic Z-matrix:
 Charge =  0 Multiplicity = 1

                         Standard orientation:
 ---------------------------------------------------------------------
 Center     Atomic      Atomic             Coordinates (Angstroms)
 Number     Number       Type             X           Y           Z
 ---------------------------------------------------------------------
      1          6           0        0.638272    0.325349    0.082816
      2          8           0        1.822709   -0.100188   -0.070222
      3          6           0       -0.588222   -0.444438    0.025665
      4          6           0       -1.766988    0.134903   -0.026953
      5          1           0       -0.406527   -1.526368    0.121902
      6          1           0       -1.822302    1.282855   -0.169633
      7          1           0       -2.566707   -0.423088   -0.061651
      8          1           0        0.515498    1.373224    0.181985
 ---------------------------------------------------------------------

 SCF Done:  E(RB2PLYPD3) =  -191.593662263     A.U. after   13 cycles
 E2(B2PLYPD3) =    -0.2496092801D+00 E(B2PLYPD3) =    -0.19184327154292D+03

 The electronic state is 1-A.
 Alpha  occ. eigenvalues --  -19.72823 -10.71538 -10.65410 -10.64713  -1.16141
 Alpha  occ. eigenvalues --   -0.94345  -0.77398  -0.67071  -0.58057  -0.55774
 Alpha  occ. eigenvalues --   -0.50130  -0.46740  -0.45032  -0.35064  -0.33986
 Alpha virt. eigenvalues --   -0.02744   0.05585   0.07053   0.07817   0.09665
 Alpha virt. eigenvalues --    0.12630   0.13793   0.14981   0.17382   0.18979
 Alpha virt. eigenvalues --    0.20167   0.22285   0.24829   0.26831   0.28889

 Mulliken charges:
               1
     1  C    0.157603
     2  O   -0.379374
     3  C   -0.026304
     4  C   -0.124439
     5  H    0.097037
     6  H    0.086086
     7  H    0.112054
     8  H    0.077338
 Sum of Mulliken charges =   0.00000

 Dipole moment (field-independent basis, Debye):
    X=             -3.8515    Y=              0.7131    Z=              0.2402  Tot=              3.9243
 Quadrupole moment (field-independent basis, Debye-Ang):
   XX=            -28.0456   YY=            -21.6426   ZZ=            -25.1318
   XY=              0.8484   XZ=              0.6939   YZ=             -0.2694

 Normal termination of Gaussian 09 at Wed Aug 26 12:55:25 2020.
