 Gaussian 09, Revision D.01,
 Gaussian 09:  ES64L-G09RevD.01 24-Apr-2013

 --------------------
 #p B2PLYPD3/Def2QZVP
 --------------------

 --------
 acrolein
 --------
 Symbolic Z-matrix:
 Charge =  0 Multiplicity = 1

                         Standard orientation:
 ---------------------------------------------------------------------
 Center     Atomic      Atomic             Coordinates (Angstroms)
 Number     Number       Type             X           Y           Z
 ---------------------------------------------------------------------
      1          6           0       -0.670787    0.353130    0.012357
      2          8           0       -1.768994   -0.131333   -0.031624
      3          6           0        0.541255   -0.430387    0.021777
      4          6           0        1.754455    0.142344   -0.018103
      5          1           0        0.465429   -1.479053    0.091140
      6          1           0        1.799523    1.183040   -0.094839
      7          1           0        2.693557   -0.445248   -0.018605
      8          1           0       -0.556092    1.401407    0.179108
 ---------------------------------------------------------------------

 SCF Done:  E(RB2PLYPD3) =  -191.612891471     A.U. after   13 cycles
 E2(B2PLYPD3) =    -0.2462498144D+00 E(B2PLYPD3) =    -0.19185914128511D+03

 The electronic state is 1-A.
 Alpha  occ. eigenvalues --  -19.72496 -10.70745 -10.65357 -10.63780  -1.20026
 Alpha  occ. eigenvalues --   -0.93177  -0.75810  -0.67954  -0.57514  -0.56187
 Alpha  occ. eigenvalues --   -0.50566  -0.47563  -0.46739  -0.34463  -0.33856
 Alpha virt. eigenvalues --   -0.01821   0.05803   0.07266   0.08347   0.09780
 Alpha virt. eigenvalues --    0.12645   0.14108   0.15358   0.17856   0.19349
 Alpha virt. eigenvalues --    0.20330   0.21440   0.25337   0.26667   0.29057

 Mulliken charges:
               1
     1  C    0.145950
     2  O   -0.346430
     3  C   -0.037772
     4  C   -0.136097
     5  H    0.108093
     6  H    0.085422
     7  H    0.102390
     8  H    0.078444
 Sum of Mulliken charges =   0.00000

 Dipole moment (field-independent basis, Debye):
    X=              3.4440    Y=              0.8052    Z=              0.1306  Tot=              3.5393
 Quadrupole moment (field-independent basis, Debye-Ang):
   XX=            -27.2835   YY=            -21.7685   ZZ=            -25.0695
   XY=             -1.1856   XZ=             -0.3219   YZ=             -0.1524

 Normal termination of Gaussian 09 at Wed Aug 26 09:16:46 2020.
