 Gaussian 09, Revision D.01,
 Gaussian 09:  ES64L-G09RevD.01 24-Apr-2013

 --------------------
 #p B2PLYPD3/Def2QZVP
 --------------------

 --------
 acrolein
 --------
 Symbolic Z-matrix:
 Charge =  0 Multiplicity = 1

                         Standard orientation:
 ---------------------------------------------------------------------
 Center     Atomic      Atomic             Coordinates (Angstroms)
 Number     Number       Type             X           Y           Z
 ---------------------------------------------------------------------
      1          6           0       -0.671309    0.369186   -0.048040
      2          8           0       -1.781317   -0.138122    0.038430
      3          6           0        0.554650   -0.441936   -0.016357
      4          6           0        1.755690    0.130708    0.012684
      5          1           0        0.442909   -1.525663   -0.055861
      6          1           0        1.766640    1.187259    0.118148
      7          1           0        2.661257   -0.420857    0.020535
      8          1           0       -0.454457    1.516490   -0.079986
 ---------------------------------------------------------------------

 SCF Done:  E(RB2PLYPD3) =  -191.611113103     A.U. after   13 cycles
 E2(B2PLYPD3) =    -0.2483889585D+00 E(B2PLYPD3) =    -0.19185950206168D+03

 The electronic state is 1-A.
 Alpha  occ. eigenvalues --  -19.73224 -10.72595 -10.64892 -10.64328  -1.19032
 Alpha  occ. eigenvalues --   -0.93187  -0.75454  -0.66421  -0.56904  -0.55840
 Alpha  occ. eigenvalues --   -0.50656  -0.46840  -0.46562  -0.34642  -0.34018
 Alpha virt. eigenvalues --   -0.01933   0.05790   0.06978   0.07890   0.09877
 Alpha virt. eigenvalues --    0.12620   0.13736   0.15295   0.17187   0.19702
 Alpha virt. eigenvalues --    0.20182   0.21693   0.25314   0.26395   0.28965

 Mulliken charges:
               1
     1  C    0.159041
     2  O   -0.348541
     3  C   -0.031823
     4  C   -0.131772
     5  H    0.102899
     6  H    0.080105
     7  H    0.106342
     8  H    0.063750
 Sum of Mulliken charges =   0.00000

 Dipole moment (field-independent basis, Debye):
    X=              3.4606    Y=              0.7589    Z=             -0.0960  Tot=              3.5441
 Quadrupole moment (field-independent basis, Debye-Ang):
   XX=            -27.4741   YY=            -21.8193   ZZ=            -25.2531
   XY=             -1.0816   XZ=              0.3698   YZ=              0.1651

 Normal termination of Gaussian 09 at Wed Aug 26 10:03:01 2020.
