 Gaussian 09, Revision D.01,
 Gaussian 09:  ES64L-G09RevD.01 24-Apr-2013

 --------------------
 #p B2PLYPD3/Def2QZVP
 --------------------

 --------
 acrolein
 --------
 Symbolic Z-matrix:
 Charge =  0 Multiplicity = 1

                         Standard orientation:
 ---------------------------------------------------------------------
 Center     Atomic      Atomic             Coordinates (Angstroms)
 Number     Number       Type             X           Y           Z
 ---------------------------------------------------------------------
      1          6           0        0.687171    0.348050   -0.031601
      2          8           0        1.787038   -0.116692    0.042507
      3          6           0       -0.579465   -0.468753   -0.051013
      4          6           0       -1.760889    0.163073    0.031682
      5          1           0       -0.477180   -1.557975   -0.095888
      6          1           0       -1.808498    1.253419   -0.064297
      7          1           0       -2.636379   -0.412960    0.173065
      8          1           0        0.544847    1.396831   -0.047344
 ---------------------------------------------------------------------

 SCF Done:  E(RB2PLYPD3) =  -191.613028115     A.U. after   13 cycles
 E2(B2PLYPD3) =    -0.2464341826D+00 E(B2PLYPD3) =    -0.19185946229746D+03

 The electronic state is 1-A.
 Alpha  occ. eigenvalues --  -19.72746 -10.71156 -10.65191 -10.64679  -1.20334
 Alpha  occ. eigenvalues --   -0.92338  -0.74991  -0.67350  -0.56779  -0.56151
 Alpha  occ. eigenvalues --   -0.50725  -0.47659  -0.46704  -0.34393  -0.33620
 Alpha virt. eigenvalues --   -0.01275   0.05858   0.07192   0.07950   0.09710
 Alpha virt. eigenvalues --    0.12589   0.14041   0.15415   0.17524   0.19658
 Alpha virt. eigenvalues --    0.20034   0.21663   0.25022   0.26640   0.28660

 Mulliken charges:
               1
     1  C    0.156380
     2  O   -0.339751
     3  C   -0.050504
     4  C   -0.140293
     5  H    0.103034
     6  H    0.088283
     7  H    0.104529
     8  H    0.078322
 Sum of Mulliken charges =   0.00000

 Dipole moment (field-independent basis, Debye):
    X=             -3.3112    Y=              0.7804    Z=             -0.1345  Tot=              3.4046
 Quadrupole moment (field-independent basis, Debye-Ang):
   XX=            -27.6610   YY=            -21.5437   ZZ=            -25.2007
   XY=              1.0174   XZ=             -0.4910   YZ=             -0.0899

 Normal termination of Gaussian 09 at Wed Aug 26 08:54:25 2020.
