 Gaussian 09, Revision D.01,
 Gaussian 09:  ES64L-G09RevD.01 24-Apr-2013

 --------------------
 #p B2PLYPD3/Def2QZVP
 --------------------

 --------
 acrolein
 --------
 Symbolic Z-matrix:
 Charge =  0 Multiplicity = 1

                         Standard orientation:
 ---------------------------------------------------------------------
 Center     Atomic      Atomic             Coordinates (Angstroms)
 Number     Number       Type             X           Y           Z
 ---------------------------------------------------------------------
      1          6           0       -0.623507   -0.310769    0.030615
      2          8           0       -1.797816    0.083550   -0.061598
      3          6           0        0.566185    0.444347    0.067827
      4          6           0        1.752333   -0.147625   -0.036471
      5          1           0        0.351182    1.560842    0.070718
      6          1           0        1.765389   -1.252971   -0.139196
      7          1           0        2.639829    0.395866   -0.092475
      8          1           0       -0.543942   -1.287861    0.281909
 ---------------------------------------------------------------------

 SCF Done:  E(RB2PLYPD3) =  -191.597599848     A.U. after   13 cycles
 E2(B2PLYPD3) =    -0.2485057412D+00 E(B2PLYPD3) =    -0.19184610558935D+03

 The electronic state is 1-A.
 Alpha  occ. eigenvalues --  -19.72234 -10.69998 -10.66143 -10.64867  -1.17359
 Alpha  occ. eigenvalues --   -0.94374  -0.77366  -0.67565  -0.57300  -0.56686
 Alpha  occ. eigenvalues --   -0.50254  -0.46811  -0.45463  -0.34902  -0.33659
 Alpha virt. eigenvalues --   -0.02736   0.05640   0.06979   0.08262   0.09688
 Alpha virt. eigenvalues --    0.12758   0.13738   0.15159   0.17193   0.18722
 Alpha virt. eigenvalues --    0.20406   0.21653   0.25048   0.27235   0.29090

 Mulliken charges:
               1
     1  C    0.164771
     2  O   -0.378247
     3  C   -0.036022
     4  C   -0.116445
     5  H    0.097826
     6  H    0.086206
     7  H    0.112192
     8  H    0.069719
 Sum of Mulliken charges =   0.00000

 Dipole moment (field-independent basis, Debye):
    X=              3.8760    Y=             -0.6739    Z=              0.1514  Tot=              3.9370
 Quadrupole moment (field-independent basis, Debye-Ang):
   XX=            -27.6572   YY=            -21.7948   ZZ=            -25.0568
   XY=              0.7087   XZ=             -0.7957   YZ=              0.0998

 Normal termination of Gaussian 09 at Wed Aug 26 12:29:25 2020.
