 Gaussian 09, Revision D.01,
 Gaussian 09:  ES64L-G09RevD.01 24-Apr-2013

 --------------------
 #p B2PLYPD3/Def2QZVP
 --------------------

 --------
 acrolein
 --------
 Symbolic Z-matrix:
 Charge =  0 Multiplicity = 1

                         Standard orientation:
 ---------------------------------------------------------------------
 Center     Atomic      Atomic             Coordinates (Angstroms)
 Number     Number       Type             X           Y           Z
 ---------------------------------------------------------------------
      1          6           0        0.670422    0.342688   -0.006871
      2          8           0        1.785383   -0.117030    0.009183
      3          6           0       -0.566545   -0.456260   -0.016708
      4          6           0       -1.754263    0.156803    0.011600
      5          1           0       -0.443841   -1.544477   -0.019819
      6          1           0       -1.801690    1.185312   -0.053290
      7          1           0       -2.667297   -0.403636    0.056598
      8          1           0        0.532080    1.439656    0.014915
 ---------------------------------------------------------------------

 SCF Done:  E(RB2PLYPD3) =  -191.615364533     A.U. after   12 cycles
 E2(B2PLYPD3) =    -0.2466965802D+00 E(B2PLYPD3) =    -0.19186206111352D+03

 The electronic state is 1-A.
 Alpha  occ. eigenvalues --  -19.72709 -10.71433 -10.64893 -10.64577  -1.19730
 Alpha  occ. eigenvalues --   -0.93084  -0.75583  -0.67110  -0.57008  -0.56426
 Alpha  occ. eigenvalues --   -0.50508  -0.47549  -0.46825  -0.34620  -0.33728
 Alpha virt. eigenvalues --   -0.01676   0.05879   0.07155   0.08194   0.09793
 Alpha virt. eigenvalues --    0.12705   0.14076   0.15345   0.17279   0.19903
 Alpha virt. eigenvalues --    0.20254   0.21715   0.25319   0.26433   0.28823

 Mulliken charges:
               1
     1  C    0.151861
     2  O   -0.346483
     3  C   -0.034596
     4  C   -0.135473
     5  H    0.103624
     6  H    0.090622
     7  H    0.103051
     8  H    0.067394
 Sum of Mulliken charges =   0.00000

 Dipole moment (field-independent basis, Debye):
    X=             -3.4697    Y=              0.7402    Z=             -0.0372  Tot=              3.5479
 Quadrupole moment (field-independent basis, Debye-Ang):
   XX=            -27.4304   YY=            -21.7184   ZZ=            -25.1630
   XY=              0.9143   XZ=             -0.0900   YZ=             -0.0702

 Normal termination of Gaussian 09 at Wed Aug 26 16:09:36 2020.
