 Gaussian 09, Revision D.01,
 Gaussian 09:  ES64L-G09RevD.01 24-Apr-2013

 --------------------
 #p B2PLYPD3/Def2QZVP
 --------------------

 --------
 acrolein
 --------
 Symbolic Z-matrix:
 Charge =  0 Multiplicity = 1

                         Standard orientation:
 ---------------------------------------------------------------------
 Center     Atomic      Atomic             Coordinates (Angstroms)
 Number     Number       Type             X           Y           Z
 ---------------------------------------------------------------------
      1          6           0       -0.666200    0.343335   -0.008541
      2          8           0       -1.790453   -0.114392    0.018774
      3          6           0        0.561403   -0.452883   -0.021206
      4          6           0        1.750410    0.138123    0.005334
      5          1           0        0.450974   -1.537693   -0.043228
      6          1           0        1.846143    1.270686    0.017507
      7          1           0        2.646100   -0.428471    0.079064
      8          1           0       -0.493268    1.439162   -0.057053
 ---------------------------------------------------------------------

 SCF Done:  E(RB2PLYPD3) =  -191.614598154     A.U. after   12 cycles
 E2(B2PLYPD3) =    -0.2474921373D+00 E(B2PLYPD3) =    -0.19186209029154D+03

 The electronic state is 1-A.
 Alpha  occ. eigenvalues --  -19.72815 -10.71591 -10.65813 -10.64429  -1.19282
 Alpha  occ. eigenvalues --   -0.93186  -0.75508  -0.66602  -0.56690  -0.56001
 Alpha  occ. eigenvalues --   -0.50593  -0.46845  -0.46419  -0.34830  -0.33835
 Alpha virt. eigenvalues --   -0.01794   0.05669   0.07043   0.08231   0.09696
 Alpha virt. eigenvalues --    0.12489   0.13978   0.15313   0.17441   0.19499
 Alpha virt. eigenvalues --    0.19924   0.21669   0.25478   0.26508   0.28703

 Mulliken charges:
               1
     1  C    0.158889
     2  O   -0.350385
     3  C   -0.038188
     4  C   -0.127094
     5  H    0.103307
     6  H    0.081052
     7  H    0.104869
     8  H    0.067550
 Sum of Mulliken charges =   0.00000

 Dipole moment (field-independent basis, Debye):
    X=              3.5373    Y=              0.7032    Z=             -0.0253  Tot=              3.6066
 Quadrupole moment (field-independent basis, Debye-Ang):
   XX=            -27.5396   YY=            -21.7234   ZZ=            -25.2354
   XY=             -0.8901   XZ=              0.3007   YZ=              0.0062

 Normal termination of Gaussian 09 at Wed Aug 26 08:42:42 2020.
