 Gaussian 09, Revision D.01,
 Gaussian 09:  ES64L-G09RevD.01 24-Apr-2013

 --------------------
 #p B2PLYPD3/Def2QZVP
 --------------------

 --------
 acrolein
 --------
 Symbolic Z-matrix:
 Charge =  0 Multiplicity = 1

                         Standard orientation:
 ---------------------------------------------------------------------
 Center     Atomic      Atomic             Coordinates (Angstroms)
 Number     Number       Type             X           Y           Z
 ---------------------------------------------------------------------
      1          6           0       -0.666170    0.341312   -0.012125
      2          8           0       -1.775490   -0.121273    0.020634
      3          6           0        0.516836   -0.423592   -0.013491
      4          6           0        1.745859    0.128781   -0.014698
      5          1           0        0.463913   -1.505188   -0.102939
      6          1           0        1.794629    1.132756   -0.077730
      7          1           0        2.811579   -0.385233    0.227927
      8          1           0       -0.445348    1.448844    0.029562
 ---------------------------------------------------------------------

 SCF Done:  E(RB2PLYPD3) =  -191.594328635     A.U. after   13 cycles
 E2(B2PLYPD3) =    -0.2480918991D+00 E(B2PLYPD3) =    -0.19184242053440D+03

 The electronic state is 1-A.
 Alpha  occ. eigenvalues --  -19.72770 -10.71316 -10.66408 -10.64195  -1.20095
 Alpha  occ. eigenvalues --   -0.93692  -0.76135  -0.67197  -0.57296  -0.55632
 Alpha  occ. eigenvalues --   -0.49996  -0.47694  -0.46101  -0.34470  -0.33902
 Alpha virt. eigenvalues --   -0.02591   0.05394   0.07034   0.08572   0.09672
 Alpha virt. eigenvalues --    0.12333   0.14046   0.15245   0.17655   0.19169
 Alpha virt. eigenvalues --    0.20122   0.21615   0.25463   0.26286   0.28940

 Mulliken charges:
               1
     1  C    0.143788
     2  O   -0.343626
     3  C   -0.012475
     4  C   -0.126579
     5  H    0.102435
     6  H    0.081635
     7  H    0.098902
     8  H    0.055921
 Sum of Mulliken charges =   0.00000

 Dipole moment (field-independent basis, Debye):
    X=              3.6154    Y=              0.7390    Z=             -0.0144  Tot=              3.6902
 Quadrupole moment (field-independent basis, Debye-Ang):
   XX=            -26.8965   YY=            -22.2573   ZZ=            -25.1155
   XY=             -0.8244   XZ=              0.5089   YZ=             -0.0371

 Normal termination of Gaussian 09 at Wed Aug 26 11:59:32 2020.
