 Gaussian 09, Revision D.01,
 Gaussian 09:  ES64L-G09RevD.01 24-Apr-2013

 --------------------
 #p B2PLYPD3/Def2QZVP
 --------------------

 --------
 acrolein
 --------
 Symbolic Z-matrix:
 Charge =  0 Multiplicity = 1

                         Standard orientation:
 ---------------------------------------------------------------------
 Center     Atomic      Atomic             Coordinates (Angstroms)
 Number     Number       Type             X           Y           Z
 ---------------------------------------------------------------------
      1          6           0       -0.676549    0.351253    0.020842
      2          8           0       -1.784503   -0.124649   -0.021220
      3          6           0        0.548857   -0.446689    0.009690
      4          6           0        1.760573    0.132505   -0.010358
      5          1           0        0.446116   -1.504700    0.031579
      6          1           0        1.881046    1.258090   -0.077706
      7          1           0        2.683123   -0.446299    0.012959
      8          1           0       -0.531545    1.467685    0.081884
 ---------------------------------------------------------------------

 SCF Done:  E(RB2PLYPD3) =  -191.614463946     A.U. after   13 cycles
 E2(B2PLYPD3) =    -0.2474554513D+00 E(B2PLYPD3) =    -0.19186191939737D+03

 The electronic state is 1-A.
 Alpha  occ. eigenvalues --  -19.72789 -10.71667 -10.66235 -10.64350  -1.19799
 Alpha  occ. eigenvalues --   -0.92672  -0.75192  -0.66698  -0.56445  -0.56122
 Alpha  occ. eigenvalues --   -0.50535  -0.46926  -0.46623  -0.34513  -0.33828
 Alpha virt. eigenvalues --   -0.01862   0.05631   0.07159   0.08245   0.09679
 Alpha virt. eigenvalues --    0.12327   0.13948   0.15401   0.17651   0.19345
 Alpha virt. eigenvalues --    0.20013   0.21461   0.25375   0.26376   0.28764

 Mulliken charges:
               1
     1  C    0.158331
     2  O   -0.345130
     3  C   -0.045539
     4  C   -0.128002
     5  H    0.108583
     6  H    0.081684
     7  H    0.102312
     8  H    0.067761
 Sum of Mulliken charges =   0.00000

 Dipole moment (field-independent basis, Debye):
    X=              3.4735    Y=              0.7274    Z=              0.0720  Tot=              3.5496
 Quadrupole moment (field-independent basis, Debye-Ang):
   XX=            -27.3360   YY=            -21.7734   ZZ=            -25.2953
   XY=             -0.9667   XZ=             -0.1797   YZ=             -0.1154

 Normal termination of Gaussian 09 at Wed Aug 26 15:19:40 2020.
