 Gaussian 09, Revision D.01,
 Gaussian 09:  ES64L-G09RevD.01 24-Apr-2013

 --------------------
 #p B2PLYPD3/Def2QZVP
 --------------------

 --------
 acrolein
 --------
 Symbolic Z-matrix:
 Charge =  0 Multiplicity = 1

                         Standard orientation:
 ---------------------------------------------------------------------
 Center     Atomic      Atomic             Coordinates (Angstroms)
 Number     Number       Type             X           Y           Z
 ---------------------------------------------------------------------
      1          6           0        0.659940    0.360304    0.053239
      2          8           0        1.797642   -0.141197   -0.065176
      3          6           0       -0.559138   -0.397953    0.126589
      4          6           0       -1.748303    0.130509   -0.057852
      5          1           0       -0.440508   -1.516113   -0.065605
      6          1           0       -1.849281    1.139819   -0.064977
      7          1           0       -2.776729   -0.459113   -0.131699
      8          1           0        0.570386    1.407823    0.051837
 ---------------------------------------------------------------------

 SCF Done:  E(RB2PLYPD3) =  -191.594050379     A.U. after   13 cycles
 E2(B2PLYPD3) =    -0.2491807788D+00 E(B2PLYPD3) =    -0.19184323115776D+03

 The electronic state is 1-A.
 Alpha  occ. eigenvalues --  -19.72720 -10.71433 -10.66019 -10.64697  -1.17280
 Alpha  occ. eigenvalues --   -0.94034  -0.76429  -0.67575  -0.57754  -0.55385
 Alpha  occ. eigenvalues --   -0.49793  -0.46074  -0.45071  -0.35087  -0.34118
 Alpha virt. eigenvalues --   -0.02545   0.05318   0.06872   0.07920   0.09715
 Alpha virt. eigenvalues --    0.12238   0.13543   0.15267   0.17771   0.19533
 Alpha virt. eigenvalues --    0.20147   0.21144   0.24151   0.26835   0.29088

 Mulliken charges:
               1
     1  C    0.150412
     2  O   -0.370414
     3  C   -0.034811
     4  C   -0.107300
     5  H    0.102556
     6  H    0.081720
     7  H    0.096317
     8  H    0.081520
 Sum of Mulliken charges =   0.00000

 Dipole moment (field-independent basis, Debye):
    X=             -3.7560    Y=              0.9877    Z=              0.0008  Tot=              3.8837
 Quadrupole moment (field-independent basis, Debye-Ang):
   XX=            -27.3321   YY=            -21.9439   ZZ=            -25.1808
   XY=              1.1114   XZ=              0.7853   YZ=              0.2038

 Normal termination of Gaussian 09 at Wed Aug 26 13:03:05 2020.
