 Gaussian 09, Revision D.01,
 Gaussian 09:  ES64L-G09RevD.01 24-Apr-2013

 --------------------
 #p B2PLYPD3/Def2QZVP
 --------------------

 --------
 acrolein
 --------
 Symbolic Z-matrix:
 Charge =  0 Multiplicity = 1

                         Standard orientation:
 ---------------------------------------------------------------------
 Center     Atomic      Atomic             Coordinates (Angstroms)
 Number     Number       Type             X           Y           Z
 ---------------------------------------------------------------------
      1          6           0       -0.677572    0.356600    0.053757
      2          8           0       -1.771327   -0.124243   -0.038659
      3          6           0        0.550601   -0.437468    0.020658
      4          6           0        1.767744    0.149994   -0.034509
      5          1           0        0.371567   -1.567936    0.036631
      6          1           0        1.817472    1.133079   -0.069907
      7          1           0        2.689434   -0.423532    0.042848
      8          1           0       -0.552490    1.437578    0.060261
 ---------------------------------------------------------------------

 SCF Done:  E(RB2PLYPD3) =  -191.605677082     A.U. after   13 cycles
 E2(B2PLYPD3) =    -0.2467283007D+00 E(B2PLYPD3) =    -0.19185240538219D+03

 The electronic state is 1-A.
 Alpha  occ. eigenvalues --  -19.72678 -10.71089 -10.65076 -10.64746  -1.20278
 Alpha  occ. eigenvalues --   -0.92686  -0.76033  -0.67052  -0.57480  -0.56216
 Alpha  occ. eigenvalues --   -0.50621  -0.47148  -0.46939  -0.34367  -0.33715
 Alpha virt. eigenvalues --   -0.01910   0.05888   0.07112   0.08303   0.09859
 Alpha virt. eigenvalues --    0.12626   0.14096   0.15430   0.17075   0.19833
 Alpha virt. eigenvalues --    0.20235   0.21919   0.25438   0.26415   0.28970

 Mulliken charges:
               1
     1  C    0.153944
     2  O   -0.343803
     3  C   -0.034264
     4  C   -0.141886
     5  H    0.099342
     6  H    0.091899
     7  H    0.105389
     8  H    0.069379
 Sum of Mulliken charges =   0.00000

 Dipole moment (field-independent basis, Debye):
    X=              3.3679    Y=              0.8251    Z=              0.1737  Tot=              3.4718
 Quadrupole moment (field-independent basis, Debye-Ang):
   XX=            -27.2439   YY=            -21.7560   ZZ=            -25.1915
   XY=             -0.8906   XZ=             -0.1682   YZ=             -0.1320

 Normal termination of Gaussian 09 at Wed Aug 26 20:47:49 2020.
