 Gaussian 09, Revision D.01,
 Gaussian 09:  ES64L-G09RevD.01 24-Apr-2013

 --------------------
 #p B2PLYPD3/Def2QZVP
 --------------------

 --------
 acrolein
 --------
 Symbolic Z-matrix:
 Charge =  0 Multiplicity = 1

                         Standard orientation:
 ---------------------------------------------------------------------
 Center     Atomic      Atomic             Coordinates (Angstroms)
 Number     Number       Type             X           Y           Z
 ---------------------------------------------------------------------
      1          6           0       -0.677279    0.352052   -0.044837
      2          8           0       -1.786394   -0.158197    0.035105
      3          6           0        0.561342   -0.396729   -0.016271
      4          6           0        1.750955    0.119943    0.000516
      5          1           0        0.480282   -1.357579   -0.034727
      6          1           0        1.671284    1.106105    0.162291
      7          1           0        2.773175   -0.459432    0.029346
      8          1           0       -0.443695    1.524886   -0.074195
 ---------------------------------------------------------------------

 SCF Done:  E(RB2PLYPD3) =  -191.579472772     A.U. after   13 cycles
 E2(B2PLYPD3) =    -0.2481504674D+00 E(B2PLYPD3) =    -0.19182762323903D+03

 The electronic state is 1-A.
 Alpha  occ. eigenvalues --  -19.73621 -10.72866 -10.64930 -10.62266  -1.19303
 Alpha  occ. eigenvalues --   -0.94979  -0.75739  -0.68267  -0.56707  -0.55826
 Alpha  occ. eigenvalues --   -0.50859  -0.47100  -0.46757  -0.35353  -0.34151
 Alpha virt. eigenvalues --   -0.02080   0.05612   0.07151   0.08387   0.09903
 Alpha virt. eigenvalues --    0.12422   0.13259   0.15295   0.17834   0.19511
 Alpha virt. eigenvalues --    0.20570   0.21073   0.25257   0.26322   0.29034

 Mulliken charges:
               1
     1  C    0.152945
     2  O   -0.346144
     3  C   -0.008089
     4  C   -0.130342
     5  H    0.102148
     6  H    0.077923
     7  H    0.106094
     8  H    0.045465
 Sum of Mulliken charges =   0.00000

 Dipole moment (field-independent basis, Debye):
    X=              3.4838    Y=              0.6593    Z=             -0.0177  Tot=              3.5457
 Quadrupole moment (field-independent basis, Debye-Ang):
   XX=            -27.0356   YY=            -22.4144   ZZ=            -24.9857
   XY=             -1.4370   XZ=              0.4244   YZ=              0.1836

 Normal termination of Gaussian 09 at Wed Aug 26 13:52:09 2020.
