 Gaussian 09, Revision D.01,
 Gaussian 09:  ES64L-G09RevD.01 24-Apr-2013

 --------------------
 #p B2PLYPD3/Def2QZVP
 --------------------

 --------
 acrolein
 --------
 Symbolic Z-matrix:
 Charge =  0 Multiplicity = 1

                         Standard orientation:
 ---------------------------------------------------------------------
 Center     Atomic      Atomic             Coordinates (Angstroms)
 Number     Number       Type             X           Y           Z
 ---------------------------------------------------------------------
      1          6           0       -0.681971    0.349853    0.040771
      2          8           0       -1.792363   -0.102050   -0.039915
      3          6           0        0.555163   -0.474125    0.002580
      4          6           0        1.774092    0.138923   -0.033548
      5          1           0        0.409105   -1.573997    0.145769
      6          1           0        1.927707    1.292127   -0.036105
      7          1           0        2.645564   -0.392558    0.010239
      8          1           0       -0.527182    1.402926    0.140594
 ---------------------------------------------------------------------

 SCF Done:  E(RB2PLYPD3) =  -191.605731305     A.U. after   12 cycles
 E2(B2PLYPD3) =    -0.2475225804D+00 E(B2PLYPD3) =    -0.19185325388516D+03

 The electronic state is 1-A.
 Alpha  occ. eigenvalues --  -19.72706 -10.71145 -10.66083 -10.65392  -1.20009
 Alpha  occ. eigenvalues --   -0.91835  -0.75623  -0.66871  -0.56764  -0.55617
 Alpha  occ. eigenvalues --   -0.50926  -0.47068  -0.46146  -0.34155  -0.33759
 Alpha virt. eigenvalues --   -0.01847   0.05638   0.07037   0.08067   0.09518
 Alpha virt. eigenvalues --    0.12413   0.14203   0.15294   0.17539   0.19234
 Alpha virt. eigenvalues --    0.20030   0.21816   0.24880   0.26776   0.28662

 Mulliken charges:
               1
     1  C    0.161750
     2  O   -0.343114
     3  C   -0.054658
     4  C   -0.131363
     5  H    0.104791
     6  H    0.078948
     7  H    0.105284
     8  H    0.078362
 Sum of Mulliken charges =   0.00000

 Dipole moment (field-independent basis, Debye):
    X=              3.4335    Y=              0.7536    Z=              0.2998  Tot=              3.5280
 Quadrupole moment (field-independent basis, Debye-Ang):
   XX=            -27.4023   YY=            -21.6213   ZZ=            -25.3472
   XY=             -0.6634   XZ=             -0.1543   YZ=             -0.2159

 Normal termination of Gaussian 09 at Wed Aug 26 08:50:16 2020.
