 Gaussian 09, Revision D.01,
 Gaussian 09:  ES64L-G09RevD.01 24-Apr-2013

 --------------------
 #p B2PLYPD3/Def2QZVP
 --------------------

 --------
 acrolein
 --------
 Symbolic Z-matrix:
 Charge =  0 Multiplicity = 1

                         Standard orientation:
 ---------------------------------------------------------------------
 Center     Atomic      Atomic             Coordinates (Angstroms)
 Number     Number       Type             X           Y           Z
 ---------------------------------------------------------------------
      1          6           0        0.666952    0.332689    0.042557
      2          8           0        1.814208   -0.103467   -0.036919
      3          6           0       -0.583508   -0.476500    0.003548
      4          6           0       -1.758448    0.161243   -0.006161
      5          1           0       -0.467387   -1.564603    0.095645
      6          1           0       -1.789309    1.227687   -0.104059
      7          1           0       -2.648437   -0.388607   -0.046332
      8          1           0        0.441491    1.448669    0.110439
 ---------------------------------------------------------------------

 SCF Done:  E(RB2PLYPD3) =  -191.611616019     A.U. after   13 cycles
 E2(B2PLYPD3) =    -0.2486951605D+00 E(B2PLYPD3) =    -0.19186031117901D+03

 The electronic state is 1-A.
 Alpha  occ. eigenvalues --  -19.73169 -10.72433 -10.65215 -10.64985  -1.18441
 Alpha  occ. eigenvalues --   -0.93161  -0.75540  -0.66572  -0.56777  -0.55751
 Alpha  occ. eigenvalues --   -0.50436  -0.47521  -0.46067  -0.34790  -0.33821
 Alpha virt. eigenvalues --   -0.02027   0.05808   0.06976   0.07673   0.09709
 Alpha virt. eigenvalues --    0.12809   0.13805   0.15087   0.17229   0.19699
 Alpha virt. eigenvalues --    0.20193   0.21684   0.24790   0.26698   0.28594

 Mulliken charges:
               1
     1  C    0.158842
     2  O   -0.352921
     3  C   -0.033623
     4  C   -0.127896
     5  H    0.101725
     6  H    0.087285
     7  H    0.103996
     8  H    0.062592
 Sum of Mulliken charges =   0.00000

 Dipole moment (field-independent basis, Debye):
    X=             -3.6052    Y=              0.6569    Z=              0.1247  Tot=              3.6667
 Quadrupole moment (field-independent basis, Debye-Ang):
   XX=            -27.7510   YY=            -21.7436   ZZ=            -25.2815
   XY=              0.7337   XZ=              0.3932   YZ=             -0.2095

 Normal termination of Gaussian 09 at Wed Aug 26 08:44:35 2020.
