 Gaussian 09, Revision D.01,
 Gaussian 09:  ES64L-G09RevD.01 24-Apr-2013

 --------------------
 #p B2PLYPD3/Def2QZVP
 --------------------

 --------
 acrolein
 --------
 Symbolic Z-matrix:
 Charge =  0 Multiplicity = 1

                         Standard orientation:
 ---------------------------------------------------------------------
 Center     Atomic      Atomic             Coordinates (Angstroms)
 Number     Number       Type             X           Y           Z
 ---------------------------------------------------------------------
      1          6           0       -0.681743    0.357416   -0.007522
      2          8           0       -1.777987   -0.135462   -0.010337
      3          6           0        0.549011   -0.421637    0.004564
      4          6           0        1.762170    0.137987   -0.001159
      5          1           0        0.411695   -1.490903    0.054779
      6          1           0        1.825104    1.188314   -0.066088
      7          1           0        2.764236   -0.472348   -0.005058
      8          1           0       -0.553773    1.416035    0.123760
 ---------------------------------------------------------------------

 SCF Done:  E(RB2PLYPD3) =  -191.609780769     A.U. after   13 cycles
 E2(B2PLYPD3) =    -0.2468535451D+00 E(B2PLYPD3) =    -0.19185663431437D+03

 The electronic state is 1-A.
 Alpha  occ. eigenvalues --  -19.72751 -10.71050 -10.66085 -10.64140  -1.20111
 Alpha  occ. eigenvalues --   -0.92881  -0.75379  -0.67486  -0.57077  -0.55709
 Alpha  occ. eigenvalues --   -0.50536  -0.47145  -0.46328  -0.34630  -0.33902
 Alpha virt. eigenvalues --   -0.01804   0.05572   0.07202   0.08307   0.09776
 Alpha virt. eigenvalues --    0.12350   0.13915   0.15382   0.17789   0.19420
 Alpha virt. eigenvalues --    0.20160   0.21150   0.25408   0.26720   0.28865

 Mulliken charges:
               1
     1  C    0.154585
     2  O   -0.346303
     3  C   -0.039909
     4  C   -0.135526
     5  H    0.106685
     6  H    0.086368
     7  H    0.100410
     8  H    0.073690
 Sum of Mulliken charges =   0.00000

 Dipole moment (field-independent basis, Debye):
    X=              3.3923    Y=              0.8366    Z=              0.0421  Tot=              3.4942
 Quadrupole moment (field-independent basis, Debye-Ang):
   XX=            -27.2569   YY=            -21.8754   ZZ=            -25.1986
   XY=             -1.1002   XZ=             -0.1617   YZ=             -0.1058

 Normal termination of Gaussian 09 at Wed Aug 26 08:47:02 2020.
