 Gaussian 09, Revision D.01,
 Gaussian 09:  ES64L-G09RevD.01 24-Apr-2013

 --------------------
 #p B2PLYPD3/Def2QZVP
 --------------------

 --------
 acrolein
 --------
 Symbolic Z-matrix:
 Charge =  0 Multiplicity = 1

                         Standard orientation:
 ---------------------------------------------------------------------
 Center     Atomic      Atomic             Coordinates (Angstroms)
 Number     Number       Type             X           Y           Z
 ---------------------------------------------------------------------
      1          6           0       -0.692280    0.369704    0.048230
      2          8           0       -1.776874   -0.137466   -0.041615
      3          6           0        0.549555   -0.460615    0.019037
      4          6           0        1.764541    0.132166   -0.036405
      5          1           0        0.470958   -1.500055    0.069102
      6          1           0        1.879357    1.226231   -0.106163
      7          1           0        2.684002   -0.394969    0.061864
      8          1           0       -0.550217    1.520996    0.122946
 ---------------------------------------------------------------------

 SCF Done:  E(RB2PLYPD3) =  -191.611208147     A.U. after   12 cycles
 E2(B2PLYPD3) =    -0.2473914722D+00 E(B2PLYPD3) =    -0.19185859961905D+03

 The electronic state is 1-A.
 Alpha  occ. eigenvalues --  -19.73017 -10.72334 -10.65426 -10.64420  -1.20346
 Alpha  occ. eigenvalues --   -0.92038  -0.74746  -0.66787  -0.56478  -0.56186
 Alpha  occ. eigenvalues --   -0.50743  -0.47077  -0.46994  -0.34241  -0.33714
 Alpha virt. eigenvalues --   -0.01615   0.05775   0.07206   0.07902   0.09680
 Alpha virt. eigenvalues --    0.12360   0.14081   0.15519   0.17553   0.19498
 Alpha virt. eigenvalues --    0.19961   0.21605   0.25148   0.26274   0.28811

 Mulliken charges:
               1
     1  C    0.158145
     2  O   -0.334495
     3  C   -0.057332
     4  C   -0.128034
     5  H    0.113293
     6  H    0.077516
     7  H    0.098436
     8  H    0.072470
 Sum of Mulliken charges =   0.00000

 Dipole moment (field-independent basis, Debye):
    X=              3.2988    Y=              0.7862    Z=              0.2141  Tot=              3.3980
 Quadrupole moment (field-independent basis, Debye-Ang):
   XX=            -27.2295   YY=            -21.7323   ZZ=            -25.3216
   XY=             -1.0008   XZ=             -0.1655   YZ=             -0.1999

 Normal termination of Gaussian 09 at Wed Aug 26 09:21:40 2020.
