 Gaussian 09, Revision D.01,
 Gaussian 09:  ES64L-G09RevD.01 24-Apr-2013

 --------------------
 #p B2PLYPD3/Def2QZVP
 --------------------

 --------
 acrolein
 --------
 Symbolic Z-matrix:
 Charge =  0 Multiplicity = 1

                         Standard orientation:
 ---------------------------------------------------------------------
 Center     Atomic      Atomic             Coordinates (Angstroms)
 Number     Number       Type             X           Y           Z
 ---------------------------------------------------------------------
      1          6           0       -0.670318    0.342982    0.023608
      2          8           0       -1.784772   -0.110507   -0.022719
      3          6           0        0.564958   -0.462211    0.017304
      4          6           0        1.749214    0.146750   -0.023786
      5          1           0        0.459969   -1.513856    0.017846
      6          1           0        1.870852    1.258756   -0.052173
      7          1           0        2.632694   -0.407462    0.035554
      8          1           0       -0.548464    1.381489    0.077771
 ---------------------------------------------------------------------

 SCF Done:  E(RB2PLYPD3) =  -191.613259093     A.U. after   12 cycles
 E2(B2PLYPD3) =    -0.2460757679D+00 E(B2PLYPD3) =    -0.19185933486069D+03

 The electronic state is 1-A.
 Alpha  occ. eigenvalues --  -19.72492 -10.70702 -10.65326 -10.64125  -1.19739
 Alpha  occ. eigenvalues --   -0.93007  -0.75657  -0.67913  -0.56819  -0.56668
 Alpha  occ. eigenvalues --   -0.50786  -0.47170  -0.46768  -0.34669  -0.33722
 Alpha virt. eigenvalues --   -0.01521   0.05758   0.07405   0.08238   0.09667
 Alpha virt. eigenvalues --    0.12633   0.14202   0.15416   0.17747   0.19397
 Alpha virt. eigenvalues --    0.20061   0.21796   0.25452   0.26578   0.28697

 Mulliken charges:
               1
     1  C    0.154713
     2  O   -0.349307
     3  C   -0.048077
     4  C   -0.128946
     5  H    0.108395
     6  H    0.083025
     7  H    0.100447
     8  H    0.079751
 Sum of Mulliken charges =   0.00000

 Dipole moment (field-independent basis, Debye):
    X=              3.4696    Y=              0.7640    Z=              0.1100  Tot=              3.5544
 Quadrupole moment (field-independent basis, Debye-Ang):
   XX=            -27.4992   YY=            -21.5753   ZZ=            -25.1073
   XY=             -0.8747   XZ=             -0.1050   YZ=             -0.0717

 Normal termination of Gaussian 09 at Wed Aug 26 13:08:57 2020.
