 Gaussian 09, Revision D.01,
 Gaussian 09:  ES64L-G09RevD.01 24-Apr-2013

 --------------------
 #p B2PLYPD3/Def2QZVP
 --------------------

 --------
 acrolein
 --------
 Symbolic Z-matrix:
 Charge =  0 Multiplicity = 1

                         Standard orientation:
 ---------------------------------------------------------------------
 Center     Atomic      Atomic             Coordinates (Angstroms)
 Number     Number       Type             X           Y           Z
 ---------------------------------------------------------------------
      1          6           0       -0.663172    0.350262   -0.009015
      2          8           0       -1.785070   -0.104543   -0.010479
      3          6           0        0.569221   -0.483781    0.013478
      4          6           0        1.746052    0.153833    0.002564
      5          1           0        0.444284   -1.560960    0.042617
      6          1           0        1.861434    1.269922   -0.031151
      7          1           0        2.616439   -0.369543   -0.063906
      8          1           0       -0.554200    1.375045    0.094109
 ---------------------------------------------------------------------

 SCF Done:  E(RB2PLYPD3) =  -191.608370684     A.U. after   12 cycles
 E2(B2PLYPD3) =    -0.2466045634D+00 E(B2PLYPD3) =    -0.19185497524790D+03

 The electronic state is 1-A.
 Alpha  occ. eigenvalues --  -19.72403 -10.70717 -10.65137 -10.64711  -1.19291
 Alpha  occ. eigenvalues --   -0.92753  -0.75626  -0.67912  -0.56707  -0.56613
 Alpha  occ. eigenvalues --   -0.50611  -0.47222  -0.46401  -0.34569  -0.33611
 Alpha virt. eigenvalues --   -0.01476   0.05758   0.07328   0.07820   0.09628
 Alpha virt. eigenvalues --    0.12659   0.14380   0.15322   0.17504   0.19598
 Alpha virt. eigenvalues --    0.20027   0.21853   0.25196   0.26594   0.28747

 Mulliken charges:
               1
     1  C    0.157166
     2  O   -0.353017
     3  C   -0.055368
     4  C   -0.127152
     5  H    0.110669
     6  H    0.082277
     7  H    0.100000
     8  H    0.085426
 Sum of Mulliken charges =   0.00000

 Dipole moment (field-independent basis, Debye):
    X=              3.4819    Y=              0.7770    Z=              0.0064  Tot=              3.5675
 Quadrupole moment (field-independent basis, Debye-Ang):
   XX=            -27.6518   YY=            -21.4039   ZZ=            -25.1578
   XY=             -0.7947   XZ=             -0.2647   YZ=             -0.0279

 Normal termination of Gaussian 09 at Wed Aug 26 20:54:27 2020.
