 Gaussian 09, Revision D.01,
 Gaussian 09:  ES64L-G09RevD.01 24-Apr-2013

 --------------------
 #p B2PLYPD3/Def2QZVP
 --------------------

 --------
 acrolein
 --------
 Symbolic Z-matrix:
 Charge =  0 Multiplicity = 1

                         Standard orientation:
 ---------------------------------------------------------------------
 Center     Atomic      Atomic             Coordinates (Angstroms)
 Number     Number       Type             X           Y           Z
 ---------------------------------------------------------------------
      1          6           0       -0.667455    0.360488   -0.045663
      2          8           0       -1.817650   -0.130463    0.064539
      3          6           0        0.568450   -0.423924   -0.065929
      4          6           0        1.768858    0.143231    0.020670
      5          1           0        0.414795   -1.571215   -0.180349
      6          1           0        1.816468    1.145603   -0.017926
      7          1           0        2.688062   -0.506727    0.310774
      8          1           0       -0.397250    1.497282   -0.083274
 ---------------------------------------------------------------------

 SCF Done:  E(RB2PLYPD3) =  -191.589915955     A.U. after   13 cycles
 E2(B2PLYPD3) =    -0.2512569185D+00 E(B2PLYPD3) =    -0.19184117287325D+03

 The electronic state is 1-A.
 Alpha  occ. eigenvalues --  -19.73522 -10.73169 -10.65872 -10.65398  -1.17233
 Alpha  occ. eigenvalues --   -0.93597  -0.75909  -0.66041  -0.56151  -0.55576
 Alpha  occ. eigenvalues --   -0.49825  -0.46912  -0.45116  -0.34791  -0.33950
 Alpha virt. eigenvalues --   -0.02798   0.05444   0.06356   0.07720   0.09801
 Alpha virt. eigenvalues --    0.12218   0.13293   0.15048   0.16962   0.19324
 Alpha virt. eigenvalues --    0.20317   0.21667   0.24935   0.26450   0.28556

 Mulliken charges:
               1
     1  C    0.157986
     2  O   -0.363365
     3  C   -0.013130
     4  C   -0.135526
     5  H    0.096266
     6  H    0.090705
     7  H    0.108066
     8  H    0.058997
 Sum of Mulliken charges =   0.00000

 Dipole moment (field-independent basis, Debye):
    X=              3.6954    Y=              0.7715    Z=             -0.1243  Tot=              3.7771
 Quadrupole moment (field-independent basis, Debye-Ang):
   XX=            -27.9180   YY=            -21.9484   ZZ=            -25.3230
   XY=             -0.8472   XZ=              0.9557   YZ=             -0.0506

 Normal termination of Gaussian 09 at Wed Aug 26 12:56:39 2020.
