 Gaussian 09, Revision D.01,
 Gaussian 09:  ES64L-G09RevD.01 24-Apr-2013

 --------------------
 #p B2PLYPD3/Def2QZVP
 --------------------

 --------
 acrolein
 --------
 Symbolic Z-matrix:
 Charge =  0 Multiplicity = 1

                         Standard orientation:
 ---------------------------------------------------------------------
 Center     Atomic      Atomic             Coordinates (Angstroms)
 Number     Number       Type             X           Y           Z
 ---------------------------------------------------------------------
      1          6           0        0.661086    0.336452    0.000376
      2          8           0        1.789670   -0.109549    0.005947
      3          6           0       -0.560068   -0.455024   -0.023909
      4          6           0       -1.752605    0.152115   -0.000841
      5          1           0       -0.441272   -1.529105    0.029725
      6          1           0       -1.841286    1.241926    0.002032
      7          1           0       -2.680680   -0.427045    0.060610
      8          1           0        0.555400    1.389358    0.006304
 ---------------------------------------------------------------------

 SCF Done:  E(RB2PLYPD3) =  -191.614911046     A.U. after   13 cycles
 E2(B2PLYPD3) =    -0.2470071546D+00 E(B2PLYPD3) =    -0.19186191820045D+03

 The electronic state is 1-A.
 Alpha  occ. eigenvalues --  -19.72416 -10.70772 -10.65985 -10.64500  -1.19136
 Alpha  occ. eigenvalues --   -0.93122  -0.75638  -0.67578  -0.56909  -0.56218
 Alpha  occ. eigenvalues --   -0.50279  -0.47070  -0.46570  -0.34633  -0.33748
 Alpha virt. eigenvalues --   -0.01908   0.05679   0.07187   0.08294   0.09687
 Alpha virt. eigenvalues --    0.12552   0.14052   0.15310   0.17625   0.19663
 Alpha virt. eigenvalues --    0.19979   0.21523   0.25341   0.26516   0.28920

 Mulliken charges:
               1
     1  C    0.152694
     2  O   -0.355558
     3  C   -0.036895
     4  C   -0.130340
     5  H    0.106580
     6  H    0.088587
     7  H    0.101300
     8  H    0.073633
 Sum of Mulliken charges =   0.00000

 Dipole moment (field-independent basis, Debye):
    X=             -3.5847    Y=              0.7572    Z=              0.0717  Tot=              3.6645
 Quadrupole moment (field-independent basis, Debye-Ang):
   XX=            -27.5325   YY=            -21.6384   ZZ=            -25.1876
   XY=              0.9023   XZ=             -0.2071   YZ=             -0.0856

 Normal termination of Gaussian 09 at Wed Aug 26 15:57:08 2020.
