 Gaussian 09, Revision D.01,
 Gaussian 09:  ES64L-G09RevD.01 24-Apr-2013

 --------------------
 #p B2PLYPD3/Def2QZVP
 --------------------

 --------
 acrolein
 --------
 Symbolic Z-matrix:
 Charge =  0 Multiplicity = 1

                         Standard orientation:
 ---------------------------------------------------------------------
 Center     Atomic      Atomic             Coordinates (Angstroms)
 Number     Number       Type             X           Y           Z
 ---------------------------------------------------------------------
      1          6           0       -0.688619    0.345316    0.054941
      2          8           0       -1.791382   -0.115115   -0.036324
      3          6           0        0.571715   -0.485513    0.057863
      4          6           0        1.771310    0.169419   -0.032990
      5          1           0        0.507154   -1.534037   -0.066203
      6          1           0        1.772210    1.275295    0.022804
      7          1           0        2.706388   -0.382214   -0.070714
      8          1           0       -0.581131    1.386542   -0.074182
 ---------------------------------------------------------------------

 SCF Done:  E(RB2PLYPD3) =  -191.608541710     A.U. after   12 cycles
 E2(B2PLYPD3) =    -0.2472802216D+00 E(B2PLYPD3) =    -0.19185582193163D+03

 The electronic state is 1-A.
 Alpha  occ. eigenvalues --  -19.72656 -10.71193 -10.66040 -10.64864  -1.20222
 Alpha  occ. eigenvalues --   -0.91737  -0.74577  -0.67849  -0.56850  -0.55847
 Alpha  occ. eigenvalues --   -0.50299  -0.47572  -0.46754  -0.34247  -0.33482
 Alpha virt. eigenvalues --   -0.01613   0.05806   0.07213   0.07542   0.09683
 Alpha virt. eigenvalues --    0.12504   0.14028   0.15364   0.17927   0.19552
 Alpha virt. eigenvalues --    0.20016   0.21209   0.24341   0.26844   0.29176

 Mulliken charges:
               1
     1  C    0.155246
     2  O   -0.338542
     3  C   -0.062164
     4  C   -0.134206
     5  H    0.111575
     6  H    0.083777
     7  H    0.103090
     8  H    0.081224
 Sum of Mulliken charges =   0.00000

 Dipole moment (field-independent basis, Debye):
    X=              3.3327    Y=              0.7805    Z=              0.0037  Tot=              3.4229
 Quadrupole moment (field-independent basis, Debye-Ang):
   XX=            -27.5520   YY=            -21.5763   ZZ=            -25.3299
   XY=             -1.1583   XZ=             -0.3580   YZ=              0.1671

 Normal termination of Gaussian 09 at Wed Aug 26 13:16:48 2020.
