 Gaussian 09, Revision D.01,
 Gaussian 09:  ES64L-G09RevD.01 24-Apr-2013

 --------------------
 #p B2PLYPD3/Def2QZVP
 --------------------

 --------
 acrolein
 --------
 Symbolic Z-matrix:
 Charge =  0 Multiplicity = 1

                         Standard orientation:
 ---------------------------------------------------------------------
 Center     Atomic      Atomic             Coordinates (Angstroms)
 Number     Number       Type             X           Y           Z
 ---------------------------------------------------------------------
      1          6           0        0.686918    0.368323    0.013527
      2          8           0        1.779296   -0.143220    0.012770
      3          6           0       -0.541622   -0.425966   -0.037522
      4          6           0       -1.764123    0.128558   -0.002662
      5          1           0       -0.456655   -1.500408   -0.022822
      6          1           0       -1.838483    1.160532    0.001131
      7          1           0       -2.717132   -0.444247    0.135594
      8          1           0        0.490862    1.504391   -0.056119
 ---------------------------------------------------------------------

 SCF Done:  E(RB2PLYPD3) =  -191.610066428     A.U. after   12 cycles
 E2(B2PLYPD3) =    -0.2476856457D+00 E(B2PLYPD3) =    -0.19185775207345D+03

 The electronic state is 1-A.
 Alpha  occ. eigenvalues --  -19.73145 -10.72227 -10.65376 -10.64259  -1.20073
 Alpha  occ. eigenvalues --   -0.92765  -0.75398  -0.66759  -0.56579  -0.56168
 Alpha  occ. eigenvalues --   -0.50587  -0.47225  -0.46643  -0.34507  -0.33904
 Alpha virt. eigenvalues --   -0.01976   0.05723   0.07087   0.08142   0.09812
 Alpha virt. eigenvalues --    0.12465   0.13889   0.15411   0.17535   0.19594
 Alpha virt. eigenvalues --    0.20106   0.21595   0.25468   0.26204   0.28658

 Mulliken charges:
               1
     1  C    0.155446
     2  O   -0.339702
     3  C   -0.035490
     4  C   -0.132294
     5  H    0.105289
     6  H    0.081737
     7  H    0.100671
     8  H    0.064343
 Sum of Mulliken charges =   0.00000

 Dipole moment (field-independent basis, Debye):
    X=             -3.4011    Y=              0.8000    Z=              0.0730  Tot=              3.4947
 Quadrupole moment (field-independent basis, Debye-Ang):
   XX=            -27.1813   YY=            -21.9496   ZZ=            -25.2434
   XY=              1.0487   XZ=             -0.4132   YZ=             -0.0917

 Normal termination of Gaussian 09 at Wed Aug 26 10:04:47 2020.
