 Gaussian 09, Revision D.01,
 Gaussian 09:  ES64L-G09RevD.01 24-Apr-2013

 --------------------
 #p B2PLYPD3/Def2QZVP
 --------------------

 --------
 acrolein
 --------
 Symbolic Z-matrix:
 Charge =  0 Multiplicity = 1

                         Standard orientation:
 ---------------------------------------------------------------------
 Center     Atomic      Atomic             Coordinates (Angstroms)
 Number     Number       Type             X           Y           Z
 ---------------------------------------------------------------------
      1          6           0        0.658831    0.336960   -0.048283
      2          8           0        1.784396   -0.097435    0.059463
      3          6           0       -0.545688   -0.491482   -0.072663
      4          6           0       -1.761979    0.149540    0.008668
      5          1           0       -0.390178   -1.593563   -0.070426
      6          1           0       -1.812299    1.281287   -0.016401
      7          1           0       -2.662509   -0.378140    0.317597
      8          1           0        0.482834    1.499795   -0.032808
 ---------------------------------------------------------------------

 SCF Done:  E(RB2PLYPD3) =  -191.604320724     A.U. after   13 cycles
 E2(B2PLYPD3) =    -0.2496715720D+00 E(B2PLYPD3) =    -0.19185399229644D+03

 The electronic state is 1-A.
 Alpha  occ. eigenvalues --  -19.72725 -10.72090 -10.67029 -10.65729  -1.19436
 Alpha  occ. eigenvalues --   -0.92153  -0.74950  -0.65706  -0.56165  -0.55318
 Alpha  occ. eigenvalues --   -0.49873  -0.47382  -0.46517  -0.34008  -0.33557
 Alpha virt. eigenvalues --   -0.02413   0.05554   0.06814   0.07787   0.09663
 Alpha virt. eigenvalues --    0.12273   0.13886   0.15289   0.17087   0.19308
 Alpha virt. eigenvalues --    0.19866   0.21659   0.24350   0.26498   0.28744

 Mulliken charges:
               1
     1  C    0.161878
     2  O   -0.347642
     3  C   -0.040729
     4  C   -0.122936
     5  H    0.110166
     6  H    0.085200
     7  H    0.104130
     8  H    0.049932
 Sum of Mulliken charges =   0.00000

 Dipole moment (field-independent basis, Debye):
    X=             -3.5358    Y=              0.5936    Z=              0.0136  Tot=              3.5853
 Quadrupole moment (field-independent basis, Debye-Ang):
   XX=            -27.6608   YY=            -21.7245   ZZ=            -25.4312
   XY=              0.6062   XZ=             -1.0371   YZ=             -0.1071

 Normal termination of Gaussian 09 at Wed Aug 26 12:50:39 2020.
