 Gaussian 09, Revision D.01,
 Gaussian 09:  ES64L-G09RevD.01 24-Apr-2013

 --------------------
 #p B2PLYPD3/Def2QZVP
 --------------------

 --------
 acrolein
 --------
 Symbolic Z-matrix:
 Charge =  0 Multiplicity = 1

                         Standard orientation:
 ---------------------------------------------------------------------
 Center     Atomic      Atomic             Coordinates (Angstroms)
 Number     Number       Type             X           Y           Z
 ---------------------------------------------------------------------
      1          6           0        0.670010    0.348751    0.007514
      2          8           0        1.791725   -0.111538    0.002159
      3          6           0       -0.564344   -0.463596   -0.002379
      4          6           0       -1.751895    0.143440   -0.008538
      5          1           0       -0.403640   -1.578906    0.019049
      6          1           0       -1.892491    1.279657    0.101475
      7          1           0       -2.646030   -0.454608   -0.031228
      8          1           0        0.485741    1.474589   -0.086152
 ---------------------------------------------------------------------

 SCF Done:  E(RB2PLYPD3) =  -191.609707688     A.U. after   12 cycles
 E2(B2PLYPD3) =    -0.2482979460D+00 E(B2PLYPD3) =    -0.19185800563386D+03

 The electronic state is 1-A.
 Alpha  occ. eigenvalues --  -19.72937 -10.71974 -10.66166 -10.65074  -1.19439
 Alpha  occ. eigenvalues --   -0.92693  -0.74969  -0.65706  -0.56378  -0.55487
 Alpha  occ. eigenvalues --   -0.50374  -0.46748  -0.46269  -0.34732  -0.33696
 Alpha virt. eigenvalues --   -0.01737   0.05574   0.06838   0.07924   0.09672
 Alpha virt. eigenvalues --    0.12373   0.13802   0.15315   0.17139   0.19299
 Alpha virt. eigenvalues --    0.20065   0.21654   0.25089   0.26607   0.28350

 Mulliken charges:
               1
     1  C    0.166255
     2  O   -0.347115
     3  C   -0.047482
     4  C   -0.126398
     5  H    0.103778
     6  H    0.087640
     7  H    0.102912
     8  H    0.060410
 Sum of Mulliken charges =   0.00000

 Dipole moment (field-independent basis, Debye):
    X=             -3.4867    Y=              0.6785    Z=              0.0536  Tot=              3.5525
 Quadrupole moment (field-independent basis, Debye-Ang):
   XX=            -27.6246   YY=            -21.6637   ZZ=            -25.3792
   XY=              0.6928   XZ=             -0.1240   YZ=              0.0845

 Normal termination of Gaussian 09 at Wed Aug 26 09:32:00 2020.
