 Gaussian 09, Revision D.01,
 Gaussian 09:  ES64L-G09RevD.01 24-Apr-2013

 --------------------
 #p B2PLYPD3/Def2QZVP
 --------------------

 --------
 acrolein
 --------
 Symbolic Z-matrix:
 Charge =  0 Multiplicity = 1

                         Standard orientation:
 ---------------------------------------------------------------------
 Center     Atomic      Atomic             Coordinates (Angstroms)
 Number     Number       Type             X           Y           Z
 ---------------------------------------------------------------------
      1          6           0        0.673530    0.342071    0.014751
      2          8           0        1.808481   -0.100863   -0.024298
      3          6           0       -0.575750   -0.475263    0.005236
      4          6           0       -1.766065    0.145655   -0.037436
      5          1           0       -0.440585   -1.602318    0.107724
      6          1           0       -1.876631    1.283704   -0.024747
      7          1           0       -2.589284   -0.398495    0.060093
      8          1           0        0.448369    1.449230    0.156006
 ---------------------------------------------------------------------

 SCF Done:  E(RB2PLYPD3) =  -191.602160009     A.U. after   13 cycles
 E2(B2PLYPD3) =    -0.2486387473D+00 E(B2PLYPD3) =    -0.19185079875619D+03

 The electronic state is 1-A.
 Alpha  occ. eigenvalues --  -19.73167 -10.72280 -10.65482 -10.65288  -1.19116
 Alpha  occ. eigenvalues --   -0.92682  -0.75765  -0.65730  -0.57007  -0.55310
 Alpha  occ. eigenvalues --   -0.50782  -0.46952  -0.46121  -0.34655  -0.33779
 Alpha virt. eigenvalues --   -0.01938   0.05682   0.06721   0.07946   0.09625
 Alpha virt. eigenvalues --    0.12563   0.14025   0.15273   0.17015   0.19300
 Alpha virt. eigenvalues --    0.20013   0.22141   0.24810   0.26763   0.28265

 Mulliken charges:
               1
     1  C    0.164901
     2  O   -0.346315
     3  C   -0.044856
     4  C   -0.127403
     5  H    0.099168
     6  H    0.082813
     7  H    0.107322
     8  H    0.064370
 Sum of Mulliken charges =   0.00000

 Dipole moment (field-independent basis, Debye):
    X=             -3.5179    Y=              0.6623    Z=              0.2518  Tot=              3.5886
 Quadrupole moment (field-independent basis, Debye-Ang):
   XX=            -27.7178   YY=            -21.6606   ZZ=            -25.3514
   XY=              0.6055   XZ=             -0.0570   YZ=             -0.1599

 Normal termination of Gaussian 09 at Wed Aug 26 08:51:20 2020.
