 Gaussian 09, Revision D.01,
 Gaussian 09:  ES64L-G09RevD.01 24-Apr-2013

 --------------------
 #p B2PLYPD3/Def2QZVP
 --------------------

 --------
 acrolein
 --------
 Symbolic Z-matrix:
 Charge =  0 Multiplicity = 1

                         Standard orientation:
 ---------------------------------------------------------------------
 Center     Atomic      Atomic             Coordinates (Angstroms)
 Number     Number       Type             X           Y           Z
 ---------------------------------------------------------------------
      1          6           0        0.664211    0.339873    0.006061
      2          8           0        1.796094   -0.116293   -0.010113
      3          6           0       -0.565249   -0.457065    0.002920
      4          6           0       -1.741495    0.146230   -0.018476
      5          1           0       -0.490318   -1.516557    0.037584
      6          1           0       -1.840753    1.222074   -0.028552
      7          1           0       -2.659074   -0.414443    0.050239
      8          1           0        0.476589    1.465048    0.078606
 ---------------------------------------------------------------------

 SCF Done:  E(RB2PLYPD3) =  -191.615123933     A.U. after   12 cycles
 E2(B2PLYPD3) =    -0.2475966455D+00 E(B2PLYPD3) =    -0.19186272057828D+03

 The electronic state is 1-A.
 Alpha  occ. eigenvalues --  -19.72937 -10.72065 -10.65298 -10.64165  -1.18952
 Alpha  occ. eigenvalues --   -0.93555  -0.75463  -0.66925  -0.56591  -0.56313
 Alpha  occ. eigenvalues --   -0.50416  -0.47193  -0.46520  -0.34944  -0.33831
 Alpha virt. eigenvalues --   -0.01818   0.05746   0.07036   0.08147   0.09714
 Alpha virt. eigenvalues --    0.12653   0.13978   0.15296   0.17486   0.19687
 Alpha virt. eigenvalues --    0.20096   0.21572   0.25395   0.26489   0.28607

 Mulliken charges:
               1
     1  C    0.154956
     2  O   -0.350862
     3  C   -0.032528
     4  C   -0.124776
     5  H    0.105819
     6  H    0.085008
     7  H    0.098585
     8  H    0.063797
 Sum of Mulliken charges =   0.00000

 Dipole moment (field-independent basis, Debye):
    X=             -3.5878    Y=              0.6900    Z=              0.1078  Tot=              3.6552
 Quadrupole moment (field-independent basis, Debye-Ang):
   XX=            -27.5192   YY=            -21.7753   ZZ=            -25.1830
   XY=              0.8406   XZ=             -0.0514   YZ=             -0.0808

 Normal termination of Gaussian 09 at Wed Aug 26 16:03:39 2020.
