 Gaussian 09, Revision D.01,
 Gaussian 09:  ES64L-G09RevD.01 24-Apr-2013

 --------------------
 #p B2PLYPD3/Def2QZVP
 --------------------

 --------
 acrolein
 --------
 Symbolic Z-matrix:
 Charge =  0 Multiplicity = 1

                         Standard orientation:
 ---------------------------------------------------------------------
 Center     Atomic      Atomic             Coordinates (Angstroms)
 Number     Number       Type             X           Y           Z
 ---------------------------------------------------------------------
      1          6           0       -0.677711    0.359389    0.044172
      2          8           0       -1.767402   -0.134160   -0.046570
      3          6           0        0.546730   -0.422400    0.013840
      4          6           0        1.757569    0.128128   -0.011892
      5          1           0        0.434975   -1.522710    0.126403
      6          1           0        1.837583    1.217543   -0.121668
      7          1           0        2.643734   -0.454678   -0.057025
      8          1           0       -0.536609    1.442427    0.148131
 ---------------------------------------------------------------------

 SCF Done:  E(RB2PLYPD3) =  -191.615103834     A.U. after   12 cycles
 E2(B2PLYPD3) =    -0.2465648274D+00 E(B2PLYPD3) =    -0.19186166866099D+03

 The electronic state is 1-A.
 Alpha  occ. eigenvalues --  -19.72770 -10.71241 -10.65217 -10.64254  -1.20260
 Alpha  occ. eigenvalues --   -0.92983  -0.75781  -0.66641  -0.56742  -0.56583
 Alpha  occ. eigenvalues --   -0.50979  -0.47344  -0.45983  -0.34657  -0.33944
 Alpha virt. eigenvalues --   -0.01678   0.05836   0.07069   0.08347   0.09777
 Alpha virt. eigenvalues --    0.12586   0.14004   0.15213   0.17594   0.19376
 Alpha virt. eigenvalues --    0.20034   0.21836   0.25242   0.26722   0.28862

 Mulliken charges:
               1
     1  C    0.154974
     2  O   -0.341399
     3  C   -0.038156
     4  C   -0.131453
     5  H    0.099129
     6  H    0.078509
     7  H    0.106035
     8  H    0.072361
 Sum of Mulliken charges =   0.00000

 Dipole moment (field-independent basis, Debye):
    X=              3.3670    Y=              0.7968    Z=              0.1617  Tot=              3.4638
 Quadrupole moment (field-independent basis, Debye-Ang):
   XX=            -27.3106   YY=            -21.8067   ZZ=            -25.1396
   XY=             -1.1231   XZ=             -0.4934   YZ=             -0.2308

 Normal termination of Gaussian 09 at Wed Aug 26 09:04:32 2020.
