 Gaussian 09, Revision D.01,
 Gaussian 09:  ES64L-G09RevD.01 24-Apr-2013

 --------------------
 #p B2PLYPD3/Def2QZVP
 --------------------

 --------
 acrolein
 --------
 Symbolic Z-matrix:
 Charge =  0 Multiplicity = 1

                         Standard orientation:
 ---------------------------------------------------------------------
 Center     Atomic      Atomic             Coordinates (Angstroms)
 Number     Number       Type             X           Y           Z
 ---------------------------------------------------------------------
      1          6           0       -0.654342    0.331769    0.036862
      2          8           0       -1.785540   -0.086124   -0.028446
      3          6           0        0.578295   -0.517614    0.035946
      4          6           0        1.746431    0.175285   -0.041174
      5          1           0        0.422364   -1.549769    0.067607
      6          1           0        1.785229    1.334631    0.164707
      7          1           0        2.622786   -0.359306   -0.121606
      8          1           0       -0.568358    1.326797   -0.072940
 ---------------------------------------------------------------------

 SCF Done:  E(RB2PLYPD3) =  -191.594225748     A.U. after   13 cycles
 E2(B2PLYPD3) =    -0.2472790048D+00 E(B2PLYPD3) =    -0.19184150475263D+03

 The electronic state is 1-A.
 Alpha  occ. eigenvalues --  -19.72124 -10.70126 -10.66248 -10.64849  -1.19329
 Alpha  occ. eigenvalues --   -0.92398  -0.75175  -0.68676  -0.56936  -0.55811
 Alpha  occ. eigenvalues --   -0.50390  -0.47710  -0.46227  -0.34152  -0.33400
 Alpha virt. eigenvalues --   -0.01620   0.05470   0.07261   0.07636   0.09665
 Alpha virt. eigenvalues --    0.12565   0.14031   0.15296   0.17679   0.19318
 Alpha virt. eigenvalues --    0.20332   0.21534   0.24173   0.26790   0.28893

 Mulliken charges:
               1
     1  C    0.160943
     2  O   -0.355017
     3  C   -0.060618
     4  C   -0.129822
     5  H    0.114700
     6  H    0.089713
     7  H    0.101586
     8  H    0.078515
 Sum of Mulliken charges =   0.00000

 Dipole moment (field-independent basis, Debye):
    X=              3.4867    Y=              0.6837    Z=              0.1671  Tot=              3.5571
 Quadrupole moment (field-independent basis, Debye-Ang):
   XX=            -27.9401   YY=            -21.3037   ZZ=            -25.1921
   XY=             -0.8015   XZ=             -0.1295   YZ=              0.1825

 Normal termination of Gaussian 09 at Wed Aug 26 14:49:11 2020.
