 Gaussian 09, Revision D.01,
 Gaussian 09:  ES64L-G09RevD.01 24-Apr-2013

 --------------------
 #p B2PLYPD3/Def2QZVP
 --------------------

 --------
 acrolein
 --------
 Symbolic Z-matrix:
 Charge =  0 Multiplicity = 1

                         Standard orientation:
 ---------------------------------------------------------------------
 Center     Atomic      Atomic             Coordinates (Angstroms)
 Number     Number       Type             X           Y           Z
 ---------------------------------------------------------------------
      1          6           0       -0.684663    0.377928    0.032003
      2          8           0       -1.737993   -0.157639   -0.072060
      3          6           0        0.548425   -0.408191    0.062904
      4          6           0        1.761437    0.117880   -0.057155
      5          1           0        0.376125   -1.503732    0.195690
      6          1           0        1.769790    1.184394   -0.153746
      7          1           0        2.631318   -0.434242   -0.025352
      8          1           0       -0.624484    1.488986    0.333376
 ---------------------------------------------------------------------

 SCF Done:  E(RB2PLYPD3) =  -191.608502168     A.U. after   13 cycles
 E2(B2PLYPD3) =    -0.2461201509D+00 E(B2PLYPD3) =    -0.19185462231926D+03

 The electronic state is 1-A.
 Alpha  occ. eigenvalues --  -19.72888 -10.71633 -10.64322 -10.64161  -1.21308
 Alpha  occ. eigenvalues --   -0.92800  -0.75485  -0.65908  -0.57359  -0.56484
 Alpha  occ. eigenvalues --   -0.51635  -0.47834  -0.45640  -0.34602  -0.33738
 Alpha virt. eigenvalues --   -0.01284   0.06086   0.06728   0.08348   0.09876
 Alpha virt. eigenvalues --    0.12478   0.14057   0.15423   0.17282   0.18754
 Alpha virt. eigenvalues --    0.20321   0.21877   0.25371   0.26956   0.29181

 Mulliken charges:
               1
     1  C    0.160078
     2  O   -0.328368
     3  C   -0.050960
     4  C   -0.132638
     5  H    0.099509
     6  H    0.078502
     7  H    0.110094
     8  H    0.063783
 Sum of Mulliken charges =   0.00000

 Dipole moment (field-independent basis, Debye):
    X=              3.1195    Y=              0.8040    Z=              0.3013  Tot=              3.2355
 Quadrupole moment (field-independent basis, Debye-Ang):
   XX=            -27.0495   YY=            -21.9589   ZZ=            -25.0865
   XY=             -1.3043   XZ=             -0.5687   YZ=             -0.2742

 Normal termination of Gaussian 09 at Wed Aug 26 14:56:36 2020.
