 Gaussian 09, Revision D.01,
 Gaussian 09:  ES64L-G09RevD.01 24-Apr-2013

 --------------------
 #p B2PLYPD3/Def2QZVP
 --------------------

 --------
 acrolein
 --------
 Symbolic Z-matrix:
 Charge =  0 Multiplicity = 1

                         Standard orientation:
 ---------------------------------------------------------------------
 Center     Atomic      Atomic             Coordinates (Angstroms)
 Number     Number       Type             X           Y           Z
 ---------------------------------------------------------------------
      1          6           0       -0.672204    0.357692    0.008401
      2          8           0       -1.779530   -0.128475   -0.015304
      3          6           0        0.554860   -0.456365    0.023422
      4          6           0        1.752880    0.142549   -0.023896
      5          1           0        0.434454   -1.512952    0.055794
      6          1           0        1.788591    1.203396    0.082695
      7          1           0        2.667137   -0.433773   -0.067801
      8          1           0       -0.467157    1.507872    0.004178
 ---------------------------------------------------------------------

 SCF Done:  E(RB2PLYPD3) =  -191.613001813     A.U. after   12 cycles
 E2(B2PLYPD3) =    -0.2477758078D+00 E(B2PLYPD3) =    -0.19186077762048D+03

 The electronic state is 1-A.
 Alpha  occ. eigenvalues --  -19.73051 -10.72248 -10.65333 -10.64254  -1.19748
 Alpha  occ. eigenvalues --   -0.92946  -0.75129  -0.66652  -0.56589  -0.55938
 Alpha  occ. eigenvalues --   -0.50465  -0.47661  -0.46790  -0.34506  -0.33799
 Alpha virt. eigenvalues --   -0.01762   0.05787   0.07045   0.07988   0.09865
 Alpha virt. eigenvalues --    0.12574   0.13685   0.15341   0.17333   0.19832
 Alpha virt. eigenvalues --    0.20184   0.21524   0.25217   0.26416   0.28776

 Mulliken charges:
               1
     1  C    0.158587
     2  O   -0.343821
     3  C   -0.036863
     4  C   -0.133652
     5  H    0.107424
     6  H    0.087257
     7  H    0.103276
     8  H    0.057792
 Sum of Mulliken charges =   0.00000

 Dipole moment (field-independent basis, Debye):
    X=              3.4293    Y=              0.6930    Z=              0.1044  Tot=              3.5002
 Quadrupole moment (field-independent basis, Debye-Ang):
   XX=            -27.4624   YY=            -21.8024   ZZ=            -25.2566
   XY=             -0.9654   XZ=             -0.0857   YZ=              0.0788

 Normal termination of Gaussian 09 at Wed Aug 26 08:44:32 2020.
