 Gaussian 09, Revision D.01,
 Gaussian 09:  ES64L-G09RevD.01 24-Apr-2013

 --------------------
 #p B2PLYPD3/Def2QZVP
 --------------------

 --------
 acrolein
 --------
 Symbolic Z-matrix:
 Charge =  0 Multiplicity = 1

                         Standard orientation:
 ---------------------------------------------------------------------
 Center     Atomic      Atomic             Coordinates (Angstroms)
 Number     Number       Type             X           Y           Z
 ---------------------------------------------------------------------
      1          6           0       -0.682244    0.318054    0.024384
      2          8           0       -1.801519   -0.092149   -0.043097
      3          6           0        0.594174   -0.489431    0.043216
      4          6           0        1.757547    0.169011   -0.007515
      5          1           0        0.515785   -1.492985    0.002448
      6          1           0        1.948104    1.245608   -0.208013
      7          1           0        2.465122   -0.395821   -0.030294
      8          1           0       -0.533720    1.394587    0.220130
 ---------------------------------------------------------------------

 SCF Done:  E(RB2PLYPD3) =  -191.577055867     A.U. after   13 cycles
 E2(B2PLYPD3) =    -0.2457837250D+00 E(B2PLYPD3) =    -0.19182283959233D+03

 The electronic state is 1-A.
 Alpha  occ. eigenvalues --  -19.72731 -10.71261 -10.64076 -10.63624  -1.20357
 Alpha  occ. eigenvalues --   -0.93545  -0.76477  -0.67589  -0.57790  -0.56310
 Alpha  occ. eigenvalues --   -0.51063  -0.48994  -0.46847  -0.34703  -0.33252
 Alpha virt. eigenvalues --   -0.01387   0.05971   0.07576   0.07863   0.09604
 Alpha virt. eigenvalues --    0.13067   0.14106   0.15473   0.17795   0.19275
 Alpha virt. eigenvalues --    0.20255   0.22482   0.24398   0.26627   0.27648

 Mulliken charges:
               1
     1  C    0.154047
     2  O   -0.336703
     3  C   -0.060609
     4  C   -0.136859
     5  H    0.105978
     6  H    0.093972
     7  H    0.112113
     8  H    0.068061
 Sum of Mulliken charges =   0.00000

 Dipole moment (field-independent basis, Debye):
    X=              3.4344    Y=              0.5929    Z=             -0.0218  Tot=              3.4853
 Quadrupole moment (field-independent basis, Debye-Ang):
   XX=            -27.5446   YY=            -21.5512   ZZ=            -24.9358
   XY=             -0.5933   XZ=             -0.6897   YZ=             -0.1713

 Normal termination of Gaussian 09 at Wed Aug 26 11:26:36 2020.
