 Gaussian 09, Revision D.01,
 Gaussian 09:  ES64L-G09RevD.01 24-Apr-2013

 --------------------
 #p B2PLYPD3/Def2QZVP
 --------------------

 --------
 acrolein
 --------
 Symbolic Z-matrix:
 Charge =  0 Multiplicity = 1

                         Standard orientation:
 ---------------------------------------------------------------------
 Center     Atomic      Atomic             Coordinates (Angstroms)
 Number     Number       Type             X           Y           Z
 ---------------------------------------------------------------------
      1          6           0        0.680170    0.360385    0.015887
      2          8           0        1.786324   -0.132549   -0.015531
      3          6           0       -0.563596   -0.451074    0.028541
      4          6           0       -1.752828    0.138939   -0.013007
      5          1           0       -0.452633   -1.486347   -0.019729
      6          1           0       -1.851532    1.202313   -0.003598
      7          1           0       -2.686143   -0.426750   -0.038216
      8          1           0        0.517236    1.481678   -0.002727
 ---------------------------------------------------------------------

 SCF Done:  E(RB2PLYPD3) =  -191.615304795     A.U. after   12 cycles
 E2(B2PLYPD3) =    -0.2470446668D+00 E(B2PLYPD3) =    -0.19186234946145D+03

 The electronic state is 1-A.
 Alpha  occ. eigenvalues --  -19.72984 -10.72039 -10.65186 -10.63992  -1.19588
 Alpha  occ. eigenvalues --   -0.92961  -0.75074  -0.67276  -0.56477  -0.56404
 Alpha  occ. eigenvalues --   -0.50707  -0.47191  -0.46752  -0.34731  -0.33819
 Alpha virt. eigenvalues --   -0.01552   0.05759   0.07297   0.07997   0.09764
 Alpha virt. eigenvalues --    0.12511   0.13880   0.15375   0.17686   0.19877
 Alpha virt. eigenvalues --    0.19926   0.21511   0.25419   0.26424   0.28683

 Mulliken charges:
               1
     1  C    0.155927
     2  O   -0.346116
     3  C   -0.045057
     4  C   -0.128931
     5  H    0.111502
     6  H    0.084236
     7  H    0.097612
     8  H    0.070828
 Sum of Mulliken charges =   0.00000

 Dipole moment (field-independent basis, Debye):
    X=             -3.4206    Y=              0.7859    Z=             -0.0043  Tot=              3.5097
 Quadrupole moment (field-independent basis, Debye-Ang):
   XX=            -27.3948   YY=            -21.7530   ZZ=            -25.2023
   XY=              0.9470   XZ=              0.1877   YZ=              0.0582

 Normal termination of Gaussian 09 at Wed Aug 26 09:35:40 2020.
