 Gaussian 09, Revision D.01,
 Gaussian 09:  ES64L-G09RevD.01 24-Apr-2013

 --------------------
 #p B2PLYPD3/Def2QZVP
 --------------------

 --------
 acrolein
 --------
 Symbolic Z-matrix:
 Charge =  0 Multiplicity = 1

                         Standard orientation:
 ---------------------------------------------------------------------
 Center     Atomic      Atomic             Coordinates (Angstroms)
 Number     Number       Type             X           Y           Z
 ---------------------------------------------------------------------
      1          6           0        0.698305    0.381462   -0.020086
      2          8           0        1.777000   -0.144364    0.031937
      3          6           0       -0.543992   -0.442793   -0.026854
      4          6           0       -1.756560    0.121806    0.004525
      5          1           0       -0.416918   -1.479949   -0.102310
      6          1           0       -1.909142    1.222978    0.006095
      7          1           0       -2.767738   -0.458723    0.149618
      8          1           0        0.491280    1.507752   -0.054404
 ---------------------------------------------------------------------

 SCF Done:  E(RB2PLYPD3) =  -191.606310727     A.U. after   13 cycles
 E2(B2PLYPD3) =    -0.2478318089D+00 E(B2PLYPD3) =    -0.19185414253568D+03

 The electronic state is 1-A.
 Alpha  occ. eigenvalues --  -19.73242 -10.72297 -10.66462 -10.64137  -1.20462
 Alpha  occ. eigenvalues --   -0.92139  -0.74239  -0.66868  -0.56379  -0.55457
 Alpha  occ. eigenvalues --   -0.50805  -0.47322  -0.45753  -0.34507  -0.33811
 Alpha virt. eigenvalues --   -0.01515   0.05457   0.07215   0.07912   0.09662
 Alpha virt. eigenvalues --    0.12053   0.13710   0.15344   0.17941   0.19563
 Alpha virt. eigenvalues --    0.19651   0.21184   0.25503   0.26304   0.28521

 Mulliken charges:
               1
     1  C    0.162192
     2  O   -0.337250
     3  C   -0.053694
     4  C   -0.126829
     5  H    0.115037
     6  H    0.076230
     7  H    0.091135
     8  H    0.073179
 Sum of Mulliken charges =   0.00000

 Dipole moment (field-independent basis, Debye):
    X=             -3.2514    Y=              0.8461    Z=             -0.0692  Tot=              3.3604
 Quadrupole moment (field-independent basis, Debye-Ang):
   XX=            -27.2804   YY=            -21.8759   ZZ=            -25.3568
   XY=              0.8721   XZ=             -0.4848   YZ=              0.0340

 Normal termination of Gaussian 09 at Wed Aug 26 09:53:58 2020.
