 Gaussian 09, Revision D.01,
 Gaussian 09:  ES64L-G09RevD.01 24-Apr-2013

 --------------------
 #p B2PLYPD3/Def2QZVP
 --------------------

 --------
 acrolein
 --------
 Symbolic Z-matrix:
 Charge =  0 Multiplicity = 1

                         Standard orientation:
 ---------------------------------------------------------------------
 Center     Atomic      Atomic             Coordinates (Angstroms)
 Number     Number       Type             X           Y           Z
 ---------------------------------------------------------------------
      1          6           0       -0.683125    0.378838   -0.018976
      2          8           0       -1.775906   -0.128789    0.047956
      3          6           0        0.556795   -0.473365   -0.070073
      4          6           0        1.747132    0.140409    0.018671
      5          1           0        0.415447   -1.530293   -0.060954
      6          1           0        1.861877    1.303758    0.069592
      7          1           0        2.648830   -0.492668    0.178162
      8          1           0       -0.443714    1.474225   -0.148174
 ---------------------------------------------------------------------

 SCF Done:  E(RB2PLYPD3) =  -191.605860299     A.U. after   13 cycles
 E2(B2PLYPD3) =    -0.2483920006D+00 E(B2PLYPD3) =    -0.19185425230004D+03

 The electronic state is 1-A.
 Alpha  occ. eigenvalues --  -19.73131 -10.72157 -10.66434 -10.64370  -1.19949
 Alpha  occ. eigenvalues --   -0.92069  -0.74057  -0.66599  -0.55919  -0.55284
 Alpha  occ. eigenvalues --   -0.50623  -0.46899  -0.46384  -0.34440  -0.33619
 Alpha virt. eigenvalues --   -0.01345   0.05453   0.07022   0.07570   0.09691
 Alpha virt. eigenvalues --    0.12311   0.13470   0.15370   0.17700   0.18990
 Alpha virt. eigenvalues --    0.19787   0.21458   0.25057   0.26599   0.28227

 Mulliken charges:
               1
     1  C    0.167021
     2  O   -0.342242
     3  C   -0.061409
     4  C   -0.128810
     5  H    0.113430
     6  H    0.080002
     7  H    0.097091
     8  H    0.074917
 Sum of Mulliken charges =   0.00000

 Dipole moment (field-independent basis, Debye):
    X=              3.2577    Y=              0.7727    Z=             -0.0164  Tot=              3.3482
 Quadrupole moment (field-independent basis, Debye-Ang):
   XX=            -27.8992   YY=            -21.4890   ZZ=            -25.4100
   XY=             -0.8509   XZ=              0.7580   YZ=             -0.0402

 Normal termination of Gaussian 09 at Wed Aug 26 12:29:06 2020.
