 Gaussian 09, Revision D.01,
 Gaussian 09:  ES64L-G09RevD.01 24-Apr-2013

 --------------------
 #p B2PLYPD3/Def2QZVP
 --------------------

 --------
 acrolein
 --------
 Symbolic Z-matrix:
 Charge =  0 Multiplicity = 1

                         Standard orientation:
 ---------------------------------------------------------------------
 Center     Atomic      Atomic             Coordinates (Angstroms)
 Number     Number       Type             X           Y           Z
 ---------------------------------------------------------------------
      1          6           0        0.688660    0.403467    0.028140
      2          8           0        1.757059   -0.172055   -0.065564
      3          6           0       -0.561490   -0.431774    0.060686
      4          6           0       -1.726260    0.125743   -0.032417
      5          1           0       -0.551766   -1.477759    0.171281
      6          1           0       -1.693288    1.237936   -0.177222
      7          1           0       -2.719526   -0.422505   -0.115425
      8          1           0        0.502652    1.454158    0.307422
 ---------------------------------------------------------------------

 SCF Done:  E(RB2PLYPD3) =  -191.601205509     A.U. after   12 cycles
 E2(B2PLYPD3) =    -0.2476650667D+00 E(B2PLYPD3) =    -0.19184887057519D+03

 The electronic state is 1-A.
 Alpha  occ. eigenvalues --  -19.73393 -10.72508 -10.64904 -10.63122  -1.19618
 Alpha  occ. eigenvalues --   -0.93243  -0.74230  -0.67023  -0.56615  -0.55897
 Alpha  occ. eigenvalues --   -0.51015  -0.46663  -0.45140  -0.35053  -0.34074
 Alpha virt. eigenvalues --   -0.01050   0.05743   0.06708   0.07673   0.09722
 Alpha virt. eigenvalues --    0.12334   0.14029   0.15295   0.17879   0.18516
 Alpha virt. eigenvalues --    0.20186   0.20928   0.25141   0.27026   0.28568

 Mulliken charges:
               1
     1  C    0.156609
     2  O   -0.337199
     3  C   -0.055023
     4  C   -0.119437
     5  H    0.105781
     6  H    0.056892
     7  H    0.097666
     8  H    0.094710
 Sum of Mulliken charges =   0.00000

 Dipole moment (field-independent basis, Debye):
    X=             -3.1205    Y=              0.9288    Z=              0.2082  Tot=              3.2624
 Quadrupole moment (field-independent basis, Debye-Ang):
   XX=            -27.6224   YY=            -21.7659   ZZ=            -25.1234
   XY=              1.6843   XZ=              0.7376   YZ=             -0.1629

 Normal termination of Gaussian 09 at Wed Aug 26 11:02:47 2020.
