 Gaussian 09, Revision D.01,
 Gaussian 09:  ES64L-G09RevD.01 24-Apr-2013

 --------------------
 #p B2PLYPD3/Def2QZVP
 --------------------

 --------
 acrolein
 --------
 Symbolic Z-matrix:
 Charge =  0 Multiplicity = 1

                         Standard orientation:
 ---------------------------------------------------------------------
 Center     Atomic      Atomic             Coordinates (Angstroms)
 Number     Number       Type             X           Y           Z
 ---------------------------------------------------------------------
      1          6           0       -0.667406    0.336470    0.016609
      2          8           0       -1.785749   -0.110637   -0.017991
      3          6           0        0.570134   -0.452751    0.008532
      4          6           0        1.752379    0.153574   -0.018421
      5          1           0        0.429543   -1.531780    0.052262
      6          1           0        1.818122    1.216464   -0.011585
      7          1           0        2.633444   -0.423960    0.001801
      8          1           0       -0.525757    1.400608    0.061123
 ---------------------------------------------------------------------

 SCF Done:  E(RB2PLYPD3) =  -191.616248492     A.U. after   12 cycles
 E2(B2PLYPD3) =    -0.2462450660D+00 E(B2PLYPD3) =    -0.19186249355853D+03

 The electronic state is 1-A.
 Alpha  occ. eigenvalues --  -19.72632 -10.70955 -10.64955 -10.64313  -1.19739
 Alpha  occ. eigenvalues --   -0.93298  -0.75844  -0.67349  -0.57002  -0.56594
 Alpha  occ. eigenvalues --   -0.50719  -0.47451  -0.46789  -0.34796  -0.33710
 Alpha virt. eigenvalues --   -0.01610   0.05867   0.07224   0.08380   0.09786
 Alpha virt. eigenvalues --    0.12757   0.14005   0.15330   0.17473   0.19804
 Alpha virt. eigenvalues --    0.20039   0.21857   0.25504   0.26617   0.28716

 Mulliken charges:
               1
     1  C    0.154413
     2  O   -0.349160
     3  C   -0.034296
     4  C   -0.135738
     5  H    0.101922
     6  H    0.089829
     7  H    0.104556
     8  H    0.068475
 Sum of Mulliken charges =   0.00000

 Dipole moment (field-independent basis, Debye):
    X=              3.4794    Y=              0.7322    Z=              0.1186  Tot=              3.5576
 Quadrupole moment (field-independent basis, Debye-Ang):
   XX=            -27.5141   YY=            -21.6861   ZZ=            -25.0996
   XY=             -0.8588   XZ=             -0.0763   YZ=             -0.0661

 Normal termination of Gaussian 09 at Wed Aug 26 16:18:20 2020.
