 Gaussian 09, Revision D.01,
 Gaussian 09:  ES64L-G09RevD.01 24-Apr-2013

 --------------------
 #p B2PLYPD3/Def2QZVP
 --------------------

 --------
 acrolein
 --------
 Symbolic Z-matrix:
 Charge =  0 Multiplicity = 1

                         Standard orientation:
 ---------------------------------------------------------------------
 Center     Atomic      Atomic             Coordinates (Angstroms)
 Number     Number       Type             X           Y           Z
 ---------------------------------------------------------------------
      1          6           0       -0.667844    0.341840   -0.003356
      2          8           0       -1.796008   -0.114360    0.009102
      3          6           0        0.577238   -0.464685   -0.009633
      4          6           0        1.751551    0.146317    0.004443
      5          1           0        0.484238   -1.506555   -0.035148
      6          1           0        1.845486    1.273607   -0.011089
      7          1           0        2.613047   -0.405393    0.049099
      8          1           0       -0.540382    1.412393   -0.024406
 ---------------------------------------------------------------------

 SCF Done:  E(RB2PLYPD3) =  -191.611994073     A.U. after   12 cycles
 E2(B2PLYPD3) =    -0.2467591836D+00 E(B2PLYPD3) =    -0.19185875325628D+03

 The electronic state is 1-A.
 Alpha  occ. eigenvalues --  -19.72681 -10.71364 -10.65140 -10.64074  -1.19023
 Alpha  occ. eigenvalues --   -0.93301  -0.75591  -0.67570  -0.57096  -0.56302
 Alpha  occ. eigenvalues --   -0.50654  -0.47322  -0.46383  -0.34855  -0.33756
 Alpha virt. eigenvalues --   -0.01564   0.05751   0.07326   0.08064   0.09665
 Alpha virt. eigenvalues --    0.12578   0.14114   0.15338   0.17679   0.19513
 Alpha virt. eigenvalues --    0.19994   0.21826   0.25447   0.26482   0.28777

 Mulliken charges:
               1
     1  C    0.155126
     2  O   -0.352851
     3  C   -0.047001
     4  C   -0.126833
     5  H    0.107683
     6  H    0.083222
     7  H    0.102790
     8  H    0.077863
 Sum of Mulliken charges =   0.00000

 Dipole moment (field-independent basis, Debye):
    X=              3.5253    Y=              0.7397    Z=             -0.0313  Tot=              3.6022
 Quadrupole moment (field-independent basis, Debye-Ang):
   XX=            -27.6457   YY=            -21.5693   ZZ=            -25.1355
   XY=             -0.9703   XZ=              0.1325   YZ=             -0.0054

 Normal termination of Gaussian 09 at Wed Aug 26 15:59:31 2020.
