 Gaussian 09, Revision D.01,
 Gaussian 09:  ES64L-G09RevD.01 24-Apr-2013

 --------------------
 #p B2PLYPD3/Def2QZVP
 --------------------

 --------
 acrolein
 --------
 Symbolic Z-matrix:
 Charge =  0 Multiplicity = 1

                         Standard orientation:
 ---------------------------------------------------------------------
 Center     Atomic      Atomic             Coordinates (Angstroms)
 Number     Number       Type             X           Y           Z
 ---------------------------------------------------------------------
      1          6           0       -0.692361    0.348414    0.050559
      2          8           0       -1.766002   -0.137484   -0.056786
      3          6           0        0.534703   -0.394223    0.055705
      4          6           0        1.772698    0.111970   -0.055474
      5          1           0        0.354549   -1.444683    0.134133
      6          1           0        1.862994    1.167875    0.052425
      7          1           0        2.837346   -0.428470   -0.101026
      8          1           0       -0.617111    1.408174    0.064015
 ---------------------------------------------------------------------

 SCF Done:  E(RB2PLYPD3) =  -191.600992297     A.U. after   13 cycles
 E2(B2PLYPD3) =    -0.2462742866D+00 E(B2PLYPD3) =    -0.19184726658307D+03

 The electronic state is 1-A.
 Alpha  occ. eigenvalues --  -19.72613 -10.70454 -10.66641 -10.64062  -1.21314
 Alpha  occ. eigenvalues --   -0.92786  -0.75816  -0.67668  -0.57478  -0.55678
 Alpha  occ. eigenvalues --   -0.51003  -0.47959  -0.45415  -0.34459  -0.33912
 Alpha virt. eigenvalues --   -0.01967   0.05434   0.07460   0.08899   0.09708
 Alpha virt. eigenvalues --    0.11998   0.14273   0.15411   0.17949   0.19709
 Alpha virt. eigenvalues --    0.19906   0.20792   0.25358   0.26594   0.28913

 Mulliken charges:
               1
     1  C    0.159030
     2  O   -0.337410
     3  C   -0.032930
     4  C   -0.131456
     5  H    0.100177
     6  H    0.079746
     7  H    0.099508
     8  H    0.063333
 Sum of Mulliken charges =   0.00000

 Dipole moment (field-independent basis, Debye):
    X=              3.3496    Y=              0.8435    Z=              0.2709  Tot=              3.4648
 Quadrupole moment (field-independent basis, Debye-Ang):
   XX=            -26.5380   YY=            -22.2938   ZZ=            -25.1273
   XY=             -1.0371   XZ=             -0.3957   YZ=             -0.0153

 Normal termination of Gaussian 09 at Wed Aug 26 13:07:44 2020.
