 Gaussian 09, Revision D.01,
 Gaussian 09:  ES64L-G09RevD.01 24-Apr-2013

 --------------------
 #p B2PLYPD3/Def2QZVP
 --------------------

 --------
 acrolein
 --------
 Symbolic Z-matrix:
 Charge =  0 Multiplicity = 1

                         Standard orientation:
 ---------------------------------------------------------------------
 Center     Atomic      Atomic             Coordinates (Angstroms)
 Number     Number       Type             X           Y           Z
 ---------------------------------------------------------------------
      1          6           0       -0.669502    0.384183   -0.083714
      2          8           0       -1.769336   -0.160541    0.078385
      3          6           0        0.577113   -0.434373   -0.107180
      4          6           0        1.738022    0.134161    0.023645
      5          1           0        0.518527   -1.520235    0.013832
      6          1           0        1.727182    1.117626    0.120522
      7          1           0        2.591106   -0.352217    0.259620
      8          1           0       -0.555924    1.535323   -0.017558
 ---------------------------------------------------------------------

 SCF Done:  E(RB2PLYPD3) =  -191.594789936     A.U. after   13 cycles
 E2(B2PLYPD3) =    -0.2480213203D+00 E(B2PLYPD3) =    -0.19184281125624D+03

 The electronic state is 1-A.
 Alpha  occ. eigenvalues --  -19.73151 -10.72954 -10.64191 -10.62713  -1.18184
 Alpha  occ. eigenvalues --   -0.94144  -0.75588  -0.67113  -0.57808  -0.56502
 Alpha  occ. eigenvalues --   -0.50495  -0.46856  -0.46018  -0.35069  -0.34053
 Alpha virt. eigenvalues --   -0.01608   0.05880   0.06888   0.07601   0.09917
 Alpha virt. eigenvalues --    0.12779   0.14142   0.15333   0.17256   0.19196
 Alpha virt. eigenvalues --    0.20408   0.22492   0.24651   0.26557   0.28666

 Mulliken charges:
               1
     1  C    0.150954
     2  O   -0.354137
     3  C   -0.033028
     4  C   -0.108408
     5  H    0.103387
     6  H    0.069682
     7  H    0.094045
     8  H    0.077504
 Sum of Mulliken charges =   0.00000

 Dipole moment (field-independent basis, Debye):
    X=              3.3824    Y=              0.9247    Z=              0.0813  Tot=              3.5075
 Quadrupole moment (field-independent basis, Debye-Ang):
   XX=            -27.6017   YY=            -21.6875   ZZ=            -24.9865
   XY=             -1.3855   XZ=              1.2053   YZ=             -0.0783

 Normal termination of Gaussian 09 at Wed Aug 26 12:36:42 2020.
