 Gaussian 09, Revision D.01,
 Gaussian 09:  ES64L-G09RevD.01 24-Apr-2013

 --------------------
 #p B2PLYPD3/Def2QZVP
 --------------------

 --------
 acrolein
 --------
 Symbolic Z-matrix:
 Charge =  0 Multiplicity = 1

                         Standard orientation:
 ---------------------------------------------------------------------
 Center     Atomic      Atomic             Coordinates (Angstroms)
 Number     Number       Type             X           Y           Z
 ---------------------------------------------------------------------
      1          6           0       -0.683925    0.372518   -0.087893
      2          8           0       -1.780007   -0.163324    0.074545
      3          6           0        0.560094   -0.406336   -0.091108
      4          6           0        1.746199    0.135884    0.061103
      5          1           0        0.556102   -1.359305   -0.068173
      6          1           0        1.782554    1.148691   -0.026509
      7          1           0        2.722566   -0.501669    0.172747
      8          1           0       -0.555375    1.406482    0.032960
 ---------------------------------------------------------------------

 SCF Done:  E(RB2PLYPD3) =  -191.585369827     A.U. after   13 cycles
 E2(B2PLYPD3) =    -0.2472643433D+00 E(B2PLYPD3) =    -0.19183263417023D+03

 The electronic state is 1-A.
 Alpha  occ. eigenvalues --  -19.72973 -10.71569 -10.64978 -10.62415  -1.18527
 Alpha  occ. eigenvalues --   -0.94119  -0.75634  -0.69716  -0.58036  -0.55572
 Alpha  occ. eigenvalues --   -0.50248  -0.47391  -0.46286  -0.34838  -0.34170
 Alpha virt. eigenvalues --   -0.01873   0.05605   0.07460   0.07702   0.09835
 Alpha virt. eigenvalues --    0.12445   0.13860   0.15289   0.18612   0.19477
 Alpha virt. eigenvalues --    0.20423   0.21174   0.24475   0.26882   0.29026

 Mulliken charges:
               1
     1  C    0.145799
     2  O   -0.355866
     3  C   -0.037177
     4  C   -0.130390
     5  H    0.112446
     6  H    0.081793
     7  H    0.093854
     8  H    0.089541
 Sum of Mulliken charges =   0.00000

 Dipole moment (field-independent basis, Debye):
    X=              3.4241    Y=              0.9421    Z=             -0.1934  Tot=              3.5566
 Quadrupole moment (field-independent basis, Debye-Ang):
   XX=            -27.4809   YY=            -21.7655   ZZ=            -24.9635
   XY=             -1.6087   XZ=              0.6665   YZ=             -0.0967

 Normal termination of Gaussian 09 at Wed Aug 26 14:04:49 2020.
