 Gaussian 09, Revision D.01,
 Gaussian 09:  ES64L-G09RevD.01 24-Apr-2013

 --------------------
 #p B2PLYPD3/Def2QZVP
 --------------------

 --------
 acrolein
 --------
 Symbolic Z-matrix:
 Charge =  0 Multiplicity = 1

                         Standard orientation:
 ---------------------------------------------------------------------
 Center     Atomic      Atomic             Coordinates (Angstroms)
 Number     Number       Type             X           Y           Z
 ---------------------------------------------------------------------
      1          6           0        0.661507    0.361644    0.032282
      2          8           0        1.788584   -0.134979   -0.037328
      3          6           0       -0.555315   -0.424741    0.065857
      4          6           0       -1.746334    0.124319   -0.023467
      5          1           0       -0.443759   -1.527151   -0.038826
      6          1           0       -1.810218    1.213644   -0.068597
      7          1           0       -2.661472   -0.464254   -0.082633
      8          1           0        0.447635    1.490257    0.040651
 ---------------------------------------------------------------------

 SCF Done:  E(RB2PLYPD3) =  -191.610556770     A.U. after   12 cycles
 E2(B2PLYPD3) =    -0.2488002661D+00 E(B2PLYPD3) =    -0.19185935703653D+03

 The electronic state is 1-A.
 Alpha  occ. eigenvalues --  -19.73122 -10.72351 -10.65558 -10.64278  -1.18338
 Alpha  occ. eigenvalues --   -0.93757  -0.75753  -0.66174  -0.56610  -0.55940
 Alpha  occ. eigenvalues --   -0.50412  -0.46527  -0.45909  -0.35021  -0.34078
 Alpha virt. eigenvalues --   -0.02123   0.05649   0.06777   0.08121   0.09842
 Alpha virt. eigenvalues --    0.12504   0.13555   0.15199   0.17378   0.19617
 Alpha virt. eigenvalues --    0.19956   0.21611   0.25336   0.26463   0.28837

 Mulliken charges:
               1
     1  C    0.158310
     2  O   -0.357183
     3  C   -0.027366
     4  C   -0.122603
     5  H    0.100214
     6  H    0.078578
     7  H    0.106472
     8  H    0.063578
 Sum of Mulliken charges =   0.00000

 Dipole moment (field-independent basis, Debye):
    X=             -3.6116    Y=              0.7683    Z=             -0.0344  Tot=              3.6926
 Quadrupole moment (field-independent basis, Debye-Ang):
   XX=            -27.5346   YY=            -21.8711   ZZ=            -25.2441
   XY=              1.0449   XZ=              0.5187   YZ=              0.0861

 Normal termination of Gaussian 09 at Wed Aug 26 09:45:04 2020.
