 Gaussian 09, Revision D.01,
 Gaussian 09:  ES64L-G09RevD.01 24-Apr-2013

 --------------------
 #p B2PLYPD3/Def2QZVP
 --------------------

 --------
 acrolein
 --------
 Symbolic Z-matrix:
 Charge =  0 Multiplicity = 1

                         Standard orientation:
 ---------------------------------------------------------------------
 Center     Atomic      Atomic             Coordinates (Angstroms)
 Number     Number       Type             X           Y           Z
 ---------------------------------------------------------------------
      1          6           0       -0.692681    0.350600    0.051363
      2          8           0       -1.782284   -0.123461   -0.036089
      3          6           0        0.546069   -0.441044    0.004563
      4          6           0        1.764562    0.132821   -0.023215
      5          1           0        0.403708   -1.491210    0.052990
      6          1           0        1.905122    1.238670   -0.110944
      7          1           0        2.739131   -0.473283    0.060099
      8          1           0       -0.497391    1.459256    0.090298
 ---------------------------------------------------------------------

 SCF Done:  E(RB2PLYPD3) =  -191.610601152     A.U. after   13 cycles
 E2(B2PLYPD3) =    -0.2472160231D+00 E(B2PLYPD3) =    -0.19185781717556D+03

 The electronic state is 1-A.
 Alpha  occ. eigenvalues --  -19.73028 -10.71597 -10.66691 -10.64274  -1.20877
 Alpha  occ. eigenvalues --   -0.92265  -0.74832  -0.66720  -0.56462  -0.55712
 Alpha  occ. eigenvalues --   -0.50780  -0.47473  -0.46329  -0.34460  -0.33734
 Alpha virt. eigenvalues --   -0.01779   0.05542   0.07250   0.08295   0.09720
 Alpha virt. eigenvalues --    0.12242   0.13804   0.15434   0.17780   0.19305
 Alpha virt. eigenvalues --    0.19924   0.21258   0.25265   0.26554   0.28534

 Mulliken charges:
               1
     1  C    0.163270
     2  O   -0.335904
     3  C   -0.044441
     4  C   -0.133022
     5  H    0.107491
     6  H    0.084344
     7  H    0.097497
     8  H    0.060766
 Sum of Mulliken charges =   0.00000

 Dipole moment (field-independent basis, Debye):
    X=              3.3345    Y=              0.7307    Z=              0.1720  Tot=              3.4179
 Quadrupole moment (field-independent basis, Debye-Ang):
   XX=            -27.1924   YY=            -21.9492   ZZ=            -25.3163
   XY=             -0.7736   XZ=             -0.1664   YZ=             -0.2280

 Normal termination of Gaussian 09 at Wed Aug 26 21:22:19 2020.
