 Gaussian 09, Revision D.01,
 Gaussian 09:  ES64L-G09RevD.01 24-Apr-2013

 --------------------
 #p B2PLYPD3/Def2QZVP
 --------------------

 --------
 acrolein
 --------
 Symbolic Z-matrix:
 Charge =  0 Multiplicity = 1

                         Standard orientation:
 ---------------------------------------------------------------------
 Center     Atomic      Atomic             Coordinates (Angstroms)
 Number     Number       Type             X           Y           Z
 ---------------------------------------------------------------------
      1          6           0       -0.670153    0.359191   -0.015974
      2          8           0       -1.784847   -0.131252    0.025288
      3          6           0        0.561681   -0.442012   -0.029880
      4          6           0        1.747250    0.144779    0.006150
      5          1           0        0.465323   -1.520603   -0.053007
      6          1           0        1.788468    1.197014    0.000668
      7          1           0        2.709380   -0.425619    0.124653
      8          1           0       -0.517061    1.427475   -0.036396
 ---------------------------------------------------------------------

 SCF Done:  E(RB2PLYPD3) =  -191.614085782     A.U. after   12 cycles
 E2(B2PLYPD3) =    -0.2472106789D+00 E(B2PLYPD3) =    -0.19186129646040D+03

 The electronic state is 1-A.
 Alpha  occ. eigenvalues --  -19.72806 -10.71502 -10.65347 -10.64165  -1.19064
 Alpha  occ. eigenvalues --   -0.93301  -0.75338  -0.67544  -0.56904  -0.56038
 Alpha  occ. eigenvalues --   -0.50439  -0.46943  -0.46396  -0.34763  -0.33975
 Alpha virt. eigenvalues --   -0.01696   0.05709   0.07130   0.08076   0.09761
 Alpha virt. eigenvalues --    0.12544   0.14019   0.15332   0.17555   0.19801
 Alpha virt. eigenvalues --    0.19995   0.21444   0.25539   0.26451   0.28970

 Mulliken charges:
               1
     1  C    0.149119
     2  O   -0.353075
     3  C   -0.033184
     4  C   -0.132403
     5  H    0.105708
     6  H    0.083064
     7  H    0.100425
     8  H    0.080348
 Sum of Mulliken charges =   0.00000

 Dipole moment (field-independent basis, Debye):
    X=              3.4775    Y=              0.8370    Z=             -0.0256  Tot=              3.5770
 Quadrupole moment (field-independent basis, Debye-Ang):
   XX=            -27.5532   YY=            -21.6999   ZZ=            -25.1674
   XY=             -1.0974   XZ=              0.4145   YZ=             -0.0244

 Normal termination of Gaussian 09 at Wed Aug 26 16:36:52 2020.
