 Gaussian 09, Revision D.01,
 Gaussian 09:  ES64L-G09RevD.01 24-Apr-2013

 --------------------
 #p B2PLYPD3/Def2QZVP
 --------------------

 --------
 acrolein
 --------
 Symbolic Z-matrix:
 Charge =  0 Multiplicity = 1

                         Standard orientation:
 ---------------------------------------------------------------------
 Center     Atomic      Atomic             Coordinates (Angstroms)
 Number     Number       Type             X           Y           Z
 ---------------------------------------------------------------------
      1          6           0       -0.656840    0.335981   -0.028370
      2          8           0       -1.795134   -0.103632    0.021827
      3          6           0        0.564953   -0.460861   -0.036340
      4          6           0        1.749552    0.146378   -0.003482
      5          1           0        0.389467   -1.565409    0.041407
      6          1           0        1.821496    1.271489    0.019870
      7          1           0        2.692013   -0.427660    0.123779
      8          1           0       -0.487891    1.421650    0.049483
 ---------------------------------------------------------------------

 SCF Done:  E(RB2PLYPD3) =  -191.611289873     A.U. after   13 cycles
 E2(B2PLYPD3) =    -0.2483752506D+00 E(B2PLYPD3) =    -0.19185966512343D+03

 The electronic state is 1-A.
 Alpha  occ. eigenvalues --  -19.72752 -10.71463 -10.66513 -10.64946  -1.18808
 Alpha  occ. eigenvalues --   -0.93177  -0.75325  -0.66444  -0.56318  -0.55777
 Alpha  occ. eigenvalues --   -0.50299  -0.46551  -0.46181  -0.34851  -0.33789
 Alpha virt. eigenvalues --   -0.02016   0.05559   0.06844   0.08118   0.09717
 Alpha virt. eigenvalues --    0.12442   0.13825   0.15244   0.17285   0.19453
 Alpha virt. eigenvalues --    0.19933   0.21476   0.25089   0.26856   0.28785

 Mulliken charges:
               1
     1  C    0.162085
     2  O   -0.357308
     3  C   -0.035745
     4  C   -0.124920
     5  H    0.104009
     6  H    0.085394
     7  H    0.103338
     8  H    0.063146
 Sum of Mulliken charges =   0.00000

 Dipole moment (field-independent basis, Debye):
    X=              3.5947    Y=              0.6959    Z=              0.0971  Tot=              3.6627
 Quadrupole moment (field-independent basis, Debye-Ang):
   XX=            -27.6618   YY=            -21.7471   ZZ=            -25.3057
   XY=             -0.7188   XZ=              0.4622   YZ=             -0.0984

 Normal termination of Gaussian 09 at Wed Aug 26 09:30:00 2020.
