 Gaussian 09, Revision D.01,
 Gaussian 09:  ES64L-G09RevD.01 24-Apr-2013

 --------------------
 #p B2PLYPD3/Def2QZVP
 --------------------

 --------
 acrolein
 --------
 Symbolic Z-matrix:
 Charge =  0 Multiplicity = 1

                         Standard orientation:
 ---------------------------------------------------------------------
 Center     Atomic      Atomic             Coordinates (Angstroms)
 Number     Number       Type             X           Y           Z
 ---------------------------------------------------------------------
      1          6           0        0.668899    0.337770    0.079075
      2          8           0        1.804863   -0.105620   -0.046411
      3          6           0       -0.574974   -0.490609    0.066815
      4          6           0       -1.736065    0.143559   -0.044708
      5          1           0       -0.522517   -1.392594   -0.069426
      6          1           0       -1.973404    1.286138    0.058257
      7          1           0       -2.592601   -0.412482   -0.099880
      8          1           0        0.502461    1.419577   -0.124748
 ---------------------------------------------------------------------

 SCF Done:  E(RB2PLYPD3) =  -191.575370237     A.U. after   13 cycles
 E2(B2PLYPD3) =    -0.2477820194D+00 E(B2PLYPD3) =    -0.19182315225629D+03

 The electronic state is 1-A.
 Alpha  occ. eigenvalues --  -19.72852 -10.71906 -10.65563 -10.63140  -1.18571
 Alpha  occ. eigenvalues --   -0.93799  -0.75396  -0.69013  -0.57339  -0.56033
 Alpha  occ. eigenvalues --   -0.50835  -0.47245  -0.46062  -0.35048  -0.33479
 Alpha virt. eigenvalues --   -0.01764   0.05639   0.06913   0.07729   0.09495
 Alpha virt. eigenvalues --    0.12603   0.13957   0.15255   0.18342   0.19369
 Alpha virt. eigenvalues --    0.19808   0.21595   0.24073   0.27489   0.28169

 Mulliken charges:
               1
     1  C    0.163869
     2  O   -0.354048
     3  C   -0.085525
     4  C   -0.104120
     5  H    0.131659
     6  H    0.082084
     7  H    0.088282
     8  H    0.077799
 Sum of Mulliken charges =   0.00000

 Dipole moment (field-independent basis, Debye):
    X=             -3.6058    Y=              0.6885    Z=              0.0368  Tot=              3.6711
 Quadrupole moment (field-independent basis, Debye-Ang):
   XX=            -27.5208   YY=            -21.6917   ZZ=            -25.0405
   XY=              0.6815   XZ=              0.3870   YZ=              0.1858

 Normal termination of Gaussian 09 at Wed Aug 26 10:41:46 2020.
