 Gaussian 09, Revision D.01,
 Gaussian 09:  ES64L-G09RevD.01 24-Apr-2013

 --------------------
 #p B2PLYPD3/Def2QZVP
 --------------------

 --------
 acrolein
 --------
 Symbolic Z-matrix:
 Charge =  0 Multiplicity = 1

                         Standard orientation:
 ---------------------------------------------------------------------
 Center     Atomic      Atomic             Coordinates (Angstroms)
 Number     Number       Type             X           Y           Z
 ---------------------------------------------------------------------
      1          6           0        0.674477    0.358023   -0.008870
      2          8           0        1.780884   -0.128820    0.015575
      3          6           0       -0.543603   -0.440002   -0.028008
      4          6           0       -1.755047    0.143209    0.003289
      5          1           0       -0.438385   -1.550695    0.008761
      6          1           0       -1.818416    1.212942    0.028305
      7          1           0       -2.763398   -0.446904    0.063407
      8          1           0        0.518158    1.447833   -0.023534
 ---------------------------------------------------------------------

 SCF Done:  E(RB2PLYPD3) =  -191.610393898     A.U. after   13 cycles
 E2(B2PLYPD3) =    -0.2479114139D+00 E(B2PLYPD3) =    -0.19185830531163D+03

 The electronic state is 1-A.
 Alpha  occ. eigenvalues --  -19.72758 -10.71499 -10.66442 -10.64771  -1.19655
 Alpha  occ. eigenvalues --   -0.92672  -0.75063  -0.66796  -0.56688  -0.55556
 Alpha  occ. eigenvalues --   -0.50095  -0.46932  -0.46170  -0.34460  -0.33975
 Alpha virt. eigenvalues --   -0.01921   0.05526   0.06901   0.08208   0.09703
 Alpha virt. eigenvalues --    0.12309   0.13968   0.15362   0.17429   0.19790
 Alpha virt. eigenvalues --    0.19947   0.21066   0.25456   0.26330   0.28934

 Mulliken charges:
               1
     1  C    0.153226
     2  O   -0.347512
     3  C   -0.035640
     4  C   -0.131641
     5  H    0.104344
     6  H    0.084805
     7  H    0.099496
     8  H    0.072921
 Sum of Mulliken charges =   0.00000

 Dipole moment (field-independent basis, Debye):
    X=             -3.4675    Y=              0.8132    Z=              0.0357  Tot=              3.5618
 Quadrupole moment (field-independent basis, Debye-Ang):
   XX=            -27.3791   YY=            -21.7700   ZZ=            -25.3494
   XY=              1.0257   XZ=             -0.2938   YZ=             -0.0395

 Normal termination of Gaussian 09 at Wed Aug 26 18:52:12 2020.
