 Gaussian 09, Revision D.01,
 Gaussian 09:  ES64L-G09RevD.01 24-Apr-2013

 --------------------
 #p B2PLYPD3/Def2QZVP
 --------------------

 --------
 acrolein
 --------
 Symbolic Z-matrix:
 Charge =  0 Multiplicity = 1

                         Standard orientation:
 ---------------------------------------------------------------------
 Center     Atomic      Atomic             Coordinates (Angstroms)
 Number     Number       Type             X           Y           Z
 ---------------------------------------------------------------------
      1          6           0       -0.675182    0.341080    0.053326
      2          8           0       -1.783355   -0.108857   -0.040027
      3          6           0        0.558748   -0.452337    0.026164
      4          6           0        1.773775    0.140446   -0.032405
      5          1           0        0.445563   -1.548918    0.027259
      6          1           0        1.884180    1.263843   -0.061112
      7          1           0        2.548821   -0.417327    0.014461
      8          1           0       -0.555769    1.398122    0.057093
 ---------------------------------------------------------------------

 SCF Done:  E(RB2PLYPD3) =  -191.600414162     A.U. after   13 cycles
 E2(B2PLYPD3) =    -0.2464531832D+00 E(B2PLYPD3) =    -0.19184686734537D+03

 The electronic state is 1-A.
 Alpha  occ. eigenvalues --  -19.72548 -10.70788 -10.64868 -10.64734  -1.20060
 Alpha  occ. eigenvalues --   -0.92758  -0.76624  -0.67104  -0.57416  -0.56450
 Alpha  occ. eigenvalues --   -0.50929  -0.47243  -0.46950  -0.34386  -0.33685
 Alpha virt. eigenvalues --   -0.01888   0.05860   0.07263   0.08343   0.09707
 Alpha virt. eigenvalues --    0.12578   0.14246   0.15451   0.17424   0.19424
 Alpha virt. eigenvalues --    0.19997   0.22458   0.25319   0.26424   0.28717

 Mulliken charges:
               1
     1  C    0.157791
     2  O   -0.344559
     3  C   -0.045116
     4  C   -0.139205
     5  H    0.098905
     6  H    0.087160
     7  H    0.112416
     8  H    0.072608
 Sum of Mulliken charges =   0.00000

 Dipole moment (field-independent basis, Debye):
    X=              3.4399    Y=              0.7382    Z=              0.1537  Tot=              3.5216
 Quadrupole moment (field-independent basis, Debye-Ang):
   XX=            -27.4770   YY=            -21.5574   ZZ=            -25.1529
   XY=             -0.8996   XZ=             -0.2467   YZ=             -0.0943

 Normal termination of Gaussian 09 at Wed Aug 26 08:32:05 2020.
