 Gaussian 09, Revision D.01,
 Gaussian 09:  ES64L-G09RevD.01 24-Apr-2013

 --------------------
 #p B2PLYPD3/Def2QZVP
 --------------------

 --------
 acrolein
 --------
 Symbolic Z-matrix:
 Charge =  0 Multiplicity = 1

                         Standard orientation:
 ---------------------------------------------------------------------
 Center     Atomic      Atomic             Coordinates (Angstroms)
 Number     Number       Type             X           Y           Z
 ---------------------------------------------------------------------
      1          6           0       -0.685088    0.351266    0.027845
      2          8           0       -1.781760   -0.134933   -0.031609
      3          6           0        0.540597   -0.431771    0.063099
      4          6           0        1.771469    0.135141   -0.038523
      5          1           0        0.466296   -1.434656   -0.042021
      6          1           0        1.782037    1.162424   -0.001715
      7          1           0        2.725887   -0.444014   -0.036566
      8          1           0       -0.482005    1.467904    0.018643
 ---------------------------------------------------------------------

 SCF Done:  E(RB2PLYPD3) =  -191.605832343     A.U. after   13 cycles
 E2(B2PLYPD3) =    -0.2473229507D+00 E(B2PLYPD3) =    -0.19185315529377D+03

 The electronic state is 1-A.
 Alpha  occ. eigenvalues --  -19.73011 -10.71785 -10.65632 -10.63627  -1.20278
 Alpha  occ. eigenvalues --   -0.92984  -0.75715  -0.67790  -0.56782  -0.56239
 Alpha  occ. eigenvalues --   -0.50685  -0.47715  -0.47181  -0.34396  -0.33850
 Alpha virt. eigenvalues --   -0.02165   0.05775   0.07366   0.08244   0.09872
 Alpha virt. eigenvalues --    0.12569   0.13613   0.15262   0.18074   0.19759
 Alpha virt. eigenvalues --    0.20120   0.21299   0.24966   0.26417   0.29010

 Mulliken charges:
               1
     1  C    0.150053
     2  O   -0.340449
     3  C   -0.032138
     4  C   -0.133589
     5  H    0.108452
     6  H    0.082949
     7  H    0.104537
     8  H    0.060185
 Sum of Mulliken charges =   0.00000

 Dipole moment (field-independent basis, Debye):
    X=              3.4560    Y=              0.7340    Z=              0.0264  Tot=              3.5331
 Quadrupole moment (field-independent basis, Debye-Ang):
   XX=            -27.0586   YY=            -22.0486   ZZ=            -25.1768
   XY=             -1.1318   XZ=             -0.2885   YZ=              0.1194

 Normal termination of Gaussian 09 at Wed Aug 26 09:26:04 2020.
