 Gaussian 09, Revision D.01,
 Gaussian 09:  ES64L-G09RevD.01 24-Apr-2013

 --------------------
 #p B2PLYPD3/Def2QZVP
 --------------------

 --------
 acrolein
 --------
 Symbolic Z-matrix:
 Charge =  0 Multiplicity = 1

                         Standard orientation:
 ---------------------------------------------------------------------
 Center     Atomic      Atomic             Coordinates (Angstroms)
 Number     Number       Type             X           Y           Z
 ---------------------------------------------------------------------
      1          6           0        0.668006   -0.347784    0.018054
      2          8           0        1.787237    0.097268   -0.032194
      3          6           0       -0.560560    0.472804    0.051853
      4          6           0       -1.764238   -0.153551   -0.035272
      5          1           0       -0.372694    1.601849    0.028963
      6          1           0       -1.861027   -1.262405    0.029277
      7          1           0       -2.681602    0.387711   -0.079943
      8          1           0        0.558184   -1.334114    0.071440
 ---------------------------------------------------------------------

 SCF Done:  E(RB2PLYPD3) =  -191.602906842     A.U. after   13 cycles
 E2(B2PLYPD3) =    -0.2471507737D+00 E(B2PLYPD3) =    -0.19185005761567D+03

 The electronic state is 1-A.
 Alpha  occ. eigenvalues --  -19.72340 -10.70131 -10.66144 -10.65499  -1.19592
 Alpha  occ. eigenvalues --   -0.92163  -0.75837  -0.67986  -0.56661  -0.55949
 Alpha  occ. eigenvalues --   -0.50555  -0.46774  -0.46405  -0.34227  -0.33763
 Alpha virt. eigenvalues --   -0.01832   0.05673   0.07179   0.08033   0.09595
 Alpha virt. eigenvalues --    0.12542   0.14145   0.15375   0.17322   0.19576
 Alpha virt. eigenvalues --    0.20024   0.21535   0.24908   0.26919   0.28793

 Mulliken charges:
               1
     1  C    0.166968
     2  O   -0.354888
     3  C   -0.050591
     4  C   -0.132629
     5  H    0.103950
     6  H    0.084913
     7  H    0.103386
     8  H    0.078891
 Sum of Mulliken charges =   0.00000

 Dipole moment (field-independent basis, Debye):
    X=             -3.4892    Y=             -0.8112    Z=              0.0994  Tot=              3.5836
 Quadrupole moment (field-independent basis, Debye-Ang):
   XX=            -27.5258   YY=            -21.5034   ZZ=            -25.2820
   XY=             -0.6894   XZ=              0.3230   YZ=             -0.0960

 Normal termination of Gaussian 09 at Wed Aug 26 09:03:28 2020.
