 Gaussian 09, Revision D.01,
 Gaussian 09:  ES64L-G09RevD.01 24-Apr-2013

 --------------------
 #p B2PLYPD3/Def2QZVP
 --------------------

 --------
 acrolein
 --------
 Symbolic Z-matrix:
 Charge =  0 Multiplicity = 1

                         Standard orientation:
 ---------------------------------------------------------------------
 Center     Atomic      Atomic             Coordinates (Angstroms)
 Number     Number       Type             X           Y           Z
 ---------------------------------------------------------------------
      1          6           0        0.675578    0.347976    0.005047
      2          8           0        1.803242   -0.118938   -0.021693
      3          6           0       -0.585620   -0.471878    0.005981
      4          6           0       -1.746700    0.141778   -0.006927
      5          1           0       -0.481026   -1.509265    0.089518
      6          1           0       -1.834825    1.237974   -0.105256
      7          1           0       -2.619746   -0.383228   -0.005445
      8          1           0        0.450108    1.498766    0.170121
 ---------------------------------------------------------------------

 SCF Done:  E(RB2PLYPD3) =  -191.607105596     A.U. after   13 cycles
 E2(B2PLYPD3) =    -0.2478479803D+00 E(B2PLYPD3) =    -0.19185495357609D+03

 The electronic state is 1-A.
 Alpha  occ. eigenvalues --  -19.73378 -10.72861 -10.64566 -10.64116  -1.19152
 Alpha  occ. eigenvalues --   -0.93396  -0.75178  -0.66579  -0.57286  -0.55490
 Alpha  occ. eigenvalues --   -0.50928  -0.47343  -0.46388  -0.35144  -0.33702
 Alpha virt. eigenvalues --   -0.01480   0.05810   0.07021   0.07743   0.09718
 Alpha virt. eigenvalues --    0.12721   0.13842   0.15217   0.17411   0.19437
 Alpha virt. eigenvalues --    0.20176   0.21745   0.24911   0.26863   0.28460

 Mulliken charges:
               1
     1  C    0.163141
     2  O   -0.344162
     3  C   -0.046321
     4  C   -0.121227
     5  H    0.108273
     6  H    0.080781
     7  H    0.099986
     8  H    0.059530
 Sum of Mulliken charges =   0.00000

 Dipole moment (field-independent basis, Debye):
    X=             -3.4741    Y=              0.6484    Z=              0.0955  Tot=              3.5354
 Quadrupole moment (field-independent basis, Debye-Ang):
   XX=            -27.5553   YY=            -21.8215   ZZ=            -25.1763
   XY=              0.7725   XZ=              0.2269   YZ=             -0.1837

 Normal termination of Gaussian 09 at Wed Aug 26 08:37:29 2020.
