 Gaussian 09, Revision D.01,
 Gaussian 09:  ES64L-G09RevD.01 24-Apr-2013

 --------------------
 #p B2PLYPD3/Def2QZVP
 --------------------

 --------
 acrolein
 --------
 Symbolic Z-matrix:
 Charge =  0 Multiplicity = 1

                         Standard orientation:
 ---------------------------------------------------------------------
 Center     Atomic      Atomic             Coordinates (Angstroms)
 Number     Number       Type             X           Y           Z
 ---------------------------------------------------------------------
      1          6           0       -0.672434    0.372987   -0.058429
      2          8           0       -1.761775   -0.160477    0.070253
      3          6           0        0.537910   -0.411809   -0.084626
      4          6           0        1.738985    0.131547    0.023988
      5          1           0        0.540577   -1.408221    0.018534
      6          1           0        1.718357    1.133372    0.314089
      7          1           0        2.739840   -0.444519    0.040275
      8          1           0       -0.531345    1.446828   -0.220522
 ---------------------------------------------------------------------

 SCF Done:  E(RB2PLYPD3) =  -191.595758264     A.U. after   14 cycles
 E2(B2PLYPD3) =    -0.2475966095D+00 E(B2PLYPD3) =    -0.19184335487309D+03

 The electronic state is 1-A.
 Alpha  occ. eigenvalues --  -19.72823 -10.71606 -10.65355 -10.62864  -1.19129
 Alpha  occ. eigenvalues --   -0.93968  -0.75460  -0.68392  -0.57486  -0.55879
 Alpha  occ. eigenvalues --   -0.50388  -0.47299  -0.46211  -0.34549  -0.33967
 Alpha virt. eigenvalues --   -0.02098   0.05613   0.07323   0.07784   0.09839
 Alpha virt. eigenvalues --    0.12617   0.13629   0.15549   0.17858   0.18885
 Alpha virt. eigenvalues --    0.20562   0.21043   0.25100   0.25946   0.28810

 Mulliken charges:
               1
     1  C    0.147460
     2  O   -0.351378
     3  C   -0.042511
     4  C   -0.114807
     5  H    0.105431
     6  H    0.072058
     7  H    0.096733
     8  H    0.087014
 Sum of Mulliken charges =   0.00000

 Dipole moment (field-independent basis, Debye):
    X=              3.4314    Y=              0.8686    Z=              0.0188  Tot=              3.5397
 Quadrupole moment (field-independent basis, Debye-Ang):
   XX=            -27.3419   YY=            -21.9855   ZZ=            -24.9663
   XY=             -1.6263   XZ=              0.9235   YZ=              0.1393

 Normal termination of Gaussian 09 at Wed Aug 26 11:04:20 2020.
