 Gaussian 09, Revision D.01,
 Gaussian 09:  ES64L-G09RevD.01 24-Apr-2013

 --------------------
 #p B2PLYPD3/Def2QZVP
 --------------------

 --------
 acrolein
 --------
 Symbolic Z-matrix:
 Charge =  0 Multiplicity = 1

                         Standard orientation:
 ---------------------------------------------------------------------
 Center     Atomic      Atomic             Coordinates (Angstroms)
 Number     Number       Type             X           Y           Z
 ---------------------------------------------------------------------
      1          6           0       -0.669074    0.359558   -0.016464
      2          8           0       -1.780824   -0.127607    0.021736
      3          6           0        0.563874   -0.443952   -0.021046
      4          6           0        1.754948    0.136603    0.009035
      5          1           0        0.421163   -1.539851   -0.049224
      6          1           0        1.808007    1.207336    0.006374
      7          1           0        2.641130   -0.411633    0.078917
      8          1           0       -0.522191    1.451751   -0.039102
 ---------------------------------------------------------------------

 SCF Done:  E(RB2PLYPD3) =  -191.615821263     A.U. after   12 cycles
 E2(B2PLYPD3) =    -0.2469849834D+00 E(B2PLYPD3) =    -0.19186280624600D+03

 The electronic state is 1-A.
 Alpha  occ. eigenvalues --  -19.72819 -10.71593 -10.64789 -10.64431  -1.19316
 Alpha  occ. eigenvalues --   -0.93190  -0.75704  -0.66880  -0.56897  -0.56499
 Alpha  occ. eigenvalues --   -0.50748  -0.46969  -0.46504  -0.34748  -0.33892
 Alpha virt. eigenvalues --   -0.01656   0.05841   0.07144   0.08153   0.09809
 Alpha virt. eigenvalues --    0.12611   0.14051   0.15348   0.17261   0.19880
 Alpha virt. eigenvalues --    0.19936   0.21893   0.25573   0.26457   0.28918

 Mulliken charges:
               1
     1  C    0.156106
     2  O   -0.350876
     3  C   -0.037083
     4  C   -0.132169
     5  H    0.102608
     6  H    0.082493
     7  H    0.105933
     8  H    0.072988
 Sum of Mulliken charges =   0.00000

 Dipole moment (field-independent basis, Debye):
    X=              3.4555    Y=              0.7979    Z=             -0.0484  Tot=              3.5468
 Quadrupole moment (field-independent basis, Debye-Ang):
   XX=            -27.4750   YY=            -21.6953   ZZ=            -25.1632
   XY=             -0.9962   XZ=              0.2930   YZ=              0.0073

 Normal termination of Gaussian 09 at Wed Aug 26 18:55:56 2020.
