 Gaussian 09, Revision D.01,
 Gaussian 09:  ES64L-G09RevD.01 24-Apr-2013

 --------------------
 #p B2PLYPD3/Def2QZVP
 --------------------

 --------
 acrolein
 --------
 Symbolic Z-matrix:
 Charge =  0 Multiplicity = 1

                         Standard orientation:
 ---------------------------------------------------------------------
 Center     Atomic      Atomic             Coordinates (Angstroms)
 Number     Number       Type             X           Y           Z
 ---------------------------------------------------------------------
      1          6           0       -0.680066    0.354040    0.023771
      2          8           0       -1.783061   -0.129607   -0.016467
      3          6           0        0.550410   -0.437001    0.016251
      4          6           0        1.766856    0.137428   -0.010215
      5          1           0        0.424166   -1.549247    0.001550
      6          1           0        1.797978    1.188729   -0.005520
      7          1           0        2.721344   -0.422016   -0.029676
      8          1           0       -0.502203    1.492588   -0.013463
 ---------------------------------------------------------------------

 SCF Done:  E(RB2PLYPD3) =  -191.612596204     A.U. after   12 cycles
 E2(B2PLYPD3) =    -0.2478146730D+00 E(B2PLYPD3) =    -0.19186041087692D+03

 The electronic state is 1-A.
 Alpha  occ. eigenvalues --  -19.73045 -10.72063 -10.65638 -10.64840  -1.20049
 Alpha  occ. eigenvalues --   -0.92711  -0.75384  -0.66159  -0.56393  -0.56257
 Alpha  occ. eigenvalues --   -0.50620  -0.47134  -0.46476  -0.34517  -0.33900
 Alpha virt. eigenvalues --   -0.01950   0.05761   0.06918   0.08274   0.09806
 Alpha virt. eigenvalues --    0.12458   0.13897   0.15387   0.17155   0.19867
 Alpha virt. eigenvalues --    0.20043   0.21473   0.25456   0.26301   0.28943

 Mulliken charges:
               1
     1  C    0.158177
     2  O   -0.340853
     3  C   -0.032809
     4  C   -0.134031
     5  H    0.100060
     6  H    0.084694
     7  H    0.107246
     8  H    0.057514
 Sum of Mulliken charges =   0.00000

 Dipole moment (field-independent basis, Debye):
    X=              3.4416    Y=              0.7376    Z=              0.0282  Tot=              3.5199
 Quadrupole moment (field-independent basis, Debye-Ang):
   XX=            -27.1795   YY=            -21.9511   ZZ=            -25.3222
   XY=             -0.9885   XZ=             -0.1596   YZ=              0.0084

 Normal termination of Gaussian 09 at Wed Aug 26 08:58:03 2020.
