 Gaussian 09, Revision D.01,
 Gaussian 09:  ES64L-G09RevD.01 24-Apr-2013

 --------------------
 #p B2PLYPD3/Def2QZVP
 --------------------

 --------
 acrolein
 --------
 Symbolic Z-matrix:
 Charge =  0 Multiplicity = 1

                         Standard orientation:
 ---------------------------------------------------------------------
 Center     Atomic      Atomic             Coordinates (Angstroms)
 Number     Number       Type             X           Y           Z
 ---------------------------------------------------------------------
      1          6           0        0.695522    0.405912    0.067567
      2          8           0        1.775382   -0.164955   -0.062366
      3          6           0       -0.565110   -0.417790    0.078186
      4          6           0       -1.742419    0.097162   -0.075034
      5          1           0       -0.424505   -1.457616   -0.002358
      6          1           0       -1.863322    1.203495   -0.136759
      7          1           0       -2.729143   -0.421685    0.085602
      8          1           0        0.485956    1.483748    0.128137
 ---------------------------------------------------------------------

 SCF Done:  E(RB2PLYPD3) =  -191.603054658     A.U. after   13 cycles
 E2(B2PLYPD3) =    -0.2480606172D+00 E(B2PLYPD3) =    -0.19185111527503D+03

 The electronic state is 1-A.
 Alpha  occ. eigenvalues --  -19.73537 -10.72560 -10.65111 -10.63440  -1.18981
 Alpha  occ. eigenvalues --   -0.93106  -0.74874  -0.67322  -0.56530  -0.55622
 Alpha  occ. eigenvalues --   -0.51319  -0.46517  -0.45100  -0.35287  -0.33882
 Alpha virt. eigenvalues --   -0.01668   0.05607   0.07408   0.07660   0.09798
 Alpha virt. eigenvalues --    0.12214   0.13608   0.15429   0.17780   0.18951
 Alpha virt. eigenvalues --    0.19760   0.21732   0.25494   0.26444   0.28844

 Mulliken charges:
               1
     1  C    0.160257
     2  O   -0.348777
     3  C   -0.056099
     4  C   -0.111365
     5  H    0.113921
     6  H    0.056434
     7  H    0.094955
     8  H    0.090672
 Sum of Mulliken charges =   0.00000

 Dipole moment (field-independent basis, Debye):
    X=             -3.2341    Y=              1.0030    Z=              0.2299  Tot=              3.3938
 Quadrupole moment (field-independent basis, Debye-Ang):
   XX=            -27.4431   YY=            -21.8607   ZZ=            -25.1761
   XY=              1.1203   XZ=              0.2592   YZ=             -0.0465

 Normal termination of Gaussian 09 at Wed Aug 26 14:20:18 2020.
