 Gaussian 09, Revision D.01,
 Gaussian 09:  ES64L-G09RevD.01 24-Apr-2013

 --------------------
 #p B2PLYPD3/Def2QZVP
 --------------------

 --------
 acrolein
 --------
 Symbolic Z-matrix:
 Charge =  0 Multiplicity = 1

                         Standard orientation:
 ---------------------------------------------------------------------
 Center     Atomic      Atomic             Coordinates (Angstroms)
 Number     Number       Type             X           Y           Z
 ---------------------------------------------------------------------
      1          6           0        0.679803    0.367461    0.028056
      2          8           0        1.786377   -0.140665   -0.041241
      3          6           0       -0.576288   -0.450484    0.035295
      4          6           0       -1.756920    0.141294   -0.028964
      5          1           0       -0.465426   -1.502343    0.096769
      6          1           0       -1.790897    1.189036   -0.078211
      7          1           0       -2.610377   -0.429156   -0.046520
      8          1           0        0.496118    1.518158    0.151566
 ---------------------------------------------------------------------

 SCF Done:  E(RB2PLYPD3) =  -191.609813861     A.U. after   13 cycles
 E2(B2PLYPD3) =    -0.2475488812D+00 E(B2PLYPD3) =    -0.19185736274193D+03

 The electronic state is 1-A.
 Alpha  occ. eigenvalues --  -19.73272 -10.72720 -10.64141 -10.64005  -1.19238
 Alpha  occ. eigenvalues --   -0.93229  -0.75245  -0.66749  -0.57287  -0.55869
 Alpha  occ. eigenvalues --   -0.50752  -0.47764  -0.46403  -0.34803  -0.33830
 Alpha virt. eigenvalues --   -0.01492   0.05901   0.07016   0.07877   0.09861
 Alpha virt. eigenvalues --    0.12680   0.13693   0.15346   0.17341   0.19597
 Alpha virt. eigenvalues --    0.20215   0.21901   0.25331   0.26484   0.28711

 Mulliken charges:
               1
     1  C    0.157566
     2  O   -0.345230
     3  C   -0.040636
     4  C   -0.132504
     5  H    0.106036
     6  H    0.084831
     7  H    0.103858
     8  H    0.066078
 Sum of Mulliken charges =   0.00000

 Dipole moment (field-independent basis, Debye):
    X=             -3.3775    Y=              0.7611    Z=              0.1486  Tot=              3.4653
 Quadrupole moment (field-independent basis, Debye-Ang):
   XX=            -27.6005   YY=            -21.6950   ZZ=            -25.1801
   XY=              1.0805   XZ=              0.3798   YZ=             -0.1178

 Normal termination of Gaussian 09 at Wed Aug 26 10:18:15 2020.
