 Gaussian 09, Revision D.01,
 Gaussian 09:  ES64L-G09RevD.01 24-Apr-2013

 --------------------
 #p B2PLYPD3/Def2QZVP
 --------------------

 --------
 acrolein
 --------
 Symbolic Z-matrix:
 Charge =  0 Multiplicity = 1

                         Standard orientation:
 ---------------------------------------------------------------------
 Center     Atomic      Atomic             Coordinates (Angstroms)
 Number     Number       Type             X           Y           Z
 ---------------------------------------------------------------------
      1          6           0        0.656535    0.367861    0.085997
      2          8           0        1.774691   -0.149347   -0.063747
      3          6           0       -0.577985   -0.430805    0.017336
      4          6           0       -1.732793    0.154269   -0.065302
      5          1           0       -0.441713   -1.511736    0.158425
      6          1           0       -1.639794    1.019901   -0.100897
      7          1           0       -2.750941   -0.346621    0.082646
      8          1           0        0.560380    1.485280    0.141611
 ---------------------------------------------------------------------

 SCF Done:  E(RB2PLYPD3) =  -191.559641829     A.U. after   13 cycles
 E2(B2PLYPD3) =    -0.2479743299D+00 E(B2PLYPD3) =    -0.19180761615891D+03

 The electronic state is 1-A.
 Alpha  occ. eigenvalues --  -19.73038 -10.72326 -10.64092 -10.63000  -1.17950
 Alpha  occ. eigenvalues --   -0.95149  -0.76003  -0.68067  -0.58049  -0.55918
 Alpha  occ. eigenvalues --   -0.50325  -0.47212  -0.45799  -0.35198  -0.34026
 Alpha virt. eigenvalues --   -0.01897   0.05875   0.06850   0.07853   0.09924
 Alpha virt. eigenvalues --    0.12479   0.14194   0.15121   0.16968   0.19364
 Alpha virt. eigenvalues --    0.20811   0.22434   0.25309   0.26308   0.29934

 Mulliken charges:
               1
     1  C    0.133829
     2  O   -0.358181
     3  C   -0.000763
     4  C   -0.184602
     5  H    0.100399
     6  H    0.124685
     7  H    0.105340
     8  H    0.079294
 Sum of Mulliken charges =   0.00000

 Dipole moment (field-independent basis, Debye):
    X=             -3.4525    Y=              0.9150    Z=              0.4177  Tot=              3.5960
 Quadrupole moment (field-independent basis, Debye-Ang):
   XX=            -27.4294   YY=            -21.8247   ZZ=            -24.9605
   XY=              1.2887   XZ=              0.1144   YZ=             -0.2820

 Normal termination of Gaussian 09 at Wed Aug 26 14:25:44 2020.
