 Gaussian 09, Revision D.01,
 Gaussian 09:  ES64L-G09RevD.01 24-Apr-2013

 --------------------
 #p B2PLYPD3/Def2QZVP
 --------------------

 --------
 acrolein
 --------
 Symbolic Z-matrix:
 Charge =  0 Multiplicity = 1

                         Standard orientation:
 ---------------------------------------------------------------------
 Center     Atomic      Atomic             Coordinates (Angstroms)
 Number     Number       Type             X           Y           Z
 ---------------------------------------------------------------------
      1          6           0        0.677237    0.359860   -0.020452
      2          8           0        1.779880   -0.129627    0.023688
      3          6           0       -0.554773   -0.451531   -0.026201
      4          6           0       -1.755558    0.137205    0.016013
      5          1           0       -0.431023   -1.521040   -0.045990
      6          1           0       -1.796931    1.218131   -0.016637
      7          1           0       -2.698929   -0.420733    0.078534
      8          1           0        0.486406    1.487457   -0.021571
 ---------------------------------------------------------------------

 SCF Done:  E(RB2PLYPD3) =  -191.615295422     A.U. after   12 cycles
 E2(B2PLYPD3) =    -0.2475450600D+00 E(B2PLYPD3) =    -0.19186284048235D+03

 The electronic state is 1-A.
 Alpha  occ. eigenvalues --  -19.73018 -10.72049 -10.65601 -10.64347  -1.19886
 Alpha  occ. eigenvalues --   -0.92753  -0.74993  -0.66674  -0.56399  -0.56074
 Alpha  occ. eigenvalues --   -0.50635  -0.47140  -0.46734  -0.34547  -0.33874
 Alpha virt. eigenvalues --   -0.01666   0.05740   0.07101   0.08068   0.09804
 Alpha virt. eigenvalues --    0.12470   0.13832   0.15376   0.17415   0.19854
 Alpha virt. eigenvalues --    0.19946   0.21414   0.25436   0.26399   0.28904

 Mulliken charges:
               1
     1  C    0.158086
     2  O   -0.343358
     3  C   -0.038822
     4  C   -0.133076
     5  H    0.106653
     6  H    0.082470
     7  H    0.103860
     8  H    0.064188
 Sum of Mulliken charges =   0.00000

 Dipole moment (field-independent basis, Debye):
    X=             -3.4045    Y=              0.7430    Z=             -0.0668  Tot=              3.4853
 Quadrupole moment (field-independent basis, Debye-Ang):
   XX=            -27.3708   YY=            -21.8150   ZZ=            -25.2830
   XY=              0.9806   XZ=             -0.2639   YZ=             -0.0214

 Normal termination of Gaussian 09 at Wed Aug 26 18:47:11 2020.
