 Gaussian 09, Revision D.01,
 Gaussian 09:  ES64L-G09RevD.01 24-Apr-2013

 --------------------
 #p B2PLYPD3/Def2QZVP
 --------------------

 --------
 acrolein
 --------
 Symbolic Z-matrix:
 Charge =  0 Multiplicity = 1

                         Standard orientation:
 ---------------------------------------------------------------------
 Center     Atomic      Atomic             Coordinates (Angstroms)
 Number     Number       Type             X           Y           Z
 ---------------------------------------------------------------------
      1          6           0       -0.664425    0.344786   -0.008829
      2          8           0       -1.787290   -0.113089    0.010031
      3          6           0        0.566804   -0.452838   -0.017331
      4          6           0        1.753670    0.148815    0.001843
      5          1           0        0.409444   -1.553126    0.011645
      6          1           0        1.815595    1.197191    0.015573
      7          1           0        2.670842   -0.394284    0.042206
      8          1           0       -0.533847    1.410354   -0.003765
 ---------------------------------------------------------------------

 SCF Done:  E(RB2PLYPD3) =  -191.615377603     A.U. after   12 cycles
 E2(B2PLYPD3) =    -0.2467767124D+00 E(B2PLYPD3) =    -0.19186215431573D+03

 The electronic state is 1-A.
 Alpha  occ. eigenvalues --  -19.72628 -10.71102 -10.65042 -10.64675  -1.19281
 Alpha  occ. eigenvalues --   -0.93211  -0.75864  -0.67292  -0.56942  -0.56570
 Alpha  occ. eigenvalues --   -0.50598  -0.47003  -0.46633  -0.34740  -0.33803
 Alpha virt. eigenvalues --   -0.01750   0.05820   0.07193   0.08234   0.09762
 Alpha virt. eigenvalues --    0.12696   0.14134   0.15330   0.17266   0.19970
 Alpha virt. eigenvalues --    0.20014   0.21767   0.25463   0.26549   0.28875

 Mulliken charges:
               1
     1  C    0.154651
     2  O   -0.353671
     3  C   -0.034565
     4  C   -0.132413
     5  H    0.102767
     6  H    0.087097
     7  H    0.103527
     8  H    0.072606
 Sum of Mulliken charges =   0.00000

 Dipole moment (field-independent basis, Debye):
    X=              3.5225    Y=              0.7801    Z=              0.0275  Tot=              3.6080
 Quadrupole moment (field-independent basis, Debye-Ang):
   XX=            -27.4447   YY=            -21.7030   ZZ=            -25.1480
   XY=             -0.8337   XZ=              0.1886   YZ=             -0.0299

 Normal termination of Gaussian 09 at Wed Aug 26 19:05:10 2020.
