 Gaussian 09, Revision D.01,
 Gaussian 09:  ES64L-G09RevD.01 24-Apr-2013

 --------------------
 #p B2PLYPD3/Def2QZVP
 --------------------

 --------
 acrolein
 --------
 Symbolic Z-matrix:
 Charge =  0 Multiplicity = 1

                         Standard orientation:
 ---------------------------------------------------------------------
 Center     Atomic      Atomic             Coordinates (Angstroms)
 Number     Number       Type             X           Y           Z
 ---------------------------------------------------------------------
      1          6           0       -0.681422    0.310865    0.084979
      2          8           0       -1.804847   -0.076396   -0.073487
      3          6           0        0.546827   -0.499681    0.086160
      4          6           0        1.766043    0.178306   -0.077211
      5          1           0        0.442843   -1.496410   -0.015265
      6          1           0        1.935993    1.229970   -0.021011
      7          1           0        2.734263   -0.426934   -0.032111
      8          1           0       -0.463017    1.367600    0.092713
 ---------------------------------------------------------------------

 SCF Done:  E(RB2PLYPD3) =  -191.598609972     A.U. after   13 cycles
 E2(B2PLYPD3) =    -0.2483020500D+00 E(B2PLYPD3) =    -0.19184691202204D+03

 The electronic state is 1-A.
 Alpha  occ. eigenvalues --  -19.72655 -10.70962 -10.67305 -10.64977  -1.20062
 Alpha  occ. eigenvalues --   -0.91918  -0.75547  -0.68342  -0.56641  -0.55652
 Alpha  occ. eigenvalues --   -0.50576  -0.47781  -0.46841  -0.34089  -0.33307
 Alpha virt. eigenvalues --   -0.02695   0.05549   0.07499   0.07925   0.09610
 Alpha virt. eigenvalues --    0.12541   0.13880   0.15427   0.18169   0.19377
 Alpha virt. eigenvalues --    0.19905   0.21227   0.24158   0.26870   0.28095

 Mulliken charges:
               1
     1  C    0.154207
     2  O   -0.344842
     3  C   -0.047028
     4  C   -0.127715
     5  H    0.117165
     6  H    0.095784
     7  H    0.087938
     8  H    0.064490
 Sum of Mulliken charges =   0.00000

 Dipole moment (field-independent basis, Debye):
    X=              3.5699    Y=              0.6338    Z=              0.2255  Tot=              3.6328
 Quadrupole moment (field-independent basis, Debye-Ang):
   XX=            -27.3730   YY=            -21.7807   ZZ=            -25.3621
   XY=             -0.2902   XZ=             -0.4887   YZ=              0.0585

 Normal termination of Gaussian 09 at Wed Aug 26 11:32:10 2020.
