 Gaussian 09, Revision D.01,
 Gaussian 09:  ES64L-G09RevD.01 24-Apr-2013

 --------------------
 #p B2PLYPD3/Def2QZVP
 --------------------

 --------
 acrolein
 --------
 Symbolic Z-matrix:
 Charge =  0 Multiplicity = 1

                         Standard orientation:
 ---------------------------------------------------------------------
 Center     Atomic      Atomic             Coordinates (Angstroms)
 Number     Number       Type             X           Y           Z
 ---------------------------------------------------------------------
      1          6           0        0.674917    0.329343    0.008316
      2          8           0        1.818259   -0.094218   -0.034048
      3          6           0       -0.572587   -0.484371    0.024345
      4          6           0       -1.754710    0.132634   -0.007006
      5          1           0       -0.515386   -1.568544    0.057830
      6          1           0       -2.001526    1.372479   -0.185994
      7          1           0       -2.559570   -0.407989   -0.006434
      8          1           0        0.444688    1.492158    0.253049
 ---------------------------------------------------------------------

 SCF Done:  E(RB2PLYPD3) =  -191.577361348     A.U. after   13 cycles
 E2(B2PLYPD3) =    -0.2497109352D+00 E(B2PLYPD3) =    -0.19182707228286D+03

 The electronic state is 1-A.
 Alpha  occ. eigenvalues --  -19.73339 -10.72966 -10.66165 -10.65179  -1.19144
 Alpha  occ. eigenvalues --   -0.93065  -0.75634  -0.65075  -0.57395  -0.54481
 Alpha  occ. eigenvalues --   -0.50611  -0.46400  -0.45760  -0.35001  -0.33592
 Alpha virt. eigenvalues --   -0.01962   0.05125   0.06665   0.07510   0.09345
 Alpha virt. eigenvalues --    0.12157   0.13903   0.15253   0.17248   0.18855
 Alpha virt. eigenvalues --    0.20010   0.21893   0.24326   0.26756   0.27928

 Mulliken charges:
               1
     1  C    0.171755
     2  O   -0.340582
     3  C   -0.054847
     4  C   -0.119623
     5  H    0.103163
     6  H    0.079188
     7  H    0.107467
     8  H    0.053480
 Sum of Mulliken charges =   0.00000

 Dipole moment (field-independent basis, Debye):
    X=             -3.6021    Y=              0.4637    Z=              0.0545  Tot=              3.6322
 Quadrupole moment (field-independent basis, Debye-Ang):
   XX=            -27.5557   YY=            -21.7892   ZZ=            -25.4039
   XY=              0.5823   XZ=              0.4550   YZ=             -0.2122

 Normal termination of Gaussian 09 at Wed Aug 26 11:17:33 2020.
