 Gaussian 09, Revision D.01,
 Gaussian 09:  ES64L-G09RevD.01 24-Apr-2013

 --------------------
 #p B2PLYPD3/Def2QZVP
 --------------------

 --------
 acrolein
 --------
 Symbolic Z-matrix:
 Charge =  0 Multiplicity = 1

                         Standard orientation:
 ---------------------------------------------------------------------
 Center     Atomic      Atomic             Coordinates (Angstroms)
 Number     Number       Type             X           Y           Z
 ---------------------------------------------------------------------
      1          6           0        0.672096    0.349329    0.041569
      2          8           0        1.796404   -0.121042   -0.031850
      3          6           0       -0.576909   -0.458817    0.027270
      4          6           0       -1.738886    0.133553   -0.029803
      5          1           0       -0.508321   -1.455719    0.051064
      6          1           0       -1.867965    1.271069    0.026288
      7          1           0       -2.641022   -0.399376   -0.056347
      8          1           0        0.508271    1.407972   -0.000423
 ---------------------------------------------------------------------

 SCF Done:  E(RB2PLYPD3) =  -191.606949847     A.U. after   12 cycles
 E2(B2PLYPD3) =    -0.2466259411D+00 E(B2PLYPD3) =    -0.19185357578818D+03

 The electronic state is 1-A.
 Alpha  occ. eigenvalues --  -19.72885 -10.71542 -10.65137 -10.63295  -1.18903
 Alpha  occ. eigenvalues --   -0.93702  -0.75433  -0.68228  -0.57119  -0.56389
 Alpha  occ. eigenvalues --   -0.51025  -0.46784  -0.46323  -0.35127  -0.33911
 Alpha virt. eigenvalues --   -0.01428   0.05680   0.07503   0.07937   0.09609
 Alpha virt. eigenvalues --    0.12574   0.14185   0.15324   0.18025   0.19504
 Alpha virt. eigenvalues --    0.19975   0.21530   0.25418   0.26707   0.28656

 Mulliken charges:
               1
     1  C    0.156529
     2  O   -0.353210
     3  C   -0.049284
     4  C   -0.119244
     5  H    0.110973
     6  H    0.073890
     7  H    0.096675
     8  H    0.083670
 Sum of Mulliken charges =   0.00000

 Dipole moment (field-independent basis, Debye):
    X=             -3.5077    Y=              0.7644    Z=              0.1401  Tot=              3.5927
 Quadrupole moment (field-independent basis, Debye-Ang):
   XX=            -27.5497   YY=            -21.6813   ZZ=            -25.0499
   XY=              0.9824   XZ=              0.2060   YZ=              0.0071

 Normal termination of Gaussian 09 at Wed Aug 26 09:11:19 2020.
