 Gaussian 09, Revision D.01,
 Gaussian 09:  ES64L-G09RevD.01 24-Apr-2013

 --------------------
 #p B2PLYPD3/Def2QZVP
 --------------------

 --------
 acrolein
 --------
 Symbolic Z-matrix:
 Charge =  0 Multiplicity = 1

                         Standard orientation:
 ---------------------------------------------------------------------
 Center     Atomic      Atomic             Coordinates (Angstroms)
 Number     Number       Type             X           Y           Z
 ---------------------------------------------------------------------
      1          6           0       -0.627820   -0.297901    0.020495
      2          8           0       -1.811972    0.071710   -0.035348
      3          6           0        0.587527    0.477013    0.000326
      4          6           0        1.735945   -0.175876   -0.065075
      5          1           0        0.455861    1.543275    0.163313
      6          1           0        1.736603   -1.218663   -0.040092
      7          1           0        2.560974    0.362368    0.140380
      8          1           0       -0.431571   -1.280080    0.284714
 ---------------------------------------------------------------------

 SCF Done:  E(RB2PLYPD3) =  -191.596961004     A.U. after   14 cycles
 E2(B2PLYPD3) =    -0.2480414061D+00 E(B2PLYPD3) =    -0.19184500240975D+03

 The electronic state is 1-A.
 Alpha  occ. eigenvalues --  -19.72667 -10.70712 -10.64542 -10.64406  -1.17442
 Alpha  occ. eigenvalues --   -0.94858  -0.77346  -0.68066  -0.57797  -0.56454
 Alpha  occ. eigenvalues --   -0.50624  -0.48353  -0.45249  -0.35114  -0.33724
 Alpha virt. eigenvalues --   -0.02526   0.05939   0.06738   0.08159   0.09744
 Alpha virt. eigenvalues --    0.13214   0.14177   0.14999   0.17579   0.18918
 Alpha virt. eigenvalues --    0.20454   0.22341   0.24295   0.27356   0.28217

 Mulliken charges:
               1
     1  C    0.149090
     2  O   -0.369243
     3  C   -0.019653
     4  C   -0.118813
     5  H    0.099669
     6  H    0.086339
     7  H    0.101148
     8  H    0.071463
 Sum of Mulliken charges =   0.00000

 Dipole moment (field-independent basis, Debye):
    X=              3.7773    Y=             -0.5985    Z=              0.4510  Tot=              3.8509
 Quadrupole moment (field-independent basis, Debye-Ang):
   XX=            -28.1673   YY=            -21.7000   ZZ=            -24.8802
   XY=              0.5158   XZ=              0.1766   YZ=              0.2713

 Normal termination of Gaussian 09 at Wed Aug 26 14:35:05 2020.
