 Gaussian 09, Revision D.01,
 Gaussian 09:  ES64L-G09RevD.01 24-Apr-2013

 --------------------
 #p B2PLYPD3/Def2QZVP
 --------------------

 --------
 acrolein
 --------
 Symbolic Z-matrix:
 Charge =  0 Multiplicity = 1

                         Standard orientation:
 ---------------------------------------------------------------------
 Center     Atomic      Atomic             Coordinates (Angstroms)
 Number     Number       Type             X           Y           Z
 ---------------------------------------------------------------------
      1          6           0       -0.684764    0.359070    0.024478
      2          8           0       -1.779279   -0.133787   -0.023841
      3          6           0        0.548594   -0.442364    0.021904
      4          6           0        1.756298    0.145631   -0.023278
      5          1           0        0.449961   -1.510891    0.048598
      6          1           0        1.796145    1.187174    0.017508
      7          1           0        2.769381   -0.442648   -0.038497
      8          1           0       -0.502021    1.462647    0.024492
 ---------------------------------------------------------------------

 SCF Done:  E(RB2PLYPD3) =  -191.610030700     A.U. after   12 cycles
 E2(B2PLYPD3) =    -0.2473560213D+00 E(B2PLYPD3) =    -0.19185738672165D+03

 The electronic state is 1-A.
 Alpha  occ. eigenvalues --  -19.72965 -10.71758 -10.65959 -10.64289  -1.20242
 Alpha  occ. eigenvalues --   -0.92651  -0.74889  -0.67191  -0.56688  -0.55734
 Alpha  occ. eigenvalues --   -0.50357  -0.47250  -0.46704  -0.34440  -0.33935
 Alpha virt. eigenvalues --   -0.01701   0.05615   0.07093   0.08157   0.09765
 Alpha virt. eigenvalues --    0.12378   0.13868   0.15393   0.17625   0.19875
 Alpha virt. eigenvalues --    0.20069   0.21079   0.25466   0.26277   0.28884

 Mulliken charges:
               1
     1  C    0.152082
     2  O   -0.340713
     3  C   -0.035638
     4  C   -0.137149
     5  H    0.106956
     6  H    0.086434
     7  H    0.098586
     8  H    0.069442
 Sum of Mulliken charges =   0.00000

 Dipole moment (field-independent basis, Debye):
    X=              3.3659    Y=              0.7943    Z=              0.1138  Tot=              3.4602
 Quadrupole moment (field-independent basis, Debye-Ang):
   XX=            -27.2983   YY=            -21.8514   ZZ=            -25.2934
   XY=             -1.0507   XZ=             -0.1528   YZ=             -0.0042

 Normal termination of Gaussian 09 at Wed Aug 26 19:16:08 2020.
