 Gaussian 09, Revision D.01,
 Gaussian 09:  ES64L-G09RevD.01 24-Apr-2013

 --------------------
 #p B2PLYPD3/Def2QZVP
 --------------------

 --------
 acrolein
 --------
 Symbolic Z-matrix:
 Charge =  0 Multiplicity = 1

                         Standard orientation:
 ---------------------------------------------------------------------
 Center     Atomic      Atomic             Coordinates (Angstroms)
 Number     Number       Type             X           Y           Z
 ---------------------------------------------------------------------
      1          6           0        0.666144    0.355977    0.016215
      2          8           0        1.789117   -0.129839   -0.028594
      3          6           0       -0.535524   -0.438652    0.023749
      4          6           0       -1.752291    0.133505   -0.038275
      5          1           0       -0.451657   -1.532706    0.086316
      6          1           0       -1.818073    1.182924   -0.031371
      7          1           0       -2.805208   -0.410962    0.024330
      8          1           0        0.492028    1.494480    0.139336
 ---------------------------------------------------------------------

 SCF Done:  E(RB2PLYPD3) =  -191.603829871     A.U. after   13 cycles
 E2(B2PLYPD3) =    -0.2492534005D+00 E(B2PLYPD3) =    -0.19185308327138D+03

 The electronic state is 1-A.
 Alpha  occ. eigenvalues --  -19.72951 -10.72244 -10.66592 -10.64806  -1.18855
 Alpha  occ. eigenvalues --   -0.93068  -0.75315  -0.66525  -0.56528  -0.55514
 Alpha  occ. eigenvalues --   -0.49928  -0.46693  -0.45998  -0.34522  -0.34035
 Alpha virt. eigenvalues --   -0.02381   0.05440   0.06703   0.08164   0.09647
 Alpha virt. eigenvalues --    0.12208   0.14030   0.15305   0.17334   0.19644
 Alpha virt. eigenvalues --    0.20043   0.21079   0.25312   0.26132   0.29000

 Mulliken charges:
               1
     1  C    0.152307
     2  O   -0.351630
     3  C   -0.028711
     4  C   -0.124006
     5  H    0.107497
     6  H    0.082755
     7  H    0.096222
     8  H    0.065566
 Sum of Mulliken charges =   0.00000

 Dipole moment (field-independent basis, Debye):
    X=             -3.6087    Y=              0.7741    Z=              0.1967  Tot=              3.6961
 Quadrupole moment (field-independent basis, Debye-Ang):
   XX=            -27.2309   YY=            -21.9608   ZZ=            -25.3792
   XY=              0.9276   XZ=              0.0792   YZ=             -0.0936

 Normal termination of Gaussian 09 at Wed Aug 26 09:12:47 2020.
