 Gaussian 09, Revision D.01,
 Gaussian 09:  ES64L-G09RevD.01 24-Apr-2013

 --------------------
 #p B2PLYPD3/Def2QZVP
 --------------------

 --------
 acrolein
 --------
 Symbolic Z-matrix:
 Charge =  0 Multiplicity = 1

                         Standard orientation:
 ---------------------------------------------------------------------
 Center     Atomic      Atomic             Coordinates (Angstroms)
 Number     Number       Type             X           Y           Z
 ---------------------------------------------------------------------
      1          6           0       -0.684273    0.362596    0.003184
      2          8           0       -1.779548   -0.137659   -0.017023
      3          6           0        0.563752   -0.439130    0.012777
      4          6           0        1.754532    0.136884   -0.007363
      5          1           0        0.467067   -1.506793    0.054119
      6          1           0        1.819297    1.184895   -0.062800
      7          1           0        2.679224   -0.408656   -0.017514
      8          1           0       -0.533262    1.469728    0.110795
 ---------------------------------------------------------------------

 SCF Done:  E(RB2PLYPD3) =  -191.616135872     A.U. after   12 cycles
 E2(B2PLYPD3) =    -0.2464699931D+00 E(B2PLYPD3) =    -0.19186260586494D+03

 The electronic state is 1-A.
 Alpha  occ. eigenvalues --  -19.72995 -10.71887 -10.64614 -10.64046  -1.20058
 Alpha  occ. eigenvalues --   -0.93023  -0.75248  -0.67067  -0.56735  -0.56621
 Alpha  occ. eigenvalues --   -0.50934  -0.47138  -0.46755  -0.34778  -0.33870
 Alpha virt. eigenvalues --   -0.01422   0.05871   0.07219   0.08129   0.09789
 Alpha virt. eigenvalues --    0.12615   0.14094   0.15399   0.17524   0.19627
 Alpha virt. eigenvalues --    0.20197   0.21667   0.25485   0.26482   0.28770

 Mulliken charges:
               1
     1  C    0.153911
     2  O   -0.340658
     3  C   -0.042544
     4  C   -0.131030
     5  H    0.105606
     6  H    0.080663
     7  H    0.101066
     8  H    0.072986
 Sum of Mulliken charges =   0.00000

 Dipole moment (field-independent basis, Debye):
    X=              3.3532    Y=              0.8075    Z=              0.0560  Tot=              3.4495
 Quadrupole moment (field-independent basis, Debye-Ang):
   XX=            -27.2845   YY=            -21.8069   ZZ=            -25.1386
   XY=             -1.0754   XZ=             -0.2044   YZ=             -0.0883

 Normal termination of Gaussian 09 at Wed Aug 26 19:30:23 2020.
