 Gaussian 09, Revision D.01,
 Gaussian 09:  ES64L-G09RevD.01 24-Apr-2013

 --------------------
 #p B2PLYPD3/Def2QZVP
 --------------------

 --------
 acrolein
 --------
 Symbolic Z-matrix:
 Charge =  0 Multiplicity = 1

                         Standard orientation:
 ---------------------------------------------------------------------
 Center     Atomic      Atomic             Coordinates (Angstroms)
 Number     Number       Type             X           Y           Z
 ---------------------------------------------------------------------
      1          6           0        0.690394    0.362477   -0.029401
      2          8           0        1.778156   -0.136466    0.019004
      3          6           0       -0.558666   -0.442371   -0.011043
      4          6           0       -1.752661    0.147741    0.017232
      5          1           0       -0.443699   -1.491356    0.002535
      6          1           0       -1.844987    1.179036    0.057136
      7          1           0       -2.760976   -0.445731   -0.042896
      8          1           0        0.550016    1.442691   -0.029529
 ---------------------------------------------------------------------

 SCF Done:  E(RB2PLYPD3) =  -191.610288339     A.U. after   12 cycles
 E2(B2PLYPD3) =    -0.2464103823D+00 E(B2PLYPD3) =    -0.19185669872153D+03

 The electronic state is 1-A.
 Alpha  occ. eigenvalues --  -19.72865 -10.71435 -10.65580 -10.64032  -1.20413
 Alpha  occ. eigenvalues --   -0.92640  -0.74815  -0.67773  -0.57179  -0.55667
 Alpha  occ. eigenvalues --   -0.50699  -0.47227  -0.46656  -0.34627  -0.33778
 Alpha virt. eigenvalues --   -0.01403   0.05642   0.07325   0.08126   0.09752
 Alpha virt. eigenvalues --    0.12365   0.13988   0.15451   0.17801   0.19788
 Alpha virt. eigenvalues --    0.19988   0.21238   0.25606   0.26317   0.28710

 Mulliken charges:
               1
     1  C    0.152265
     2  O   -0.340830
     3  C   -0.045858
     4  C   -0.134955
     5  H    0.111539
     6  H    0.087903
     7  H    0.092082
     8  H    0.077855
 Sum of Mulliken charges =   0.00000

 Dipole moment (field-independent basis, Debye):
    X=             -3.2858    Y=              0.8608    Z=             -0.0718  Tot=              3.3974
 Quadrupole moment (field-independent basis, Debye-Ang):
   XX=            -27.3541   YY=            -21.7545   ZZ=            -25.2027
   XY=              0.9928   XZ=             -0.0721   YZ=              0.0748

 Normal termination of Gaussian 09 at Wed Aug 26 09:00:43 2020.
