 Gaussian 09, Revision D.01,
 Gaussian 09:  ES64L-G09RevD.01 24-Apr-2013

 --------------------
 #p B2PLYPD3/Def2QZVP
 --------------------

 --------
 acrolein
 --------
 Symbolic Z-matrix:
 Charge =  0 Multiplicity = 1

                         Standard orientation:
 ---------------------------------------------------------------------
 Center     Atomic      Atomic             Coordinates (Angstroms)
 Number     Number       Type             X           Y           Z
 ---------------------------------------------------------------------
      1          6           0        0.632469   -0.318068   -0.062655
      2          8           0        1.820808    0.100788    0.068383
      3          6           0       -0.608721    0.450546   -0.069415
      4          6           0       -1.724261   -0.168052    0.073068
      5          1           0       -0.515644    1.571593   -0.159969
      6          1           0       -1.719995   -1.191557   -0.106755
      7          1           0       -2.601336    0.368306    0.181120
      8          1           0        0.473588   -1.341197   -0.107447
 ---------------------------------------------------------------------

 SCF Done:  E(RB2PLYPD3) =  -191.596138485     A.U. after   14 cycles
 E2(B2PLYPD3) =    -0.2487379795D+00 E(B2PLYPD3) =    -0.19184487646470D+03

 The electronic state is 1-A.
 Alpha  occ. eigenvalues --  -19.72815 -10.71503 -10.64544 -10.64128  -1.16121
 Alpha  occ. eigenvalues --   -0.95409  -0.76921  -0.67685  -0.57877  -0.56505
 Alpha  occ. eigenvalues --   -0.50090  -0.47582  -0.44805  -0.35386  -0.33961
 Alpha virt. eigenvalues --   -0.02182   0.05834   0.06637   0.07887   0.09736
 Alpha virt. eigenvalues --    0.12926   0.14131   0.14996   0.17022   0.19885
 Alpha virt. eigenvalues --    0.20793   0.21874   0.24470   0.26808   0.28709

 Mulliken charges:
               1
     1  C    0.146756
     2  O   -0.377404
     3  C   -0.006752
     4  C   -0.123964
     5  H    0.091234
     6  H    0.087042
     7  H    0.102934
     8  H    0.080153
 Sum of Mulliken charges =   0.00000

 Dipole moment (field-independent basis, Debye):
    X=             -3.8876    Y=             -0.7254    Z=             -0.3534  Tot=              3.9705
 Quadrupole moment (field-independent basis, Debye-Ang):
   XX=            -28.0713   YY=            -21.7186   ZZ=            -24.9191
   XY=             -0.9564   XZ=             -0.5164   YZ=              0.0895

 Normal termination of Gaussian 09 at Wed Aug 26 12:32:21 2020.
