 Gaussian 09, Revision D.01,
 Gaussian 09:  ES64L-G09RevD.01 24-Apr-2013

 --------------------
 #p B2PLYPD3/Def2QZVP
 --------------------

 --------
 acrolein
 --------
 Symbolic Z-matrix:
 Charge =  0 Multiplicity = 1

                         Standard orientation:
 ---------------------------------------------------------------------
 Center     Atomic      Atomic             Coordinates (Angstroms)
 Number     Number       Type             X           Y           Z
 ---------------------------------------------------------------------
      1          6           0       -0.665327    0.341079    0.019329
      2          8           0       -1.789063   -0.110372   -0.014081
      3          6           0        0.568266   -0.456323    0.019867
      4          6           0        1.754212    0.155564   -0.012112
      5          1           0        0.431963   -1.585320   -0.008424
      6          1           0        1.818285    1.230710    0.009547
      7          1           0        2.650214   -0.416221   -0.033140
      8          1           0       -0.530859    1.411890   -0.017840
 ---------------------------------------------------------------------

 SCF Done:  E(RB2PLYPD3) =  -191.614301122     A.U. after   12 cycles
 E2(B2PLYPD3) =    -0.2471605767D+00 E(B2PLYPD3) =    -0.19186146169873D+03

 The electronic state is 1-A.
 Alpha  occ. eigenvalues --  -19.72631 -10.71185 -10.65338 -10.64988  -1.19345
 Alpha  occ. eigenvalues --   -0.93022  -0.75646  -0.66778  -0.56689  -0.56416
 Alpha  occ. eigenvalues --   -0.50417  -0.46818  -0.46643  -0.34703  -0.33762
 Alpha virt. eigenvalues --   -0.01747   0.05810   0.06955   0.08194   0.09733
 Alpha virt. eigenvalues --    0.12641   0.14062   0.15312   0.17174   0.19819
 Alpha virt. eigenvalues --    0.20033   0.21744   0.25330   0.26566   0.28807

 Mulliken charges:
               1
     1  C    0.155801
     2  O   -0.350992
     3  C   -0.036200
     4  C   -0.133514
     5  H    0.099480
     6  H    0.088984
     7  H    0.105833
     8  H    0.070608
 Sum of Mulliken charges =   0.00000

 Dipole moment (field-independent basis, Debye):
    X=              3.5170    Y=              0.7529    Z=              0.0184  Tot=              3.5967
 Quadrupole moment (field-independent basis, Debye-Ang):
   XX=            -27.5779   YY=            -21.6209   ZZ=            -25.2306
   XY=             -0.8729   XZ=             -0.1354   YZ=              0.0465

 Normal termination of Gaussian 09 at Wed Aug 26 18:45:33 2020.
