 Gaussian 09, Revision D.01,
 Gaussian 09:  ES64L-G09RevD.01 24-Apr-2013

 --------------------
 #p B2PLYPD3/Def2QZVP
 --------------------

 --------
 acrolein
 --------
 Symbolic Z-matrix:
 Charge =  0 Multiplicity = 1

                         Standard orientation:
 ---------------------------------------------------------------------
 Center     Atomic      Atomic             Coordinates (Angstroms)
 Number     Number       Type             X           Y           Z
 ---------------------------------------------------------------------
      1          6           0       -0.664428    0.324879    0.041470
      2          8           0       -1.809716   -0.077690   -0.037832
      3          6           0        0.571566   -0.493347   -0.021144
      4          6           0        1.761771    0.135025   -0.045263
      5          1           0        0.373638   -1.506542    0.237953
      6          1           0        2.029386    1.392997    0.029131
      7          1           0        2.565300   -0.442247    0.037106
      8          1           0       -0.504049    1.377972    0.148079
 ---------------------------------------------------------------------

 SCF Done:  E(RB2PLYPD3) =  -191.579314135     A.U. after   13 cycles
 E2(B2PLYPD3) =    -0.2486544689D+00 E(B2PLYPD3) =    -0.19182796860367D+03

 The electronic state is 1-A.
 Alpha  occ. eigenvalues --  -19.72648 -10.71012 -10.66888 -10.64950  -1.18966
 Alpha  occ. eigenvalues --   -0.92824  -0.75959  -0.66886  -0.57120  -0.54768
 Alpha  occ. eigenvalues --   -0.50955  -0.46638  -0.45418  -0.34717  -0.33450
 Alpha virt. eigenvalues --   -0.02050   0.04819   0.06920   0.07953   0.09339
 Alpha virt. eigenvalues --    0.12059   0.13699   0.15104   0.17991   0.18502
 Alpha virt. eigenvalues --    0.19998   0.22044   0.24365   0.27079   0.28267

 Mulliken charges:
               1
     1  C    0.158194
     2  O   -0.352716
     3  C   -0.053414
     4  C   -0.123670
     5  H    0.109005
     6  H    0.086898
     7  H    0.104162
     8  H    0.071542
 Sum of Mulliken charges =   0.00000

 Dipole moment (field-independent basis, Debye):
    X=              3.6162    Y=              0.6401    Z=              0.4665  Tot=              3.7019
 Quadrupole moment (field-independent basis, Debye-Ang):
   XX=            -27.6994   YY=            -21.6315   ZZ=            -25.2755
   XY=             -0.3079   XZ=              0.0905   YZ=             -0.2926

 Normal termination of Gaussian 09 at Wed Aug 26 14:03:13 2020.
