 Gaussian 09, Revision D.01,
 Gaussian 09:  ES64L-G09RevD.01 24-Apr-2013

 --------------------
 #p B2PLYPD3/Def2QZVP
 --------------------

 --------
 acrolein
 --------
 Symbolic Z-matrix:
 Charge =  0 Multiplicity = 1

                         Standard orientation:
 ---------------------------------------------------------------------
 Center     Atomic      Atomic             Coordinates (Angstroms)
 Number     Number       Type             X           Y           Z
 ---------------------------------------------------------------------
      1          6           0        0.681477    0.364777   -0.003788
      2          8           0        1.781025   -0.137036    0.003280
      3          6           0       -0.559576   -0.440198   -0.001420
      4          6           0       -1.753726    0.134758    0.001582
      5          1           0       -0.463319   -1.472938    0.012605
      6          1           0       -1.839630    1.213391    0.045399
      7          1           0       -2.684654   -0.441840   -0.032078
      8          1           0        0.530354    1.441649   -0.030407
 ---------------------------------------------------------------------

 SCF Done:  E(RB2PLYPD3) =  -191.615810470     A.U. after   12 cycles
 E2(B2PLYPD3) =    -0.2464988752D+00 E(B2PLYPD3) =    -0.19186230934511D+03

 The electronic state is 1-A.
 Alpha  occ. eigenvalues --  -19.72856 -10.71509 -10.65242 -10.63671  -1.19707
 Alpha  occ. eigenvalues --   -0.93015  -0.75205  -0.67765  -0.56764  -0.56364
 Alpha  occ. eigenvalues --   -0.50804  -0.47044  -0.46776  -0.34686  -0.33922
 Alpha virt. eigenvalues --   -0.01499   0.05747   0.07395   0.08123   0.09760
 Alpha virt. eigenvalues --    0.12519   0.13967   0.15426   0.17869   0.19628
 Alpha virt. eigenvalues --    0.19994   0.21509   0.25643   0.26443   0.28783

 Mulliken charges:
               1
     1  C    0.153356
     2  O   -0.347217
     3  C   -0.045414
     4  C   -0.131933
     5  H    0.110271
     6  H    0.081030
     7  H    0.099363
     8  H    0.080545
 Sum of Mulliken charges =   0.00000

 Dipole moment (field-independent basis, Debye):
    X=             -3.3877    Y=              0.8355    Z=             -0.0005  Tot=              3.4892
 Quadrupole moment (field-independent basis, Debye-Ang):
   XX=            -27.4243   YY=            -21.7042   ZZ=            -25.1431
   XY=              1.1069   XZ=             -0.0171   YZ=              0.0428

 Normal termination of Gaussian 09 at Wed Aug 26 18:41:04 2020.
