 Gaussian 09, Revision D.01,
 Gaussian 09:  ES64L-G09RevD.01 24-Apr-2013

 --------------------
 #p B2PLYPD3/Def2QZVP
 --------------------

 --------
 acrolein
 --------
 Symbolic Z-matrix:
 Charge =  0 Multiplicity = 1

                         Standard orientation:
 ---------------------------------------------------------------------
 Center     Atomic      Atomic             Coordinates (Angstroms)
 Number     Number       Type             X           Y           Z
 ---------------------------------------------------------------------
      1          6           0        0.654736    0.326345    0.011840
      2          8           0        1.804328   -0.107333   -0.035178
      3          6           0       -0.591437   -0.452082    0.052802
      4          6           0       -1.737344    0.161881   -0.022225
      5          1           0       -0.496949   -1.537806    0.057189
      6          1           0       -1.819214    1.206968   -0.021713
      7          1           0       -2.589960   -0.412257   -0.132109
      8          1           0        0.515767    1.384895    0.123556
 ---------------------------------------------------------------------

 SCF Done:  E(RB2PLYPD3) =  -191.610903352     A.U. after   12 cycles
 E2(B2PLYPD3) =    -0.2468713568D+00 E(B2PLYPD3) =    -0.19185777470913D+03

 The electronic state is 1-A.
 Alpha  occ. eigenvalues --  -19.72718 -10.71350 -10.64308 -10.64140  -1.18226
 Alpha  occ. eigenvalues --   -0.94308  -0.76216  -0.67490  -0.57405  -0.56685
 Alpha  occ. eigenvalues --   -0.50452  -0.47578  -0.46029  -0.35297  -0.33711
 Alpha virt. eigenvalues --   -0.01700   0.05874   0.07089   0.08150   0.09722
 Alpha virt. eigenvalues --    0.12904   0.14083   0.15230   0.17407   0.19769
 Alpha virt. eigenvalues --    0.20129   0.22023   0.25374   0.26519   0.28469

 Mulliken charges:
               1
     1  C    0.151893
     2  O   -0.360491
     3  C   -0.029194
     4  C   -0.126013
     5  H    0.099744
     6  H    0.089668
     7  H    0.100966
     8  H    0.073426
 Sum of Mulliken charges =   0.00000

 Dipole moment (field-independent basis, Debye):
    X=             -3.6580    Y=              0.7252    Z=              0.0557  Tot=              3.7296
 Quadrupole moment (field-independent basis, Debye-Ang):
   XX=            -27.7794   YY=            -21.6365   ZZ=            -24.9883
   XY=              0.8580   XZ=              0.5202   YZ=              0.0419

 Normal termination of Gaussian 09 at Wed Aug 26 10:22:57 2020.
