 Gaussian 09, Revision D.01,
 Gaussian 09:  ES64L-G09RevD.01 24-Apr-2013

 --------------------
 #p B2PLYPD3/Def2QZVP
 --------------------

 --------
 acrolein
 --------
 Symbolic Z-matrix:
 Charge =  0 Multiplicity = 1

                         Standard orientation:
 ---------------------------------------------------------------------
 Center     Atomic      Atomic             Coordinates (Angstroms)
 Number     Number       Type             X           Y           Z
 ---------------------------------------------------------------------
      1          6           0       -0.676246    0.351906   -0.014673
      2          8           0       -1.790422   -0.129423    0.019811
      3          6           0        0.556240   -0.430719   -0.011249
      4          6           0        1.768446    0.139669   -0.000070
      5          1           0        0.419832   -1.567025   -0.016303
      6          1           0        1.775867    1.202836    0.130171
      7          1           0        2.740047   -0.440406   -0.006279
      8          1           0       -0.503013    1.474842   -0.110119
 ---------------------------------------------------------------------

 SCF Done:  E(RB2PLYPD3) =  -191.609385423     A.U. after   12 cycles
 E2(B2PLYPD3) =    -0.2485323661D+00 E(B2PLYPD3) =    -0.19185791778939D+03

 The electronic state is 1-A.
 Alpha  occ. eigenvalues --  -19.73072 -10.72084 -10.66102 -10.65054  -1.19486
 Alpha  occ. eigenvalues --   -0.92860  -0.75314  -0.65910  -0.56138  -0.56069
 Alpha  occ. eigenvalues --   -0.50500  -0.46824  -0.45935  -0.34609  -0.34001
 Alpha virt. eigenvalues --   -0.02119   0.05658   0.06743   0.08149   0.09792
 Alpha virt. eigenvalues --    0.12417   0.13783   0.15343   0.17016   0.19475
 Alpha virt. eigenvalues --    0.20276   0.21261   0.25164   0.26476   0.28944

 Mulliken charges:
               1
     1  C    0.158686
     2  O   -0.345899
     3  C   -0.032508
     4  C   -0.130887
     5  H    0.096774
     6  H    0.084078
     7  H    0.108861
     8  H    0.060895
 Sum of Mulliken charges =   0.00000

 Dipole moment (field-independent basis, Debye):
    X=              3.4899    Y=              0.7448    Z=             -0.0029  Tot=              3.5685
 Quadrupole moment (field-independent basis, Debye-Ang):
   XX=            -27.3335   YY=            -21.9650   ZZ=            -25.3596
   XY=             -1.0786   XZ=              0.2739   YZ=              0.1377

 Normal termination of Gaussian 09 at Wed Aug 26 09:09:24 2020.
