 Gaussian 09, Revision D.01,
 Gaussian 09:  ES64L-G09RevD.01 24-Apr-2013

 --------------------
 #p B2PLYPD3/Def2QZVP
 --------------------

 --------
 acrolein
 --------
 Symbolic Z-matrix:
 Charge =  0 Multiplicity = 1

                         Standard orientation:
 ---------------------------------------------------------------------
 Center     Atomic      Atomic             Coordinates (Angstroms)
 Number     Number       Type             X           Y           Z
 ---------------------------------------------------------------------
      1          6           0        0.654279    0.337955    0.035891
      2          8           0        1.814083   -0.100129   -0.039577
      3          6           0       -0.574934   -0.471898    0.037464
      4          6           0       -1.759474    0.145441   -0.043374
      5          1           0       -0.447653   -1.613885    0.098068
      6          1           0       -1.893349    1.257895    0.052094
      7          1           0       -2.583955   -0.375906   -0.082537
      8          1           0        0.493071    1.463945    0.069101
 ---------------------------------------------------------------------

 SCF Done:  E(RB2PLYPD3) =  -191.598843353     A.U. after   13 cycles
 E2(B2PLYPD3) =    -0.2493860746D+00 E(B2PLYPD3) =    -0.19184822942753D+03

 The electronic state is 1-A.
 Alpha  occ. eigenvalues --  -19.72869 -10.72303 -10.65716 -10.65177  -1.17583
 Alpha  occ. eigenvalues --   -0.93259  -0.76432  -0.65840  -0.57235  -0.55650
 Alpha  occ. eigenvalues --   -0.50101  -0.47014  -0.45560  -0.34685  -0.33800
 Alpha virt. eigenvalues --   -0.02315   0.05649   0.06678   0.07824   0.09567
 Alpha virt. eigenvalues --    0.12537   0.14190   0.15205   0.16769   0.19864
 Alpha virt. eigenvalues --    0.20047   0.22177   0.24810   0.26346   0.28433

 Mulliken charges:
               1
     1  C    0.159349
     2  O   -0.361650
     3  C   -0.035960
     4  C   -0.121486
     5  H    0.099625
     6  H    0.085334
     7  H    0.106581
     8  H    0.068206
 Sum of Mulliken charges =   0.00000

 Dipole moment (field-independent basis, Debye):
    X=             -3.7533    Y=              0.6781    Z=              0.2114  Tot=              3.8200
 Quadrupole moment (field-independent basis, Debye-Ang):
   XX=            -27.7079   YY=            -21.5825   ZZ=            -25.3315
   XY=              0.6526   XZ=              0.2600   YZ=              0.0083

 Normal termination of Gaussian 09 at Wed Aug 26 08:46:57 2020.
