 Gaussian 09, Revision D.01,
 Gaussian 09:  ES64L-G09RevD.01 24-Apr-2013

 --------------------
 #p B2PLYPD3/Def2QZVP
 --------------------

 --------
 acrolein
 --------
 Symbolic Z-matrix:
 Charge =  0 Multiplicity = 1

                         Standard orientation:
 ---------------------------------------------------------------------
 Center     Atomic      Atomic             Coordinates (Angstroms)
 Number     Number       Type             X           Y           Z
 ---------------------------------------------------------------------
      1          6           0       -0.665843    0.341873   -0.031125
      2          8           0       -1.807839   -0.124988    0.010370
      3          6           0        0.550953   -0.427137   -0.022809
      4          6           0        1.781647    0.124616   -0.030728
      5          1           0        0.420470   -1.431100    0.089285
      6          1           0        1.832417    1.171458    0.007639
      7          1           0        2.616724   -0.492650    0.169184
      8          1           0       -0.407447    1.516086    0.158902
 ---------------------------------------------------------------------

 SCF Done:  E(RB2PLYPD3) =  -191.597775991     A.U. after   13 cycles
 E2(B2PLYPD3) =    -0.2497931475D+00 E(B2PLYPD3) =    -0.19184756913897D+03

 The electronic state is 1-A.
 Alpha  occ. eigenvalues --  -19.73488 -10.72872 -10.65541 -10.63994  -1.18491
 Alpha  occ. eigenvalues --   -0.93765  -0.76697  -0.66813  -0.57089  -0.55557
 Alpha  occ. eigenvalues --   -0.50544  -0.48158  -0.46145  -0.34722  -0.33832
 Alpha virt. eigenvalues --   -0.03012   0.05713   0.06780   0.08243   0.09927
 Alpha virt. eigenvalues --    0.12720   0.13335   0.15226   0.17696   0.19309
 Alpha virt. eigenvalues --    0.19967   0.22028   0.24552   0.26786   0.28351

 Mulliken charges:
               1
     1  C    0.167440
     2  O   -0.354056
     3  C   -0.023383
     4  C   -0.123553
     5  H    0.104416
     6  H    0.087551
     7  H    0.105571
     8  H    0.036013
 Sum of Mulliken charges =   0.00000

 Dipole moment (field-independent basis, Debye):
    X=              3.6604    Y=              0.5710    Z=              0.2216  Tot=              3.7113
 Quadrupole moment (field-independent basis, Debye-Ang):
   XX=            -27.5287   YY=            -22.1684   ZZ=            -25.1696
   XY=             -0.8346   XZ=              0.5419   YZ=             -0.1684

 Normal termination of Gaussian 09 at Wed Aug 26 13:22:31 2020.
