 Gaussian 09, Revision D.01,
 Gaussian 09:  ES64L-G09RevD.01 24-Apr-2013

 --------------------
 #p B2PLYPD3/Def2QZVP
 --------------------

 --------
 acrolein
 --------
 Symbolic Z-matrix:
 Charge =  0 Multiplicity = 1

                         Standard orientation:
 ---------------------------------------------------------------------
 Center     Atomic      Atomic             Coordinates (Angstroms)
 Number     Number       Type             X           Y           Z
 ---------------------------------------------------------------------
      1          6           0       -0.654458   -0.347696    0.028726
      2          8           0       -1.796832    0.104600   -0.035237
      3          6           0        0.583777    0.463280    0.065294
      4          6           0        1.750127   -0.155953   -0.024432
      5          1           0        0.422013    1.623830   -0.039280
      6          1           0        1.827559   -1.254403   -0.040050
      7          1           0        2.552212    0.417121   -0.099629
      8          1           0       -0.503808   -1.381136    0.043328
 ---------------------------------------------------------------------

 SCF Done:  E(RB2PLYPD3) =  -191.599689871     A.U. after   13 cycles
 E2(B2PLYPD3) =    -0.2478581320D+00 E(B2PLYPD3) =    -0.19184754800306D+03

 The electronic state is 1-A.
 Alpha  occ. eigenvalues --  -19.72654 -10.71148 -10.65293 -10.64634  -1.18160
 Alpha  occ. eigenvalues --   -0.93503  -0.76383  -0.66836  -0.57162  -0.56296
 Alpha  occ. eigenvalues --   -0.50341  -0.46584  -0.45966  -0.34883  -0.33829
 Alpha virt. eigenvalues --   -0.01768   0.05795   0.06815   0.07844   0.09695
 Alpha virt. eigenvalues --    0.12698   0.13869   0.15277   0.17104   0.19630
 Alpha virt. eigenvalues --    0.20016   0.22292   0.24974   0.26759   0.28609

 Mulliken charges:
               1
     1  C    0.158426
     2  O   -0.362584
     3  C   -0.040496
     4  C   -0.129291
     5  H    0.096545
     6  H    0.089327
     7  H    0.107851
     8  H    0.080222
 Sum of Mulliken charges =   0.00000

 Dipole moment (field-independent basis, Debye):
    X=              3.5970    Y=             -0.8035    Z=             -0.0300  Tot=              3.6858
 Quadrupole moment (field-independent basis, Debye-Ang):
   XX=            -27.9609   YY=            -21.3975   ZZ=            -25.1887
   XY=              0.7714   XZ=             -0.5168   YZ=             -0.1302

 Normal termination of Gaussian 09 at Wed Aug 26 10:23:41 2020.
