 Gaussian 09, Revision D.01,
 Gaussian 09:  ES64L-G09RevD.01 24-Apr-2013

 --------------------
 #p B2PLYPD3/Def2QZVP
 --------------------

 --------
 acrolein
 --------
 Symbolic Z-matrix:
 Charge =  0 Multiplicity = 1

                         Standard orientation:
 ---------------------------------------------------------------------
 Center     Atomic      Atomic             Coordinates (Angstroms)
 Number     Number       Type             X           Y           Z
 ---------------------------------------------------------------------
      1          6           0        0.651287    0.329291    0.018743
      2          8           0        1.797553   -0.101920   -0.016771
      3          6           0       -0.566969   -0.482372    0.022786
      4          6           0       -1.735334    0.157707   -0.028016
      5          1           0       -0.492878   -1.526826   -0.024892
      6          1           0       -1.862283    1.300764   -0.039488
      7          1           0       -2.641976   -0.417052    0.061134
      8          1           0        0.522803    1.430715    0.056340
 ---------------------------------------------------------------------

 SCF Done:  E(RB2PLYPD3) =  -191.610235109     A.U. after   13 cycles
 E2(B2PLYPD3) =    -0.2480596503D+00 E(B2PLYPD3) =    -0.19185829475937D+03

 The electronic state is 1-A.
 Alpha  occ. eigenvalues --  -19.72501 -10.71525 -10.66270 -10.64417  -1.18413
 Alpha  occ. eigenvalues --   -0.93379  -0.75136  -0.67179  -0.56453  -0.56083
 Alpha  occ. eigenvalues --   -0.50047  -0.47156  -0.46129  -0.34786  -0.33614
 Alpha virt. eigenvalues --   -0.01907   0.05564   0.07048   0.07963   0.09597
 Alpha virt. eigenvalues --    0.12423   0.13950   0.15283   0.17669   0.19211
 Alpha virt. eigenvalues --    0.20044   0.21574   0.25228   0.26350   0.28749

 Mulliken charges:
               1
     1  C    0.152410
     2  O   -0.357724
     3  C   -0.043023
     4  C   -0.118300
     5  H    0.111779
     6  H    0.086923
     7  H    0.096568
     8  H    0.071367
 Sum of Mulliken charges =   0.00000

 Dipole moment (field-independent basis, Debye):
    X=             -3.6665    Y=              0.6708    Z=              0.0737  Tot=              3.7281
 Quadrupole moment (field-independent basis, Debye-Ang):
   XX=            -27.7935   YY=            -21.5073   ZZ=            -25.2621
   XY=              0.8032   XZ=              0.0170   YZ=             -0.0119

 Normal termination of Gaussian 09 at Wed Aug 26 09:45:02 2020.
