 Gaussian 09, Revision D.01,
 Gaussian 09:  ES64L-G09RevD.01 24-Apr-2013

 --------------------
 #p B2PLYPD3/Def2QZVP
 --------------------

 --------
 acrolein
 --------
 Symbolic Z-matrix:
 Charge =  0 Multiplicity = 1

                         Standard orientation:
 ---------------------------------------------------------------------
 Center     Atomic      Atomic             Coordinates (Angstroms)
 Number     Number       Type             X           Y           Z
 ---------------------------------------------------------------------
      1          6           0       -0.671673    0.347785    0.006487
      2          8           0       -1.778856   -0.125728   -0.011953
      3          6           0        0.550437   -0.428525    0.029351
      4          6           0        1.756365    0.141698   -0.014373
      5          1           0        0.436913   -1.547338   -0.015514
      6          1           0        1.789736    1.188089    0.009138
      7          1           0        2.702679   -0.438055   -0.035071
      8          1           0       -0.509258    1.437384    0.008280
 ---------------------------------------------------------------------

 SCF Done:  E(RB2PLYPD3) =  -191.613728310     A.U. after   12 cycles
 E2(B2PLYPD3) =    -0.2470559154D+00 E(B2PLYPD3) =    -0.19186078422585D+03

 The electronic state is 1-A.
 Alpha  occ. eigenvalues --  -19.72778 -10.71318 -10.65492 -10.64521  -1.19924
 Alpha  occ. eigenvalues --   -0.93216  -0.75764  -0.66723  -0.56837  -0.56307
 Alpha  occ. eigenvalues --   -0.50620  -0.47129  -0.46362  -0.34682  -0.33942
 Alpha virt. eigenvalues --   -0.01889   0.05771   0.06956   0.08488   0.09813
 Alpha virt. eigenvalues --    0.12573   0.13952   0.15325   0.17314   0.19905
 Alpha virt. eigenvalues --    0.20035   0.21504   0.25528   0.26469   0.28933

 Mulliken charges:
               1
     1  C    0.152501
     2  O   -0.345407
     3  C   -0.026484
     4  C   -0.134814
     5  H    0.096970
     6  H    0.085296
     7  H    0.107049
     8  H    0.064889
 Sum of Mulliken charges =   0.00000

 Dipole moment (field-independent basis, Debye):
    X=              3.4846    Y=              0.7701    Z=             -0.0021  Tot=              3.5687
 Quadrupole moment (field-independent basis, Debye-Ang):
   XX=            -27.2662   YY=            -21.8834   ZZ=            -25.1993
   XY=             -1.0443   XZ=             -0.1473   YZ=              0.0769

 Normal termination of Gaussian 09 at Wed Aug 26 15:36:12 2020.
