 Gaussian 09, Revision D.01,
 Gaussian 09:  ES64L-G09RevD.01 24-Apr-2013

 --------------------
 #p B2PLYPD3/Def2QZVP
 --------------------

 --------
 acrolein
 --------
 Symbolic Z-matrix:
 Charge =  0 Multiplicity = 1

                         Standard orientation:
 ---------------------------------------------------------------------
 Center     Atomic      Atomic             Coordinates (Angstroms)
 Number     Number       Type             X           Y           Z
 ---------------------------------------------------------------------
      1          6           0       -0.658139   -0.292529   -0.063798
      2          8           0       -1.791071    0.081855    0.051994
      3          6           0        0.599765    0.472588   -0.063794
      4          6           0        1.731568   -0.188433   -0.004123
      5          1           0        0.436623    1.571339    0.053886
      6          1           0        1.779279   -1.229140    0.104142
      7          1           0        2.650632    0.380835    0.211134
      8          1           0       -0.577130   -1.327641    0.005175
 ---------------------------------------------------------------------

 SCF Done:  E(RB2PLYPD3) =  -191.603944179     A.U. after   12 cycles
 E2(B2PLYPD3) =    -0.2460721455D+00 E(B2PLYPD3) =    -0.19185001632492D+03

 The electronic state is 1-A.
 Alpha  occ. eigenvalues --  -19.72379 -10.70283 -10.65202 -10.64807  -1.20011
 Alpha  occ. eigenvalues --   -0.93824  -0.75501  -0.67553  -0.57536  -0.56239
 Alpha  occ. eigenvalues --   -0.50636  -0.47107  -0.46724  -0.35345  -0.33224
 Alpha virt. eigenvalues --   -0.01485   0.05857   0.07038   0.08371   0.09745
 Alpha virt. eigenvalues --    0.12942   0.14049   0.15230   0.17445   0.19576
 Alpha virt. eigenvalues --    0.20064   0.21846   0.24735   0.26889   0.28221

 Mulliken charges:
               1
     1  C    0.157250
     2  O   -0.346720
     3  C   -0.031793
     4  C   -0.119668
     5  H    0.099584
     6  H    0.091963
     7  H    0.094386
     8  H    0.054997
 Sum of Mulliken charges =   0.00000

 Dipole moment (field-independent basis, Debye):
    X=              3.4675    Y=             -0.6321    Z=              0.1244  Tot=              3.5269
 Quadrupole moment (field-independent basis, Debye-Ang):
   XX=            -27.7638   YY=            -21.7572   ZZ=            -24.9698
   XY=              0.6454   XZ=              0.9402   YZ=              0.0555

 Normal termination of Gaussian 09 at Wed Aug 26 11:46:30 2020.
