 Gaussian 09, Revision D.01,
 Gaussian 09:  ES64L-G09RevD.01 24-Apr-2013

 --------------------
 #p B2PLYPD3/Def2QZVP
 --------------------

 --------
 acrolein
 --------
 Symbolic Z-matrix:
 Charge =  0 Multiplicity = 1

                         Standard orientation:
 ---------------------------------------------------------------------
 Center     Atomic      Atomic             Coordinates (Angstroms)
 Number     Number       Type             X           Y           Z
 ---------------------------------------------------------------------
      1          6           0        0.649320   -0.307781    0.068613
      2          8           0        1.789392    0.085195   -0.066288
      3          6           0       -0.582637    0.451264    0.003736
      4          6           0       -1.750419   -0.173151   -0.002727
      5          1           0       -0.327130    1.626972    0.180596
      6          1           0       -1.844035   -1.226406   -0.160397
      7          1           0       -2.643067    0.445956   -0.115199
      8          1           0        0.601513   -1.350077    0.207564
 ---------------------------------------------------------------------

 SCF Done:  E(RB2PLYPD3) =  -191.595888632     A.U. after   13 cycles
 E2(B2PLYPD3) =    -0.2477572330D+00 E(B2PLYPD3) =    -0.19184364586497D+03

 The electronic state is 1-A.
 Alpha  occ. eigenvalues --  -19.72345 -10.70429 -10.65860 -10.65717  -1.19138
 Alpha  occ. eigenvalues --   -0.93554  -0.76066  -0.66448  -0.57338  -0.55957
 Alpha  occ. eigenvalues --   -0.50098  -0.46860  -0.45389  -0.35169  -0.33363
 Alpha virt. eigenvalues --   -0.02015   0.05795   0.06426   0.08250   0.09609
 Alpha virt. eigenvalues --    0.12620   0.13733   0.14956   0.17099   0.19440
 Alpha virt. eigenvalues --    0.20081   0.21663   0.24427   0.27108   0.28127

 Mulliken charges:
               1
     1  C    0.154237
     2  O   -0.353238
     3  C   -0.028741
     4  C   -0.123461
     5  H    0.093708
     6  H    0.095918
     7  H    0.101601
     8  H    0.059977
 Sum of Mulliken charges =   0.00000

 Dipole moment (field-independent basis, Debye):
    X=             -3.5517    Y=             -0.6979    Z=              0.2150  Tot=              3.6260
 Quadrupole moment (field-independent basis, Debye-Ang):
   XX=            -27.7294   YY=            -21.7365   ZZ=            -25.1585
   XY=             -0.5568   XZ=              0.8410   YZ=              0.3754

 Normal termination of Gaussian 09 at Wed Aug 26 12:07:12 2020.
