 Gaussian 09, Revision D.01,
 Gaussian 09:  ES64L-G09RevD.01 24-Apr-2013

 --------------------
 #p B2PLYPD3/Def2QZVP
 --------------------

 --------
 acrolein
 --------
 Symbolic Z-matrix:
 Charge =  0 Multiplicity = 1

                         Standard orientation:
 ---------------------------------------------------------------------
 Center     Atomic      Atomic             Coordinates (Angstroms)
 Number     Number       Type             X           Y           Z
 ---------------------------------------------------------------------
      1          6           0       -0.672849    0.348227   -0.009689
      2          8           0       -1.787967   -0.126800    0.009875
      3          6           0        0.555559   -0.439471   -0.012400
      4          6           0        1.763262    0.129039    0.006247
      5          1           0        0.454098   -1.504511   -0.025307
      6          1           0        1.841988    1.222673   -0.034544
      7          1           0        2.638149   -0.424746    0.060718
      8          1           0       -0.506328    1.494217    0.015178
 ---------------------------------------------------------------------

 SCF Done:  E(RB2PLYPD3) =  -191.613820983     A.U. after   12 cycles
 E2(B2PLYPD3) =    -0.2474916523D+00 E(B2PLYPD3) =    -0.19186131263514D+03

 The electronic state is 1-A.
 Alpha  occ. eigenvalues --  -19.72982 -10.72082 -10.65259 -10.64265  -1.19540
 Alpha  occ. eigenvalues --   -0.93182  -0.75851  -0.66436  -0.57112  -0.56093
 Alpha  occ. eigenvalues --   -0.50736  -0.47089  -0.46781  -0.34685  -0.33859
 Alpha virt. eigenvalues --   -0.01970   0.05795   0.07111   0.08311   0.09777
 Alpha virt. eigenvalues --    0.12520   0.13927   0.15370   0.17394   0.19703
 Alpha virt. eigenvalues --    0.19990   0.21809   0.25479   0.26337   0.28801

 Mulliken charges:
               1
     1  C    0.159466
     2  O   -0.345684
     3  C   -0.035260
     4  C   -0.129083
     5  H    0.103342
     6  H    0.082376
     7  H    0.107005
     8  H    0.057837
 Sum of Mulliken charges =   0.00000

 Dipole moment (field-independent basis, Debye):
    X=              3.5196    Y=              0.6899    Z=             -0.0255  Tot=              3.5867
 Quadrupole moment (field-independent basis, Debye-Ang):
   XX=            -27.2970   YY=            -21.8802   ZZ=            -25.2094
   XY=             -0.9880   XZ=              0.1318   YZ=             -0.0399

 Normal termination of Gaussian 09 at Wed Aug 26 15:33:33 2020.
