 Gaussian 09, Revision D.01,
 Gaussian 09:  ES64L-G09RevD.01 24-Apr-2013

 --------------------
 #p B2PLYPD3/Def2QZVP
 --------------------

 --------
 acrolein
 --------
 Symbolic Z-matrix:
 Charge =  0 Multiplicity = 1

                         Standard orientation:
 ---------------------------------------------------------------------
 Center     Atomic      Atomic             Coordinates (Angstroms)
 Number     Number       Type             X           Y           Z
 ---------------------------------------------------------------------
      1          6           0        0.672398    0.356982    0.017655
      2          8           0        1.783799   -0.125900   -0.016762
      3          6           0       -0.545212   -0.443911   -0.002194
      4          6           0       -1.750114    0.134906   -0.015117
      5          1           0       -0.442566   -1.536635    0.078452
      6          1           0       -1.827999    1.206775   -0.011488
      7          1           0       -2.746078   -0.414621    0.004864
      8          1           0        0.483821    1.463821    0.060205
 ---------------------------------------------------------------------

 SCF Done:  E(RB2PLYPD3) =  -191.613111162     A.U. after   12 cycles
 E2(B2PLYPD3) =    -0.2478676085D+00 E(B2PLYPD3) =    -0.19186097877032D+03

 The electronic state is 1-A.
 Alpha  occ. eigenvalues --  -19.72911 -10.71817 -10.66044 -10.64552  -1.19523
 Alpha  occ. eigenvalues --   -0.92927  -0.75223  -0.66717  -0.56589  -0.55848
 Alpha  occ. eigenvalues --   -0.50407  -0.46964  -0.46155  -0.34614  -0.33982
 Alpha virt. eigenvalues --   -0.01899   0.05619   0.06963   0.08188   0.09700
 Alpha virt. eigenvalues --    0.12413   0.14026   0.15299   0.17445   0.19838
 Alpha virt. eigenvalues --    0.19966   0.21237   0.25463   0.26402   0.28890

 Mulliken charges:
               1
     1  C    0.154396
     2  O   -0.347186
     3  C   -0.033281
     4  C   -0.128564
     5  H    0.105028
     6  H    0.080730
     7  H    0.099327
     8  H    0.069549
 Sum of Mulliken charges =   0.00000

 Dipole moment (field-independent basis, Debye):
    X=             -3.5026    Y=              0.7823    Z=              0.1428  Tot=              3.5917
 Quadrupole moment (field-independent basis, Debye-Ang):
   XX=            -27.2891   YY=            -21.8671   ZZ=            -25.2933
   XY=              0.9022   XZ=              0.0376   YZ=             -0.1062

 Normal termination of Gaussian 09 at Wed Aug 26 19:07:59 2020.
