 Gaussian 09, Revision D.01,
 Gaussian 09:  ES64L-G09RevD.01 24-Apr-2013

 --------------------
 #p B2PLYPD3/Def2QZVP
 --------------------

 --------
 acrolein
 --------
 Symbolic Z-matrix:
 Charge =  0 Multiplicity = 1

                         Standard orientation:
 ---------------------------------------------------------------------
 Center     Atomic      Atomic             Coordinates (Angstroms)
 Number     Number       Type             X           Y           Z
 ---------------------------------------------------------------------
      1          6           0        0.667560    0.342359    0.007402
      2          8           0        1.799369   -0.106008    0.007402
      3          6           0       -0.565151   -0.463996   -0.025025
      4          6           0       -1.765449    0.156822   -0.007806
      5          1           0       -0.421477   -1.596602    0.009313
      6          1           0       -1.850410    1.279280    0.013848
      7          1           0       -2.726639   -0.417583    0.095223
      8          1           0        0.581820    1.371848   -0.025028
 ---------------------------------------------------------------------

 SCF Done:  E(RB2PLYPD3) =  -191.606389500     A.U. after   13 cycles
 E2(B2PLYPD3) =    -0.2481410915D+00 E(B2PLYPD3) =    -0.19185453059157D+03

 The electronic state is 1-A.
 Alpha  occ. eigenvalues --  -19.72453 -10.70801 -10.66817 -10.65548  -1.18945
 Alpha  occ. eigenvalues --   -0.92327  -0.75197  -0.67226  -0.56505  -0.55595
 Alpha  occ. eigenvalues --   -0.50073  -0.46361  -0.46181  -0.34440  -0.33780
 Alpha virt. eigenvalues --   -0.02016   0.05518   0.06923   0.08011   0.09566
 Alpha virt. eigenvalues --    0.12324   0.14091   0.15321   0.17350   0.19434
 Alpha virt. eigenvalues --    0.19906   0.21252   0.25099   0.26556   0.29041

 Mulliken charges:
               1
     1  C    0.159760
     2  O   -0.356277
     3  C   -0.045196
     4  C   -0.127435
     5  H    0.103672
     6  H    0.085758
     7  H    0.101471
     8  H    0.078247
 Sum of Mulliken charges =   0.00000

 Dipole moment (field-independent basis, Debye):
    X=             -3.5555    Y=              0.7989    Z=              0.0861  Tot=              3.6452
 Quadrupole moment (field-independent basis, Debye-Ang):
   XX=            -27.6583   YY=            -21.5409   ZZ=            -25.3879
   XY=              0.8812   XZ=             -0.3245   YZ=             -0.0713

 Normal termination of Gaussian 09 at Wed Aug 26 08:46:07 2020.
