 Gaussian 09, Revision D.01,
 Gaussian 09:  ES64L-G09RevD.01 24-Apr-2013

 --------------------
 #p B2PLYPD3/Def2QZVP
 --------------------

 --------
 acrolein
 --------
 Symbolic Z-matrix:
 Charge =  0 Multiplicity = 1

                         Standard orientation:
 ---------------------------------------------------------------------
 Center     Atomic      Atomic             Coordinates (Angstroms)
 Number     Number       Type             X           Y           Z
 ---------------------------------------------------------------------
      1          6           0        0.686595    0.355589   -0.049597
      2          8           0        1.758977   -0.135805    0.043892
      3          6           0       -0.549383   -0.441650   -0.020363
      4          6           0       -1.752051    0.132336    0.013343
      5          1           0       -0.464615   -1.436756   -0.071588
      6          1           0       -1.833467    1.228476    0.112568
      7          1           0       -2.676946   -0.417217    0.041601
      8          1           0        0.592250    1.434286   -0.094009
 ---------------------------------------------------------------------

 SCF Done:  E(RB2PLYPD3) =  -191.611303901     A.U. after   13 cycles
 E2(B2PLYPD3) =    -0.2450864898D+00 E(B2PLYPD3) =    -0.19185639039028D+03

 The electronic state is 1-A.
 Alpha  occ. eigenvalues --  -19.72563 -10.70877 -10.65219 -10.63225  -1.21214
 Alpha  occ. eigenvalues --   -0.92834  -0.75087  -0.68134  -0.57222  -0.56667
 Alpha  occ. eigenvalues --   -0.51106  -0.47632  -0.47049  -0.34529  -0.33728
 Alpha virt. eigenvalues --   -0.01211   0.05838   0.07624   0.08363   0.09762
 Alpha virt. eigenvalues --    0.12504   0.14171   0.15432   0.18155   0.19511
 Alpha virt. eigenvalues --    0.19966   0.21459   0.25513   0.26365   0.29074

 Mulliken charges:
               1
     1  C    0.152553
     2  O   -0.334248
     3  C   -0.053055
     4  C   -0.129395
     5  H    0.112686
     6  H    0.077045
     7  H    0.098347
     8  H    0.076067
 Sum of Mulliken charges =   0.00000

 Dipole moment (field-independent basis, Debye):
    X=             -3.2417    Y=              0.7877    Z=             -0.1216  Tot=              3.3383
 Quadrupole moment (field-independent basis, Debye-Ang):
   XX=            -27.1092   YY=            -21.7869   ZZ=            -25.0392
   XY=              1.1820   XZ=             -0.4531   YZ=              0.1793

 Normal termination of Gaussian 09 at Wed Aug 26 08:24:44 2020.
