 Gaussian 09, Revision D.01,
 Gaussian 09:  ES64L-G09RevD.01 24-Apr-2013

 --------------------
 #p B2PLYPD3/Def2QZVP
 --------------------

 --------
 acrolein
 --------
 Symbolic Z-matrix:
 Charge =  0 Multiplicity = 1

                         Standard orientation:
 ---------------------------------------------------------------------
 Center     Atomic      Atomic             Coordinates (Angstroms)
 Number     Number       Type             X           Y           Z
 ---------------------------------------------------------------------
      1          6           0        0.672247    0.366306    0.030219
      2          8           0        1.792499   -0.141174   -0.031939
      3          6           0       -0.564084   -0.454667    0.019056
      4          6           0       -1.750806    0.137987   -0.034599
      5          1           0       -0.476910   -1.478480    0.100868
      6          1           0       -1.792125    1.187703   -0.008821
      7          1           0       -2.689903   -0.425990   -0.010632
      8          1           0        0.474807    1.548407    0.086039
 ---------------------------------------------------------------------

 SCF Done:  E(RB2PLYPD3) =  -191.606761855     A.U. after   13 cycles
 E2(B2PLYPD3) =    -0.2487589810D+00 E(B2PLYPD3) =    -0.19185552083644D+03

 The electronic state is 1-A.
 Alpha  occ. eigenvalues --  -19.73300 -10.73096 -10.65085 -10.64006  -1.18581
 Alpha  occ. eigenvalues --   -0.93285  -0.74965  -0.67024  -0.56528  -0.55746
 Alpha  occ. eigenvalues --   -0.50309  -0.47629  -0.46178  -0.34739  -0.33932
 Alpha virt. eigenvalues --   -0.01861   0.05702   0.06924   0.07768   0.09809
 Alpha virt. eigenvalues --    0.12466   0.13584   0.15284   0.17510   0.19860
 Alpha virt. eigenvalues --    0.20101   0.21366   0.25350   0.26283   0.28913

 Mulliken charges:
               1
     1  C    0.157274
     2  O   -0.350553
     3  C   -0.035582
     4  C   -0.126636
     5  H    0.110826
     6  H    0.083633
     7  H    0.098953
     8  H    0.062084
 Sum of Mulliken charges =   0.00000

 Dipole moment (field-independent basis, Debye):
    X=             -3.5006    Y=              0.7477    Z=              0.2077  Tot=              3.5856
 Quadrupole moment (field-independent basis, Debye-Ang):
   XX=            -27.5452   YY=            -21.7892   ZZ=            -25.2798
   XY=              1.0565   XZ=              0.1190   YZ=             -0.0966

 Normal termination of Gaussian 09 at Wed Aug 26 08:49:10 2020.
