 Gaussian 09, Revision D.01,
 Gaussian 09:  ES64L-G09RevD.01 24-Apr-2013

 --------------------
 #p B2PLYPD3/Def2QZVP
 --------------------

 --------
 acrolein
 --------
 Symbolic Z-matrix:
 Charge =  0 Multiplicity = 1

                         Standard orientation:
 ---------------------------------------------------------------------
 Center     Atomic      Atomic             Coordinates (Angstroms)
 Number     Number       Type             X           Y           Z
 ---------------------------------------------------------------------
      1          6           0        0.667466    0.359852   -0.008786
      2          8           0        1.771565   -0.134179   -0.012846
      3          6           0       -0.541416   -0.426360    0.020198
      4          6           0       -1.750096    0.132554   -0.028358
      5          1           0       -0.425820   -1.479402    0.071153
      6          1           0       -1.773385    1.174702    0.027024
      7          1           0       -2.763543   -0.423227   -0.001973
      8          1           0        0.534500    1.405093    0.108239
 ---------------------------------------------------------------------

 SCF Done:  E(RB2PLYPD3) =  -191.608551033     A.U. after   13 cycles
 E2(B2PLYPD3) =    -0.2468622690D+00 E(B2PLYPD3) =    -0.19185541330221D+03

 The electronic state is 1-A.
 Alpha  occ. eigenvalues --  -19.72619 -10.70862 -10.65767 -10.63800  -1.19591
 Alpha  occ. eigenvalues --   -0.93397  -0.75696  -0.68070  -0.57217  -0.55963
 Alpha  occ. eigenvalues --   -0.50571  -0.47180  -0.46322  -0.34629  -0.33988
 Alpha virt. eigenvalues --   -0.01917   0.05643   0.07235   0.08341   0.09774
 Alpha virt. eigenvalues --    0.12442   0.14132   0.15339   0.17785   0.19704
 Alpha virt. eigenvalues --    0.20109   0.21168   0.25661   0.26472   0.29165

 Mulliken charges:
               1
     1  C    0.151252
     2  O   -0.352318
     3  C   -0.033817
     4  C   -0.131446
     5  H    0.108038
     6  H    0.080735
     7  H    0.099885
     8  H    0.077672
 Sum of Mulliken charges =   0.00000

 Dipole moment (field-independent basis, Debye):
    X=             -3.4731    Y=              0.8457    Z=              0.1411  Tot=              3.5774
 Quadrupole moment (field-independent basis, Debye-Ang):
   XX=            -27.2208   YY=            -21.8790   ZZ=            -25.1064
   XY=              1.1452   XZ=              0.0062   YZ=             -0.0034

 Normal termination of Gaussian 09 at Wed Aug 26 08:42:19 2020.
