 Gaussian 09, Revision D.01,
 Gaussian 09:  ES64L-G09RevD.01 24-Apr-2013

 --------------------
 #p B2PLYPD3/Def2QZVP
 --------------------

 --------
 acrolein
 --------
 Symbolic Z-matrix:
 Charge =  0 Multiplicity = 1

                         Standard orientation:
 ---------------------------------------------------------------------
 Center     Atomic      Atomic             Coordinates (Angstroms)
 Number     Number       Type             X           Y           Z
 ---------------------------------------------------------------------
      1          6           0        0.653792    0.379439    0.068168
      2          8           0        1.780816   -0.148133   -0.065017
      3          6           0       -0.553524   -0.404227    0.101083
      4          6           0       -1.761808    0.123891   -0.049896
      5          1           0       -0.301184   -1.554918   -0.010652
      6          1           0       -1.682813    1.080860   -0.026592
      7          1           0       -2.744902   -0.456404   -0.153563
      8          1           0        0.451607    1.520908   -0.005191
 ---------------------------------------------------------------------

 SCF Done:  E(RB2PLYPD3) =  -191.580273811     A.U. after   13 cycles
 E2(B2PLYPD3) =    -0.2508038484D+00 E(B2PLYPD3) =    -0.19183107765934D+03

 The electronic state is 1-A.
 Alpha  occ. eigenvalues --  -19.73268 -10.72729 -10.65227 -10.65080  -1.17488
 Alpha  occ. eigenvalues --   -0.94300  -0.76363  -0.66037  -0.56700  -0.55979
 Alpha  occ. eigenvalues --   -0.50368  -0.46112  -0.44992  -0.34904  -0.34195
 Alpha virt. eigenvalues --   -0.02689   0.05626   0.06438   0.07855   0.10046
 Alpha virt. eigenvalues --    0.12305   0.13325   0.15045   0.16626   0.19684
 Alpha virt. eigenvalues --    0.20633   0.21611   0.24419   0.26646   0.29302

 Mulliken charges:
               1
     1  C    0.160433
     2  O   -0.367360
     3  C   -0.017686
     4  C   -0.135905
     5  H    0.094674
     6  H    0.088993
     7  H    0.119813
     8  H    0.057039
 Sum of Mulliken charges =   0.00000

 Dipole moment (field-independent basis, Debye):
    X=             -3.6486    Y=              0.8660    Z=              0.0390  Tot=              3.7502
 Quadrupole moment (field-independent basis, Debye-Ang):
   XX=            -27.2824   YY=            -22.1006   ZZ=            -25.3073
   XY=              1.1408   XZ=              0.7489   YZ=              0.1488

 Normal termination of Gaussian 09 at Wed Aug 26 14:24:22 2020.
