 Gaussian 09, Revision D.01,
 Gaussian 09:  ES64L-G09RevD.01 24-Apr-2013

 --------------------
 #p B2PLYPD3/Def2QZVP
 --------------------

 --------
 acrolein
 --------
 Symbolic Z-matrix:
 Charge =  0 Multiplicity = 1

                         Standard orientation:
 ---------------------------------------------------------------------
 Center     Atomic      Atomic             Coordinates (Angstroms)
 Number     Number       Type             X           Y           Z
 ---------------------------------------------------------------------
      1          6           0       -0.674740    0.340621    0.021983
      2          8           0       -1.781949   -0.105896   -0.039066
      3          6           0        0.571114   -0.487940    0.023024
      4          6           0        1.748943    0.168147   -0.019688
      5          1           0        0.443048   -1.541236    0.105036
      6          1           0        1.891059    1.246401   -0.084485
      7          1           0        2.653833   -0.393705   -0.043691
      8          1           0       -0.604250    1.410744    0.183755
 ---------------------------------------------------------------------

 SCF Done:  E(RB2PLYPD3) =  -191.612522046     A.U. after   12 cycles
 E2(B2PLYPD3) =    -0.2463201533D+00 E(B2PLYPD3) =    -0.19185884219960D+03

 The electronic state is 1-A.
 Alpha  occ. eigenvalues --  -19.72391 -10.70990 -10.65444 -10.64802  -1.20239
 Alpha  occ. eigenvalues --   -0.92298  -0.74892  -0.67433  -0.56879  -0.56225
 Alpha  occ. eigenvalues --   -0.50779  -0.47431  -0.46746  -0.34442  -0.33329
 Alpha virt. eigenvalues --   -0.01302   0.05836   0.07212   0.07999   0.09610
 Alpha virt. eigenvalues --    0.12587   0.14247   0.15324   0.17630   0.19453
 Alpha virt. eigenvalues --    0.20151   0.21535   0.24956   0.26471   0.28568

 Mulliken charges:
               1
     1  C    0.152440
     2  O   -0.340919
     3  C   -0.060073
     4  C   -0.129111
     5  H    0.114884
     6  H    0.091971
     7  H    0.094313
     8  H    0.076496
 Sum of Mulliken charges =   0.00000

 Dipole moment (field-independent basis, Debye):
    X=              3.3822    Y=              0.7336    Z=              0.1613  Tot=              3.4646
 Quadrupole moment (field-independent basis, Debye-Ang):
   XX=            -27.4883   YY=            -21.5009   ZZ=            -25.2121
   XY=             -0.7306   XZ=             -0.4208   YZ=             -0.1738

 Normal termination of Gaussian 09 at Wed Aug 26 20:59:41 2020.
