 Gaussian 09, Revision D.01,
 Gaussian 09:  ES64L-G09RevD.01 24-Apr-2013

 --------------------
 #p B2PLYPD3/Def2QZVP
 --------------------

 --------
 acrolein
 --------
 Symbolic Z-matrix:
 Charge =  0 Multiplicity = 1

                         Standard orientation:
 ---------------------------------------------------------------------
 Center     Atomic      Atomic             Coordinates (Angstroms)
 Number     Number       Type             X           Y           Z
 ---------------------------------------------------------------------
      1          6           0        0.666392    0.349857    0.008447
      2          8           0        1.791116   -0.113933   -0.021831
      3          6           0       -0.580982   -0.459542    0.010696
      4          6           0       -1.755764    0.143832   -0.004473
      5          1           0       -0.431073   -1.616026    0.050133
      6          1           0       -1.812572    1.275786   -0.112103
      7          1           0       -2.584536   -0.391841   -0.003266
      8          1           0        0.521377    1.438662    0.151861
 ---------------------------------------------------------------------

 SCF Done:  E(RB2PLYPD3) =  -191.602500703     A.U. after   13 cycles
 E2(B2PLYPD3) =    -0.2476810983D+00 E(B2PLYPD3) =    -0.19185018180112D+03

 The electronic state is 1-A.
 Alpha  occ. eigenvalues --  -19.72896 -10.71795 -10.65226 -10.64758  -1.19145
 Alpha  occ. eigenvalues --   -0.93146  -0.75755  -0.65890  -0.57278  -0.55754
 Alpha  occ. eigenvalues --   -0.50802  -0.46515  -0.46044  -0.34944  -0.33800
 Alpha virt. eigenvalues --   -0.01576   0.05776   0.06794   0.07884   0.09692
 Alpha virt. eigenvalues --    0.12553   0.14149   0.15270   0.16856   0.19299
 Alpha virt. eigenvalues --    0.20181   0.22172   0.25082   0.26634   0.28703

 Mulliken charges:
               1
     1  C    0.162436
     2  O   -0.348633
     3  C   -0.046699
     4  C   -0.126523
     5  H    0.096118
     6  H    0.081912
     7  H    0.109682
     8  H    0.071707
 Sum of Mulliken charges =   0.00000

 Dipole moment (field-independent basis, Debye):
    X=             -3.4558    Y=              0.7351    Z=              0.0579  Tot=              3.5336
 Quadrupole moment (field-independent basis, Debye-Ang):
   XX=            -27.7143   YY=            -21.5863   ZZ=            -25.2457
   XY=              0.9082   XZ=              0.2804   YZ=             -0.1453

 Normal termination of Gaussian 09 at Wed Aug 26 10:20:08 2020.
