 Gaussian 09, Revision D.01,
 Gaussian 09:  ES64L-G09RevD.01 24-Apr-2013

 --------------------
 #p B2PLYPD3/Def2QZVP
 --------------------

 --------
 acrolein
 --------
 Symbolic Z-matrix:
 Charge =  0 Multiplicity = 1

                         Standard orientation:
 ---------------------------------------------------------------------
 Center     Atomic      Atomic             Coordinates (Angstroms)
 Number     Number       Type             X           Y           Z
 ---------------------------------------------------------------------
      1          6           0        0.649836    0.326765    0.006368
      2          8           0        1.796098   -0.096431   -0.018141
      3          6           0       -0.560266   -0.455619    0.028263
      4          6           0       -1.748633    0.157458   -0.026854
      5          1           0       -0.447734   -1.572497    0.043538
      6          1           0       -1.882812    1.245652    0.040889
      7          1           0       -2.656935   -0.415534   -0.042580
      8          1           0        0.573065    1.342202    0.056617
 ---------------------------------------------------------------------

 SCF Done:  E(RB2PLYPD3) =  -191.608186433     A.U. after   13 cycles
 E2(B2PLYPD3) =    -0.2473171663D+00 E(B2PLYPD3) =    -0.19185550359928D+03

 The electronic state is 1-A.
 Alpha  occ. eigenvalues --  -19.72177 -10.70233 -10.66001 -10.64996  -1.18502
 Alpha  occ. eigenvalues --   -0.93366  -0.76272  -0.67716  -0.57239  -0.56242
 Alpha  occ. eigenvalues --   -0.50001  -0.46962  -0.46171  -0.34656  -0.33692
 Alpha virt. eigenvalues --   -0.02161   0.05646   0.07013   0.08380   0.09604
 Alpha virt. eigenvalues --    0.12619   0.14281   0.15248   0.17399   0.19676
 Alpha virt. eigenvalues --    0.20042   0.21635   0.25231   0.26523   0.28692

 Mulliken charges:
               1
     1  C    0.153741
     2  O   -0.362907
     3  C   -0.032300
     4  C   -0.126892
     5  H    0.102141
     6  H    0.090134
     7  H    0.100529
     8  H    0.075554
 Sum of Mulliken charges =   0.00000

 Dipole moment (field-independent basis, Debye):
    X=             -3.7268    Y=              0.7514    Z=              0.1074  Tot=              3.8033
 Quadrupole moment (field-independent basis, Debye-Ang):
   XX=            -27.5777   YY=            -21.5592   ZZ=            -25.1635
   XY=              0.7834   XZ=              0.1206   YZ=              0.0481

 Normal termination of Gaussian 09 at Wed Aug 26 09:25:22 2020.
