 Gaussian 09, Revision D.01,
 Gaussian 09:  ES64L-G09RevD.01 24-Apr-2013

 --------------------
 #p B2PLYPD3/Def2QZVP
 --------------------

 --------
 acrolein
 --------
 Symbolic Z-matrix:
 Charge =  0 Multiplicity = 1

                         Standard orientation:
 ---------------------------------------------------------------------
 Center     Atomic      Atomic             Coordinates (Angstroms)
 Number     Number       Type             X           Y           Z
 ---------------------------------------------------------------------
      1          6           0       -0.663928    0.330360   -0.006225
      2          8           0       -1.802298   -0.102369    0.029597
      3          6           0        0.570445   -0.465013   -0.049619
      4          6           0        1.748366    0.133949    0.005775
      5          1           0        0.470729   -1.544051   -0.041327
      6          1           0        1.910040    1.329005    0.019235
      7          1           0        2.608831   -0.407004    0.172644
      8          1           0       -0.500519    1.445223   -0.086914
 ---------------------------------------------------------------------

 SCF Done:  E(RB2PLYPD3) =  -191.603845053     A.U. after   12 cycles
 E2(B2PLYPD3) =    -0.2480897143D+00 E(B2PLYPD3) =    -0.19185193476698D+03

 The electronic state is 1-A.
 Alpha  occ. eigenvalues --  -19.72856 -10.71870 -10.66152 -10.64638  -1.19013
 Alpha  occ. eigenvalues --   -0.93346  -0.75547  -0.66176  -0.57107  -0.55439
 Alpha  occ. eigenvalues --   -0.50607  -0.46673  -0.45965  -0.35026  -0.33688
 Alpha virt. eigenvalues --   -0.01876   0.05472   0.06981   0.08128   0.09524
 Alpha virt. eigenvalues --    0.12274   0.14086   0.15260   0.17402   0.19244
 Alpha virt. eigenvalues --    0.19798   0.21843   0.25115   0.26441   0.28454

 Mulliken charges:
               1
     1  C    0.163009
     2  O   -0.350345
     3  C   -0.044732
     4  C   -0.116350
     5  H    0.104326
     6  H    0.076149
     7  H    0.104394
     8  H    0.063549
 Sum of Mulliken charges =   0.00000

 Dipole moment (field-independent basis, Debye):
    X=              3.6010    Y=              0.6148    Z=              0.0282  Tot=              3.6532
 Quadrupole moment (field-independent basis, Debye-Ang):
   XX=            -27.5948   YY=            -21.7448   ZZ=            -25.2520
   XY=             -0.7535   XZ=              0.5993   YZ=             -0.0678

 Normal termination of Gaussian 09 at Wed Aug 26 08:42:15 2020.
