 Gaussian 09, Revision D.01,
 Gaussian 09:  ES64L-G09RevD.01 24-Apr-2013

 --------------------
 #p B2PLYPD3/Def2QZVP
 --------------------

 --------
 acrolein
 --------
 Symbolic Z-matrix:
 Charge =  0 Multiplicity = 1

                         Standard orientation:
 ---------------------------------------------------------------------
 Center     Atomic      Atomic             Coordinates (Angstroms)
 Number     Number       Type             X           Y           Z
 ---------------------------------------------------------------------
      1          6           0       -0.679954    0.369903    0.022679
      2          8           0       -1.768927   -0.135075   -0.035919
      3          6           0        0.540833   -0.442271    0.020088
      4          6           0        1.766735    0.127714   -0.017019
      5          1           0        0.419365   -1.540838    0.086264
      6          1           0        1.851230    1.211805   -0.121481
      7          1           0        2.686955   -0.399552   -0.004828
      8          1           0       -0.571819    1.477107    0.172905
 ---------------------------------------------------------------------

 SCF Done:  E(RB2PLYPD3) =  -191.614215082     A.U. after   13 cycles
 E2(B2PLYPD3) =    -0.2472407461D+00 E(B2PLYPD3) =    -0.19186145582764D+03

 The electronic state is 1-A.
 Alpha  occ. eigenvalues --  -19.72717 -10.71622 -10.65475 -10.64832  -1.20140
 Alpha  occ. eigenvalues --   -0.92242  -0.75387  -0.66527  -0.56724  -0.56266
 Alpha  occ. eigenvalues --   -0.50755  -0.47090  -0.46322  -0.34220  -0.33867
 Alpha virt. eigenvalues --   -0.01784   0.05811   0.07058   0.08094   0.09716
 Alpha virt. eigenvalues --    0.12426   0.14257   0.15406   0.17322   0.19359
 Alpha virt. eigenvalues --    0.20190   0.21632   0.25168   0.26456   0.29034

 Mulliken charges:
               1
     1  C    0.156098
     2  O   -0.340831
     3  C   -0.051551
     4  C   -0.129569
     5  H    0.107376
     6  H    0.078290
     7  H    0.104086
     8  H    0.076101
 Sum of Mulliken charges =   0.00000

 Dipole moment (field-independent basis, Debye):
    X=              3.3679    Y=              0.8142    Z=              0.1330  Tot=              3.4675
 Quadrupole moment (field-independent basis, Debye-Ang):
   XX=            -27.1708   YY=            -21.7537   ZZ=            -25.2807
   XY=             -1.0570   XZ=             -0.3497   YZ=             -0.1834

 Normal termination of Gaussian 09 at Wed Aug 26 09:01:42 2020.
