 Gaussian 09, Revision D.01,
 Gaussian 09:  ES64L-G09RevD.01 24-Apr-2013

 --------------------
 #p B2PLYPD3/Def2QZVP
 --------------------

 --------
 acrolein
 --------
 Symbolic Z-matrix:
 Charge =  0 Multiplicity = 1

                         Standard orientation:
 ---------------------------------------------------------------------
 Center     Atomic      Atomic             Coordinates (Angstroms)
 Number     Number       Type             X           Y           Z
 ---------------------------------------------------------------------
      1          6           0        0.674276    0.357052   -0.036216
      2          8           0        1.770722   -0.133653    0.033217
      3          6           0       -0.547641   -0.421892   -0.042084
      4          6           0       -1.760461    0.135485    0.029477
      5          1           0       -0.384466   -1.539347   -0.038315
      6          1           0       -1.794860    1.136504   -0.054351
      7          1           0       -2.715998   -0.425884    0.100684
      8          1           0        0.532503    1.474077    0.019184
 ---------------------------------------------------------------------

 SCF Done:  E(RB2PLYPD3) =  -191.608501242     A.U. after   13 cycles
 E2(B2PLYPD3) =    -0.2471190988D+00 E(B2PLYPD3) =    -0.19185562034115D+03

 The electronic state is 1-A.
 Alpha  occ. eigenvalues --  -19.72837 -10.71553 -10.65067 -10.64649  -1.20083
 Alpha  occ. eigenvalues --   -0.93188  -0.75916  -0.66564  -0.57025  -0.56358
 Alpha  occ. eigenvalues --   -0.50706  -0.47243  -0.46395  -0.34577  -0.33908
 Alpha virt. eigenvalues --   -0.01915   0.05818   0.07016   0.08363   0.09891
 Alpha virt. eigenvalues --    0.12500   0.14017   0.15346   0.17085   0.19782
 Alpha virt. eigenvalues --    0.20395   0.21712   0.25219   0.26547   0.28988

 Mulliken charges:
               1
     1  C    0.155031
     2  O   -0.343987
     3  C   -0.028293
     4  C   -0.136842
     5  H    0.098633
     6  H    0.088769
     7  H    0.106438
     8  H    0.060251
 Sum of Mulliken charges =   0.00000

 Dipole moment (field-independent basis, Debye):
    X=             -3.4337    Y=              0.7914    Z=             -0.0977  Tot=              3.5250
 Quadrupole moment (field-independent basis, Debye-Ang):
   XX=            -27.0817   YY=            -21.9732   ZZ=            -25.1763
   XY=              1.0005   XZ=             -0.3090   YZ=             -0.0797

 Normal termination of Gaussian 09 at Wed Aug 26 09:07:44 2020.
