 Gaussian 09, Revision D.01,
 Gaussian 09:  ES64L-G09RevD.01 24-Apr-2013

 --------------------
 #p B2PLYPD3/Def2QZVP
 --------------------

 --------
 acrolein
 --------
 Symbolic Z-matrix:
 Charge =  0 Multiplicity = 1

                         Standard orientation:
 ---------------------------------------------------------------------
 Center     Atomic      Atomic             Coordinates (Angstroms)
 Number     Number       Type             X           Y           Z
 ---------------------------------------------------------------------
      1          6           0       -0.712077    0.395453   -0.026693
      2          8           0       -1.762143   -0.165889   -0.001228
      3          6           0        0.559903   -0.443300    0.038079
      4          6           0        1.765752    0.139244   -0.035913
      5          1           0        0.509038   -1.380030    0.045759
      6          1           0        1.778250    1.206810    0.166730
      7          1           0        2.692455   -0.473372   -0.070594
      8          1           0       -0.564067    1.425324    0.015092
 ---------------------------------------------------------------------

 SCF Done:  E(RB2PLYPD3) =  -191.588921226     A.U. after   13 cycles
 E2(B2PLYPD3) =    -0.2458328695D+00 E(B2PLYPD3) =    -0.19183475409574D+03

 The electronic state is 1-A.
 Alpha  occ. eigenvalues --  -19.73023 -10.71399 -10.64946 -10.62518  -1.20996
 Alpha  occ. eigenvalues --   -0.92315  -0.74514  -0.69580  -0.57591  -0.55886
 Alpha  occ. eigenvalues --   -0.50840  -0.47894  -0.47097  -0.34206  -0.33621
 Alpha virt. eigenvalues --   -0.01073   0.05806   0.07335   0.07907   0.09858
 Alpha virt. eigenvalues --    0.12438   0.13831   0.15463   0.18474   0.19625
 Alpha virt. eigenvalues --    0.19977   0.21288   0.24794   0.26485   0.28310

 Mulliken charges:
               1
     1  C    0.161527
     2  O   -0.332308
     3  C   -0.080816
     4  C   -0.134582
     5  H    0.119216
     6  H    0.076471
     7  H    0.092627
     8  H    0.097865
 Sum of Mulliken charges =   0.00000

 Dipole moment (field-independent basis, Debye):
    X=              2.9952    Y=              0.9581    Z=              0.0926  Tot=              3.1460
 Quadrupole moment (field-independent basis, Debye-Ang):
   XX=            -27.5463   YY=            -21.5696   ZZ=            -25.0625
   XY=             -1.6225   XZ=              0.0912   YZ=              0.2246

 Normal termination of Gaussian 09 at Wed Aug 26 13:36:32 2020.
