 Gaussian 09, Revision D.01,
 Gaussian 09:  ES64L-G09RevD.01 24-Apr-2013

 --------------------
 #p B2PLYPD3/Def2QZVP
 --------------------

 --------
 acrolein
 --------
 Symbolic Z-matrix:
 Charge =  0 Multiplicity = 1

                         Standard orientation:
 ---------------------------------------------------------------------
 Center     Atomic      Atomic             Coordinates (Angstroms)
 Number     Number       Type             X           Y           Z
 ---------------------------------------------------------------------
      1          6           0       -0.642990    0.308524    0.024536
      2          8           0       -1.797624   -0.086911   -0.033730
      3          6           0        0.576453   -0.493603    0.000722
      4          6           0        1.733977    0.166443   -0.045073
      5          1           0        0.511487   -1.523882    0.120983
      6          1           0        1.882521    1.371614   -0.078776
      7          1           0        2.559060   -0.425211    0.115534
      8          1           0       -0.576718    1.384589    0.230986
 ---------------------------------------------------------------------

 SCF Done:  E(RB2PLYPD3) =  -191.595381771     A.U. after   14 cycles
 E2(B2PLYPD3) =    -0.2480240990D+00 E(B2PLYPD3) =    -0.19184340587050D+03

 The electronic state is 1-A.
 Alpha  occ. eigenvalues --  -19.72255 -10.71095 -10.66311 -10.64428  -1.18496
 Alpha  occ. eigenvalues --   -0.93642  -0.75407  -0.67004  -0.57020  -0.55740
 Alpha  occ. eigenvalues --   -0.50104  -0.47153  -0.45872  -0.34844  -0.33322
 Alpha virt. eigenvalues --   -0.01869   0.05472   0.06760   0.08031   0.09532
 Alpha virt. eigenvalues --    0.12312   0.14147   0.15177   0.17708   0.18438
 Alpha virt. eigenvalues --    0.20200   0.21984   0.24599   0.26758   0.28687

 Mulliken charges:
               1
     1  C    0.149234
     2  O   -0.354872
     3  C   -0.049832
     4  C   -0.116035
     5  H    0.110118
     6  H    0.091932
     7  H    0.097892
     8  H    0.071563
 Sum of Mulliken charges =   0.00000

 Dipole moment (field-independent basis, Debye):
    X=              3.6641    Y=              0.6002    Z=              0.3359  Tot=              3.7280
 Quadrupole moment (field-independent basis, Debye-Ang):
   XX=            -28.0146   YY=            -21.3728   ZZ=            -25.1984
   XY=             -0.7528   XZ=              0.0233   YZ=             -0.2760

 Normal termination of Gaussian 09 at Wed Aug 26 13:07:06 2020.
