 Gaussian 09, Revision D.01,
 Gaussian 09:  ES64L-G09RevD.01 24-Apr-2013

 --------------------
 #p B2PLYPD3/Def2QZVP
 --------------------

 --------
 acrolein
 --------
 Symbolic Z-matrix:
 Charge =  0 Multiplicity = 1

                         Standard orientation:
 ---------------------------------------------------------------------
 Center     Atomic      Atomic             Coordinates (Angstroms)
 Number     Number       Type             X           Y           Z
 ---------------------------------------------------------------------
      1          6           0        0.629366    0.328654    0.066047
      2          8           0        1.793113   -0.119498   -0.038031
      3          6           0       -0.556072   -0.413387    0.032284
      4          6           0       -1.744016    0.149215   -0.040173
      5          1           0       -0.424228   -1.511323    0.005505
      6          1           0       -1.791537    1.099178    0.020210
      7          1           0       -2.672969   -0.439925   -0.019140
      8          1           0        0.568163    1.421161   -0.051275
 ---------------------------------------------------------------------

 SCF Done:  E(RB2PLYPD3) =  -191.592178920     A.U. after   13 cycles
 E2(B2PLYPD3) =    -0.2486033208D+00 E(B2PLYPD3) =    -0.19184078224120D+03

 The electronic state is 1-A.
 Alpha  occ. eigenvalues --  -19.72453 -10.71173 -10.64702 -10.64294  -1.17012
 Alpha  occ. eigenvalues --   -0.95096  -0.77580  -0.67570  -0.58190  -0.56595
 Alpha  occ. eigenvalues --   -0.49576  -0.47260  -0.46008  -0.34986  -0.33721
 Alpha virt. eigenvalues --   -0.02921   0.05706   0.06962   0.08334   0.09905
 Alpha virt. eigenvalues --    0.12657   0.14109   0.15118   0.17211   0.19652
 Alpha virt. eigenvalues --    0.20857   0.21761   0.25130   0.26640   0.29217

 Mulliken charges:
               1
     1  C    0.143966
     2  O   -0.373454
     3  C   -0.007734
     4  C   -0.129309
     5  H    0.100661
     6  H    0.097057
     7  H    0.104388
     8  H    0.064425
 Sum of Mulliken charges =   0.00000

 Dipole moment (field-independent basis, Debye):
    X=             -3.8803    Y=              0.7511    Z=              0.1438  Tot=              3.9549
 Quadrupole moment (field-independent basis, Debye-Ang):
   XX=            -27.4231   YY=            -21.8682   ZZ=            -24.9812
   XY=              1.0375   XZ=              0.1479   YZ=              0.0009

 Normal termination of Gaussian 09 at Wed Aug 26 10:36:41 2020.
