 Gaussian 09, Revision D.01,
 Gaussian 09:  ES64L-G09RevD.01 24-Apr-2013

 --------------------
 #p B2PLYPD3/Def2QZVP
 --------------------

 --------
 acrolein
 --------
 Symbolic Z-matrix:
 Charge =  0 Multiplicity = 1

                         Standard orientation:
 ---------------------------------------------------------------------
 Center     Atomic      Atomic             Coordinates (Angstroms)
 Number     Number       Type             X           Y           Z
 ---------------------------------------------------------------------
      1          6           0        0.661578    0.336547    0.010304
      2          8           0        1.797520   -0.109348   -0.011814
      3          6           0       -0.566481   -0.456687   -0.004439
      4          6           0       -1.755351    0.153793   -0.002364
      5          1           0       -0.453841   -1.535290    0.048598
      6          1           0       -1.831180    1.206190   -0.050764
      7          1           0       -2.650969   -0.409577    0.006644
      8          1           0        0.517355    1.411545    0.069031
 ---------------------------------------------------------------------

 SCF Done:  E(RB2PLYPD3) =  -191.615721383     A.U. after   12 cycles
 E2(B2PLYPD3) =    -0.2472404557D+00 E(B2PLYPD3) =    -0.19186296183900D+03

 The electronic state is 1-A.
 Alpha  occ. eigenvalues --  -19.72651 -10.71314 -10.65177 -10.64560  -1.18788
 Alpha  occ. eigenvalues --   -0.93337  -0.76029  -0.67357  -0.56913  -0.56549
 Alpha  occ. eigenvalues --   -0.50370  -0.47550  -0.46362  -0.34688  -0.33799
 Alpha virt. eigenvalues --   -0.01992   0.05805   0.07175   0.08161   0.09728
 Alpha virt. eigenvalues --    0.12746   0.14078   0.15267   0.17435   0.19815
 Alpha virt. eigenvalues --    0.20157   0.21751   0.25239   0.26567   0.28762

 Mulliken charges:
               1
     1  C    0.151545
     2  O   -0.356173
     3  C   -0.032690
     4  C   -0.132018
     5  H    0.104416
     6  H    0.089712
     7  H    0.103022
     8  H    0.072185
 Sum of Mulliken charges =   0.00000

 Dipole moment (field-independent basis, Debye):
    X=             -3.6198    Y=              0.7370    Z=              0.0690  Tot=              3.6947
 Quadrupole moment (field-independent basis, Debye-Ang):
   XX=            -27.5477   YY=            -21.6773   ZZ=            -25.1553
   XY=              0.8438   XZ=              0.1001   YZ=             -0.1151

 Normal termination of Gaussian 09 at Wed Aug 26 19:20:45 2020.
