 Gaussian 09, Revision D.01,
 Gaussian 09:  ES64L-G09RevD.01 24-Apr-2013

 --------------------
 #p B2PLYPD3/Def2QZVP
 --------------------

 --------
 acrolein
 --------
 Symbolic Z-matrix:
 Charge =  0 Multiplicity = 1

                         Standard orientation:
 ---------------------------------------------------------------------
 Center     Atomic      Atomic             Coordinates (Angstroms)
 Number     Number       Type             X           Y           Z
 ---------------------------------------------------------------------
      1          6           0        0.652139    0.322006    0.063236
      2          8           0        1.836387   -0.100697   -0.052518
      3          6           0       -0.590950   -0.472785   -0.006871
      4          6           0       -1.739371    0.146329   -0.063015
      5          1           0       -0.535451   -1.458227    0.236516
      6          1           0       -1.897959    1.284067   -0.027212
      7          1           0       -2.565974   -0.457522    0.060309
      8          1           0        0.377380    1.463961    0.190429
 ---------------------------------------------------------------------

 SCF Done:  E(RB2PLYPD3) =  -191.590857194     A.U. after   13 cycles
 E2(B2PLYPD3) =    -0.2504232047D+00 E(B2PLYPD3) =    -0.19184128039916D+03

 The electronic state is 1-A.
 Alpha  occ. eigenvalues --  -19.73458 -10.73207 -10.65469 -10.63939  -1.16658
 Alpha  occ. eigenvalues --   -0.94513  -0.75889  -0.66907  -0.57064  -0.54988
 Alpha  occ. eigenvalues --   -0.50406  -0.47447  -0.44960  -0.35360  -0.33862
 Alpha virt. eigenvalues --   -0.02419   0.05513   0.06580   0.07649   0.09585
 Alpha virt. eigenvalues --    0.12676   0.13465   0.14791   0.17899   0.18970
 Alpha virt. eigenvalues --    0.20038   0.21882   0.24414   0.26923   0.28276

 Mulliken charges:
               1
     1  C    0.157801
     2  O   -0.363497
     3  C   -0.025109
     4  C   -0.109320
     5  H    0.101528
     6  H    0.085620
     7  H    0.094252
     8  H    0.058725
 Sum of Mulliken charges =   0.00000

 Dipole moment (field-independent basis, Debye):
    X=             -3.8285    Y=              0.6117    Z=              0.5024  Tot=              3.9095
 Quadrupole moment (field-independent basis, Debye-Ang):
   XX=            -28.1016   YY=            -21.8164   ZZ=            -25.1611
   XY=              0.5687   XZ=             -0.0552   YZ=             -0.3334

 Normal termination of Gaussian 09 at Wed Aug 26 14:36:22 2020.
