 Gaussian 09, Revision D.01,
 Gaussian 09:  ES64L-G09RevD.01 24-Apr-2013

 --------------------
 #p B2PLYPD3/Def2QZVP
 --------------------

 --------
 acrolein
 --------
 Symbolic Z-matrix:
 Charge =  0 Multiplicity = 1

                         Standard orientation:
 ---------------------------------------------------------------------
 Center     Atomic      Atomic             Coordinates (Angstroms)
 Number     Number       Type             X           Y           Z
 ---------------------------------------------------------------------
      1          6           0        0.661793    0.349426    0.040903
      2          8           0        1.805962   -0.110667   -0.060133
      3          6           0       -0.568464   -0.447424    0.014443
      4          6           0       -1.752082    0.136644   -0.036133
      5          1           0       -0.521761   -1.550530    0.188880
      6          1           0       -1.888275    1.362474   -0.160225
      7          1           0       -2.598142   -0.467292    0.000377
      8          1           0        0.513005    1.308809    0.336753
 ---------------------------------------------------------------------

 SCF Done:  E(RB2PLYPD3) =  -191.590717013     A.U. after   13 cycles
 E2(B2PLYPD3) =    -0.2487005713D+00 E(B2PLYPD3) =    -0.19183941758440D+03

 The electronic state is 1-A.
 Alpha  occ. eigenvalues --  -19.72835 -10.71074 -10.66284 -10.64643  -1.17919
 Alpha  occ. eigenvalues --   -0.93377  -0.76380  -0.66860  -0.56579  -0.55868
 Alpha  occ. eigenvalues --   -0.50678  -0.46099  -0.44869  -0.34975  -0.34047
 Alpha virt. eigenvalues --   -0.02012   0.05382   0.06520   0.07664   0.09449
 Alpha virt. eigenvalues --    0.12323   0.14154   0.15018   0.17585   0.18186
 Alpha virt. eigenvalues --    0.20115   0.21917   0.24539   0.27668   0.28545

 Mulliken charges:
               1
     1  C    0.163699
     2  O   -0.360298
     3  C   -0.051908
     4  C   -0.126777
     5  H    0.099208
     6  H    0.075686
     7  H    0.107187
     8  H    0.093202
 Sum of Mulliken charges =   0.00000

 Dipole moment (field-independent basis, Debye):
    X=             -3.5921    Y=              0.7634    Z=              0.3726  Tot=              3.6912
 Quadrupole moment (field-independent basis, Debye-Ang):
   XX=            -28.0499   YY=            -21.5124   ZZ=            -25.2077
   XY=              1.0732   XZ=              0.4552   YZ=             -0.3309

 Normal termination of Gaussian 09 at Wed Aug 26 15:01:27 2020.
