 Gaussian 09, Revision D.01,
 Gaussian 09:  ES64L-G09RevD.01 24-Apr-2013

 --------------------
 #p B2PLYPD3/Def2QZVP
 --------------------

 --------
 acrolein
 --------
 Symbolic Z-matrix:
 Charge =  0 Multiplicity = 1

                         Standard orientation:
 ---------------------------------------------------------------------
 Center     Atomic      Atomic             Coordinates (Angstroms)
 Number     Number       Type             X           Y           Z
 ---------------------------------------------------------------------
      1          6           0       -0.671820    0.355105   -0.015896
      2          8           0       -1.786943   -0.134649    0.020372
      3          6           0        0.560766   -0.436473   -0.035437
      4          6           0        1.754692    0.137508    0.006265
      5          1           0        0.465180   -1.471480    0.018163
      6          1           0        1.788453    1.191549    0.037034
      7          1           0        2.707550   -0.426884    0.072115
      8          1           0       -0.527473    1.447169   -0.019886
 ---------------------------------------------------------------------

 SCF Done:  E(RB2PLYPD3) =  -191.614150407     A.U. after   12 cycles
 E2(B2PLYPD3) =    -0.2471114349D+00 E(B2PLYPD3) =    -0.19186126184164D+03

 The electronic state is 1-A.
 Alpha  occ. eigenvalues --  -19.72854 -10.71672 -10.65311 -10.63757  -1.19104
 Alpha  occ. eigenvalues --   -0.93433  -0.75473  -0.67728  -0.56851  -0.56326
 Alpha  occ. eigenvalues --   -0.50564  -0.47141  -0.46589  -0.34775  -0.33979
 Alpha virt. eigenvalues --   -0.01814   0.05736   0.07282   0.08169   0.09794
 Alpha virt. eigenvalues --    0.12538   0.13902   0.15360   0.17777   0.19830
 Alpha virt. eigenvalues --    0.19994   0.21405   0.25505   0.26357   0.29061

 Mulliken charges:
               1
     1  C    0.149624
     2  O   -0.352654
     3  C   -0.033818
     4  C   -0.129996
     5  H    0.108305
     6  H    0.082205
     7  H    0.101740
     8  H    0.074595
 Sum of Mulliken charges =   0.00000

 Dipole moment (field-independent basis, Debye):
    X=              3.5028    Y=              0.8051    Z=              0.0429  Tot=              3.5943
 Quadrupole moment (field-independent basis, Debye-Ang):
   XX=            -27.3994   YY=            -21.8146   ZZ=            -25.1363
   XY=             -1.1491   XZ=              0.3569   YZ=             -0.0474

 Normal termination of Gaussian 09 at Wed Aug 26 16:02:26 2020.
