 Gaussian 09, Revision D.01,
 Gaussian 09:  ES64L-G09RevD.01 24-Apr-2013

 --------------------
 #p B2PLYPD3/Def2QZVP
 --------------------

 --------
 acrolein
 --------
 Symbolic Z-matrix:
 Charge =  0 Multiplicity = 1

                         Standard orientation:
 ---------------------------------------------------------------------
 Center     Atomic      Atomic             Coordinates (Angstroms)
 Number     Number       Type             X           Y           Z
 ---------------------------------------------------------------------
      1          6           0       -0.672017    0.349154    0.014647
      2          8           0       -1.785751   -0.113376   -0.018941
      3          6           0        0.559847   -0.458479    0.031897
      4          6           0        1.755584    0.141918   -0.021874
      5          1           0        0.419624   -1.564484   -0.007502
      6          1           0        1.863685    1.233435   -0.014226
      7          1           0        2.635778   -0.413630   -0.014747
      8          1           0       -0.493565    1.456121    0.039982
 ---------------------------------------------------------------------

 SCF Done:  E(RB2PLYPD3) =  -191.614680871     A.U. after   12 cycles
 E2(B2PLYPD3) =    -0.2472570346D+00 E(B2PLYPD3) =    -0.19186193790545D+03

 The electronic state is 1-A.
 Alpha  occ. eigenvalues --  -19.72842 -10.71649 -10.65296 -10.64834  -1.19773
 Alpha  occ. eigenvalues --   -0.92786  -0.75602  -0.66395  -0.56749  -0.56141
 Alpha  occ. eigenvalues --   -0.50674  -0.46909  -0.46831  -0.34622  -0.33761
 Alpha virt. eigenvalues --   -0.01724   0.05791   0.07066   0.08162   0.09735
 Alpha virt. eigenvalues --    0.12605   0.13985   0.15353   0.17231   0.19725
 Alpha virt. eigenvalues --    0.19985   0.21876   0.25351   0.26475   0.28543

 Mulliken charges:
               1
     1  C    0.160157
     2  O   -0.345461
     3  C   -0.041617
     4  C   -0.129744
     5  H    0.102618
     6  H    0.084636
     7  H    0.104199
     8  H    0.065212
 Sum of Mulliken charges =   0.00000

 Dipole moment (field-independent basis, Debye):
    X=              3.4728    Y=              0.7208    Z=              0.0373  Tot=              3.5470
 Quadrupole moment (field-independent basis, Debye-Ang):
   XX=            -27.4192   YY=            -21.7095   ZZ=            -25.2581
   XY=             -0.7517   XZ=             -0.1617   YZ=              0.0376

 Normal termination of Gaussian 09 at Wed Aug 26 18:58:05 2020.
