 Gaussian 09, Revision D.01,
 Gaussian 09:  ES64L-G09RevD.01 24-Apr-2013

 --------------------
 #p B2PLYPD3/Def2QZVP
 --------------------

 --------
 acrolein
 --------
 Symbolic Z-matrix:
 Charge =  0 Multiplicity = 1

                         Standard orientation:
 ---------------------------------------------------------------------
 Center     Atomic      Atomic             Coordinates (Angstroms)
 Number     Number       Type             X           Y           Z
 ---------------------------------------------------------------------
      1          6           0       -0.671816    0.338643    0.016923
      2          8           0       -1.790457   -0.112002   -0.017296
      3          6           0        0.566692   -0.463340    0.034776
      4          6           0        1.762552    0.148894   -0.026488
      5          1           0        0.508031   -1.517703   -0.012803
      6          1           0        1.826628    1.232854    0.038478
      7          1           0        2.595410   -0.365084   -0.032635
      8          1           0       -0.550981    1.400768   -0.005940
 ---------------------------------------------------------------------

 SCF Done:  E(RB2PLYPD3) =  -191.607805518     A.U. after   13 cycles
 E2(B2PLYPD3) =    -0.2462633085D+00 E(B2PLYPD3) =    -0.19185406882633D+03

 The electronic state is 1-A.
 Alpha  occ. eigenvalues --  -19.72574 -10.71100 -10.64509 -10.64306  -1.19634
 Alpha  occ. eigenvalues --   -0.93084  -0.76294  -0.67780  -0.57581  -0.56702
 Alpha  occ. eigenvalues --   -0.50774  -0.47768  -0.46731  -0.34503  -0.33786
 Alpha virt. eigenvalues --   -0.01761   0.05921   0.07419   0.08124   0.09708
 Alpha virt. eigenvalues --    0.12784   0.14386   0.15362   0.17625   0.19868
 Alpha virt. eigenvalues --    0.20036   0.22001   0.25075   0.26447   0.28826

 Mulliken charges:
               1
     1  C    0.150347
     2  O   -0.346338
     3  C   -0.042412
     4  C   -0.129721
     5  H    0.104039
     6  H    0.081931
     7  H    0.104349
     8  H    0.077805
 Sum of Mulliken charges =   0.00000

 Dipole moment (field-independent basis, Debye):
    X=              3.5047    Y=              0.7424    Z=              0.0438  Tot=              3.5828
 Quadrupole moment (field-independent basis, Debye-Ang):
   XX=            -27.4228   YY=            -21.6271   ZZ=            -25.0774
   XY=             -1.0141   XZ=             -0.1225   YZ=              0.1028

 Normal termination of Gaussian 09 at Wed Aug 26 08:38:23 2020.
