 Gaussian 09, Revision D.01,
 Gaussian 09:  ES64L-G09RevD.01 24-Apr-2013

 --------------------
 #p B2PLYPD3/Def2QZVP
 --------------------

 --------
 acrolein
 --------
 Symbolic Z-matrix:
 Charge =  0 Multiplicity = 1

                         Standard orientation:
 ---------------------------------------------------------------------
 Center     Atomic      Atomic             Coordinates (Angstroms)
 Number     Number       Type             X           Y           Z
 ---------------------------------------------------------------------
      1          6           0        0.661226    0.334034    0.032928
      2          8           0        1.802720   -0.106712   -0.032711
      3          6           0       -0.597634   -0.470682    0.050839
      4          6           0       -1.744290    0.165728   -0.041577
      5          1           0       -0.444764   -1.585749   -0.020700
      6          1           0       -1.794463    1.203012   -0.017492
      7          1           0       -2.634802   -0.360809   -0.007132
      8          1           0        0.536458    1.422759    0.053869
 ---------------------------------------------------------------------

 SCF Done:  E(RB2PLYPD3) =  -191.609939084     A.U. after   13 cycles
 E2(B2PLYPD3) =    -0.2473548735D+00 E(B2PLYPD3) =    -0.19185729395781D+03

 The electronic state is 1-A.
 Alpha  occ. eigenvalues --  -19.72802 -10.71725 -10.65028 -10.64306  -1.18542
 Alpha  occ. eigenvalues --   -0.93601  -0.75643  -0.66947  -0.57004  -0.56606
 Alpha  occ. eigenvalues --   -0.50453  -0.47170  -0.46127  -0.35147  -0.33650
 Alpha virt. eigenvalues --   -0.01602   0.05904   0.07046   0.07843   0.09753
 Alpha virt. eigenvalues --    0.12795   0.13964   0.15293   0.17076   0.19837
 Alpha virt. eigenvalues --    0.20184   0.21998   0.25104   0.26499   0.28701

 Mulliken charges:
               1
     1  C    0.153728
     2  O   -0.355376
     3  C   -0.037165
     4  C   -0.121880
     5  H    0.102505
     6  H    0.086717
     7  H    0.100877
     8  H    0.070594
 Sum of Mulliken charges =   0.00000

 Dipole moment (field-independent basis, Debye):
    X=             -3.5611    Y=              0.7405    Z=              0.0886  Tot=              3.6383
 Quadrupole moment (field-independent basis, Debye-Ang):
   XX=            -27.6954   YY=            -21.6223   ZZ=            -25.1503
   XY=              0.7733   XZ=              0.2182   YZ=              0.0635

 Normal termination of Gaussian 09 at Wed Aug 26 09:59:54 2020.
