 Gaussian 09, Revision D.01,
 Gaussian 09:  ES64L-G09RevD.01 24-Apr-2013

 --------------------
 #p B2PLYPD3/Def2QZVP
 --------------------

 --------
 acrolein
 --------
 Symbolic Z-matrix:
 Charge =  0 Multiplicity = 1

                         Standard orientation:
 ---------------------------------------------------------------------
 Center     Atomic      Atomic             Coordinates (Angstroms)
 Number     Number       Type             X           Y           Z
 ---------------------------------------------------------------------
      1          6           0       -0.641579   -0.331653    0.103341
      2          8           0       -1.826689    0.095405   -0.081034
      3          6           0        0.607413    0.460943    0.017069
      4          6           0        1.765752   -0.150611   -0.028536
      5          1           0        0.372044    1.645247    0.122132
      6          1           0        1.817775   -1.279817   -0.246535
      7          1           0        2.571002    0.389455   -0.007944
      8          1           0       -0.536823   -1.390201    0.229370
 ---------------------------------------------------------------------

 SCF Done:  E(RB2PLYPD3) =  -191.580627108     A.U. after   14 cycles
 E2(B2PLYPD3) =    -0.2507158556D+00 E(B2PLYPD3) =    -0.19183134296346D+03

 The electronic state is 1-A.
 Alpha  occ. eigenvalues --  -19.72950 -10.72062 -10.66054 -10.65076  -1.15897
 Alpha  occ. eigenvalues --   -0.93913  -0.76767  -0.65994  -0.57571  -0.55588
 Alpha  occ. eigenvalues --   -0.49967  -0.45717  -0.44698  -0.35090  -0.33916
 Alpha virt. eigenvalues --   -0.02590   0.05533   0.06532   0.07364   0.09531
 Alpha virt. eigenvalues --    0.12615   0.13859   0.14898   0.16626   0.19008
 Alpha virt. eigenvalues --    0.20336   0.22137   0.24443   0.26749   0.28624

 Mulliken charges:
               1
     1  C    0.159886
     2  O   -0.377679
     3  C   -0.036601
     4  C   -0.122670
     5  H    0.093722
     6  H    0.089299
     7  H    0.111574
     8  H    0.082468
 Sum of Mulliken charges =   0.00000

 Dipole moment (field-independent basis, Debye):
    X=              3.7687    Y=             -0.7570    Z=              0.2836  Tot=              3.8544
 Quadrupole moment (field-independent basis, Debye-Ang):
   XX=            -28.2293   YY=            -21.5060   ZZ=            -25.2775
   XY=              0.6940   XZ=             -0.7505   YZ=              0.3839

 Normal termination of Gaussian 09 at Wed Aug 26 10:42:49 2020.
