 Gaussian 09, Revision D.01,
 Gaussian 09:  ES64L-G09RevD.01 24-Apr-2013

 --------------------
 #p B2PLYPD3/Def2QZVP
 --------------------

 --------
 acrolein
 --------
 Symbolic Z-matrix:
 Charge =  0 Multiplicity = 1

                         Standard orientation:
 ---------------------------------------------------------------------
 Center     Atomic      Atomic             Coordinates (Angstroms)
 Number     Number       Type             X           Y           Z
 ---------------------------------------------------------------------
      1          6           0       -0.658508    0.336673   -0.019115
      2          8           0       -1.799423   -0.107633    0.017137
      3          6           0        0.571841   -0.451618   -0.018445
      4          6           0        1.755549    0.143129    0.001489
      5          1           0        0.417897   -1.538860    0.008124
      6          1           0        1.853090    1.237909    0.049093
      7          1           0        2.650492   -0.405223    0.042741
      8          1           0       -0.539383    1.398136   -0.020628
 ---------------------------------------------------------------------

 SCF Done:  E(RB2PLYPD3) =  -191.614202585     A.U. after   12 cycles
 E2(B2PLYPD3) =    -0.2473260091D+00 E(B2PLYPD3) =    -0.19186152859455D+03

 The electronic state is 1-A.
 Alpha  occ. eigenvalues --  -19.72613 -10.71123 -10.65459 -10.64629  -1.18524
 Alpha  occ. eigenvalues --   -0.93447  -0.76088  -0.67241  -0.56888  -0.56525
 Alpha  occ. eigenvalues --   -0.50484  -0.46827  -0.46266  -0.34896  -0.33806
 Alpha virt. eigenvalues --   -0.01975   0.05714   0.07193   0.08239   0.09697
 Alpha virt. eigenvalues --    0.12615   0.14094   0.15297   0.17388   0.19662
 Alpha virt. eigenvalues --    0.20004   0.21800   0.25411   0.26576   0.28779

 Mulliken charges:
               1
     1  C    0.157576
     2  O   -0.360662
     3  C   -0.036152
     4  C   -0.126529
     5  H    0.103418
     6  H    0.085232
     7  H    0.104322
     8  H    0.072796
 Sum of Mulliken charges =   0.00000

 Dipole moment (field-independent basis, Debye):
    X=              3.6384    Y=              0.7493    Z=              0.0184  Tot=              3.7148
 Quadrupole moment (field-independent basis, Debye-Ang):
   XX=            -27.5446   YY=            -21.6960   ZZ=            -25.1570
   XY=             -0.8080   XZ=              0.2762   YZ=              0.0120

 Normal termination of Gaussian 09 at Wed Aug 26 19:05:41 2020.
