 Gaussian 09, Revision D.01,
 Gaussian 09:  ES64L-G09RevD.01 24-Apr-2013

 --------------------
 #p B2PLYPD3/Def2QZVP
 --------------------

 --------
 acrolein
 --------
 Symbolic Z-matrix:
 Charge =  0 Multiplicity = 1

                         Standard orientation:
 ---------------------------------------------------------------------
 Center     Atomic      Atomic             Coordinates (Angstroms)
 Number     Number       Type             X           Y           Z
 ---------------------------------------------------------------------
      1          6           0        0.672260    0.373343    0.025010
      2          8           0        1.781420   -0.137881   -0.041550
      3          6           0       -0.554803   -0.445825    0.037309
      4          6           0       -1.748062    0.136854   -0.046254
      5          1           0       -0.438422   -1.508135    0.117255
      6          1           0       -1.828395    1.221832   -0.028846
      7          1           0       -2.708407   -0.458383   -0.016817
      8          1           0        0.507490    1.461507    0.164417
 ---------------------------------------------------------------------

 SCF Done:  E(RB2PLYPD3) =  -191.612971379     A.U. after   12 cycles
 E2(B2PLYPD3) =    -0.2480483828D+00 E(B2PLYPD3) =    -0.19186101976144D+03

 The electronic state is 1-A.
 Alpha  occ. eigenvalues --  -19.72944 -10.71953 -10.65804 -10.64242  -1.18896
 Alpha  occ. eigenvalues --   -0.92873  -0.74932  -0.67143  -0.56328  -0.55891
 Alpha  occ. eigenvalues --   -0.50481  -0.46852  -0.46071  -0.34608  -0.33969
 Alpha virt. eigenvalues --   -0.01743   0.05637   0.06905   0.07957   0.09745
 Alpha virt. eigenvalues --    0.12386   0.13842   0.15329   0.17632   0.19394
 Alpha virt. eigenvalues --    0.20086   0.21341   0.25346   0.26535   0.28801

 Mulliken charges:
               1
     1  C    0.155953
     2  O   -0.352965
     3  C   -0.044149
     4  C   -0.128957
     5  H    0.110809
     6  H    0.081532
     7  H    0.097121
     8  H    0.080655
 Sum of Mulliken charges =   0.00000

 Dipole moment (field-independent basis, Debye):
    X=             -3.4320    Y=              0.8447    Z=              0.2489  Tot=              3.5431
 Quadrupole moment (field-independent basis, Debye-Ang):
   XX=            -27.6416   YY=            -21.6371   ZZ=            -25.2846
   XY=              1.0548   XZ=              0.2272   YZ=             -0.0901

 Normal termination of Gaussian 09 at Wed Aug 26 08:59:54 2020.
