 Gaussian 09, Revision D.01,
 Gaussian 09:  ES64L-G09RevD.01 24-Apr-2013

 --------------------
 #p B2PLYPD3/Def2QZVP
 --------------------

 --------
 acrolein
 --------
 Symbolic Z-matrix:
 Charge =  0 Multiplicity = 1

                         Standard orientation:
 ---------------------------------------------------------------------
 Center     Atomic      Atomic             Coordinates (Angstroms)
 Number     Number       Type             X           Y           Z
 ---------------------------------------------------------------------
      1          6           0        0.684600    0.356834   -0.022186
      2          8           0        1.780839   -0.134671    0.015129
      3          6           0       -0.557567   -0.446310   -0.002327
      4          6           0       -1.754336    0.143117    0.002531
      5          1           0       -0.471437   -1.514116   -0.017325
      6          1           0       -1.826387    1.185784    0.058754
      7          1           0       -2.698484   -0.423948   -0.002891
      8          1           0        0.513409    1.507799   -0.027677
 ---------------------------------------------------------------------

 SCF Done:  E(RB2PLYPD3) =  -191.613958849     A.U. after   12 cycles
 E2(B2PLYPD3) =    -0.2470912502D+00 E(B2PLYPD3) =    -0.19186105009961D+03

 The electronic state is 1-A.
 Alpha  occ. eigenvalues --  -19.73072 -10.72237 -10.65110 -10.64271  -1.20248
 Alpha  occ. eigenvalues --   -0.92822  -0.74995  -0.66676  -0.56505  -0.56335
 Alpha  occ. eigenvalues --   -0.50567  -0.47179  -0.47102  -0.34635  -0.33807
 Alpha virt. eigenvalues --   -0.01562   0.05801   0.07082   0.08146   0.09786
 Alpha virt. eigenvalues --    0.12518   0.13904   0.15394   0.17439   0.19870
 Alpha virt. eigenvalues --    0.20089   0.21489   0.25501   0.26230   0.28707

 Mulliken charges:
               1
     1  C    0.156194
     2  O   -0.337281
     3  C   -0.039372
     4  C   -0.131821
     5  H    0.106051
     6  H    0.085359
     7  H    0.099457
     8  H    0.061413
 Sum of Mulliken charges =   0.00000

 Dipole moment (field-independent basis, Debye):
    X=             -3.3707    Y=              0.7424    Z=             -0.0343  Tot=              3.4516
 Quadrupole moment (field-independent basis, Debye-Ang):
   XX=            -27.2647   YY=            -21.8499   ZZ=            -25.2435
   XY=              0.9995   XZ=             -0.1439   YZ=              0.0902

 Normal termination of Gaussian 09 at Wed Aug 26 19:50:52 2020.
