 Gaussian 09, Revision D.01,
 Gaussian 09:  ES64L-G09RevD.01 24-Apr-2013

 --------------------
 #p B2PLYPD3/Def2QZVP
 --------------------

 --------
 acrolein
 --------
 Symbolic Z-matrix:
 Charge =  0 Multiplicity = 1

                         Standard orientation:
 ---------------------------------------------------------------------
 Center     Atomic      Atomic             Coordinates (Angstroms)
 Number     Number       Type             X           Y           Z
 ---------------------------------------------------------------------
      1          6           0       -0.689596    0.378047    0.027890
      2          8           0       -1.777811   -0.140046   -0.034214
      3          6           0        0.522988   -0.426391    0.017466
      4          6           0        1.764367    0.137500   -0.041197
      5          1           0        0.331458   -1.531775    0.158338
      6          1           0        1.844992    1.113589    0.088058
      7          1           0        2.923994   -0.479820   -0.060129
      8          1           0       -0.464512    1.483436    0.062491
 ---------------------------------------------------------------------

 SCF Done:  E(RB2PLYPD3) =  -191.575621441     A.U. after   13 cycles
 E2(B2PLYPD3) =    -0.2496412643D+00 E(B2PLYPD3) =    -0.19182526270554D+03

 The electronic state is 1-A.
 Alpha  occ. eigenvalues --  -19.73185 -10.71993 -10.67156 -10.65247  -1.20137
 Alpha  occ. eigenvalues --   -0.92346  -0.75324  -0.66816  -0.57113  -0.54667
 Alpha  occ. eigenvalues --   -0.49637  -0.47285  -0.45249  -0.34262  -0.33899
 Alpha virt. eigenvalues --   -0.02343   0.04771   0.06679   0.08006   0.09618
 Alpha virt. eigenvalues --    0.11786   0.13750   0.15193   0.17289   0.19782
 Alpha virt. eigenvalues --    0.19839   0.21235   0.25169   0.25851   0.28494

 Mulliken charges:
               1
     1  C    0.159247
     2  O   -0.343397
     3  C   -0.032993
     4  C   -0.142086
     5  H    0.106149
     6  H    0.095412
     7  H    0.089360
     8  H    0.068309
 Sum of Mulliken charges =   0.00000

 Dipole moment (field-independent basis, Debye):
    X=              3.3316    Y=              0.8996    Z=              0.2939  Tot=              3.4634
 Quadrupole moment (field-independent basis, Debye-Ang):
   XX=            -27.2062   YY=            -22.0740   ZZ=            -25.4681
   XY=             -0.7587   XZ=             -0.0878   YZ=             -0.0489

 Normal termination of Gaussian 09 at Wed Aug 26 10:48:08 2020.
