 Gaussian 09, Revision D.01,
 Gaussian 09:  ES64L-G09RevD.01 24-Apr-2013

 --------------------
 #p B2PLYPD3/Def2QZVP
 --------------------

 --------
 acrolein
 --------
 Symbolic Z-matrix:
 Charge =  0 Multiplicity = 1

                         Standard orientation:
 ---------------------------------------------------------------------
 Center     Atomic      Atomic             Coordinates (Angstroms)
 Number     Number       Type             X           Y           Z
 ---------------------------------------------------------------------
      1          6           0       -0.678606    0.347479    0.018541
      2          8           0       -1.782256   -0.131566   -0.032343
      3          6           0        0.545855   -0.423376    0.018066
      4          6           0        1.763483    0.135939   -0.012224
      5          1           0        0.425464   -1.508090    0.091801
      6          1           0        1.848663    1.197663   -0.097200
      7          1           0        2.746635   -0.466538   -0.033513
      8          1           0       -0.547107    1.469238    0.151362
 ---------------------------------------------------------------------

 SCF Done:  E(RB2PLYPD3) =  -191.611580200     A.U. after   13 cycles
 E2(B2PLYPD3) =    -0.2475717263D+00 E(B2PLYPD3) =    -0.19185915192665D+03

 The electronic state is 1-A.
 Alpha  occ. eigenvalues --  -19.72860 -10.71668 -10.66278 -10.64497  -1.20021
 Alpha  occ. eigenvalues --   -0.92894  -0.75401  -0.66444  -0.56720  -0.55895
 Alpha  occ. eigenvalues --   -0.50407  -0.47194  -0.46225  -0.34650  -0.33837
 Alpha virt. eigenvalues --   -0.02018   0.05599   0.06961   0.08426   0.09742
 Alpha virt. eigenvalues --    0.12302   0.13884   0.15325   0.17557   0.19432
 Alpha virt. eigenvalues --    0.20152   0.21181   0.25277   0.26509   0.28825

 Mulliken charges:
               1
     1  C    0.154524
     2  O   -0.342914
     3  C   -0.035047
     4  C   -0.130226
     5  H    0.104299
     6  H    0.086646
     7  H    0.101470
     8  H    0.061248
 Sum of Mulliken charges =   0.00000

 Dipole moment (field-independent basis, Debye):
    X=              3.4686    Y=              0.7435    Z=              0.1055  Tot=              3.5490
 Quadrupole moment (field-independent basis, Debye-Ang):
   XX=            -27.1637   YY=            -21.9839   ZZ=            -25.2739
   XY=             -1.0140   XZ=             -0.3608   YZ=             -0.1672

 Normal termination of Gaussian 09 at Wed Aug 26 10:08:34 2020.
