 Gaussian 09, Revision D.01,
 Gaussian 09:  ES64L-G09RevD.01 24-Apr-2013

 --------------------
 #p B2PLYPD3/Def2QZVP
 --------------------

 --------
 acrolein
 --------
 Symbolic Z-matrix:
 Charge =  0 Multiplicity = 1

                         Standard orientation:
 ---------------------------------------------------------------------
 Center     Atomic      Atomic             Coordinates (Angstroms)
 Number     Number       Type             X           Y           Z
 ---------------------------------------------------------------------
      1          6           0        0.675275    0.351330    0.012179
      2          8           0        1.794149   -0.124841   -0.010932
      3          6           0       -0.577404   -0.453770    0.032765
      4          6           0       -1.745452    0.147891   -0.017181
      5          1           0       -0.493706   -1.489002   -0.048516
      6          1           0       -1.843182    1.258770    0.015599
      7          1           0       -2.655730   -0.449037   -0.022069
      8          1           0        0.524914    1.405290   -0.024139
 ---------------------------------------------------------------------

 SCF Done:  E(RB2PLYPD3) =  -191.613477081     A.U. after   12 cycles
 E2(B2PLYPD3) =    -0.2467371779D+00 E(B2PLYPD3) =    -0.19186021425895D+03

 The electronic state is 1-A.
 Alpha  occ. eigenvalues --  -19.72818 -10.71392 -10.65403 -10.63760  -1.19152
 Alpha  occ. eigenvalues --   -0.93301  -0.75142  -0.67776  -0.56738  -0.56207
 Alpha  occ. eigenvalues --   -0.50702  -0.46947  -0.46430  -0.34993  -0.33841
 Alpha virt. eigenvalues --   -0.01414   0.05708   0.07305   0.07953   0.09696
 Alpha virt. eigenvalues --    0.12577   0.13859   0.15300   0.17944   0.19476
 Alpha virt. eigenvalues --    0.19916   0.21599   0.25315   0.26741   0.28633

 Mulliken charges:
               1
     1  C    0.154318
     2  O   -0.351567
     3  C   -0.047509
     4  C   -0.126426
     5  H    0.108741
     6  H    0.082604
     7  H    0.097785
     8  H    0.082054
 Sum of Mulliken charges =   0.00000

 Dipole moment (field-independent basis, Debye):
    X=             -3.4560    Y=              0.8025    Z=             -0.0215  Tot=              3.5480
 Quadrupole moment (field-independent basis, Debye-Ang):
   XX=            -27.7130   YY=            -21.5896   ZZ=            -25.1408
   XY=              1.0504   XZ=              0.1093   YZ=              0.1125

 Normal termination of Gaussian 09 at Wed Aug 26 21:22:00 2020.
