 Gaussian 09, Revision D.01,
 Gaussian 09:  ES64L-G09RevD.01 24-Apr-2013

 --------------------
 #p B2PLYPD3/Def2QZVP
 --------------------

 --------
 acrolein
 --------
 Symbolic Z-matrix:
 Charge =  0 Multiplicity = 1

                         Standard orientation:
 ---------------------------------------------------------------------
 Center     Atomic      Atomic             Coordinates (Angstroms)
 Number     Number       Type             X           Y           Z
 ---------------------------------------------------------------------
      1          6           0        0.687655    0.352271   -0.008713
      2          8           0        1.779642   -0.136900   -0.038010
      3          6           0       -0.538090   -0.395824    0.068348
      4          6           0       -1.770294    0.126678   -0.023041
      5          1           0       -0.454413   -1.484094    0.092876
      6          1           0       -1.895257    1.167662   -0.027770
      7          1           0       -2.736006   -0.477151   -0.160621
      8          1           0        0.572918    1.390034    0.180027
 ---------------------------------------------------------------------

 SCF Done:  E(RB2PLYPD3) =  -191.606799951     A.U. after   13 cycles
 E2(B2PLYPD3) =    -0.2466671660D+00 E(B2PLYPD3) =    -0.19185346711719D+03

 The electronic state is 1-A.
 Alpha  occ. eigenvalues --  -19.72703 -10.70757 -10.65981 -10.64176  -1.20405
 Alpha  occ. eigenvalues --   -0.92937  -0.76152  -0.67449  -0.57527  -0.55907
 Alpha  occ. eigenvalues --   -0.50805  -0.47503  -0.45829  -0.34644  -0.33774
 Alpha virt. eigenvalues --   -0.02148   0.05588   0.07259   0.08505   0.09687
 Alpha virt. eigenvalues --    0.12403   0.14182   0.15401   0.17865   0.19241
 Alpha virt. eigenvalues --    0.20058   0.21309   0.25453   0.26634   0.28506

 Mulliken charges:
               1
     1  C    0.157463
     2  O   -0.342621
     3  C   -0.041765
     4  C   -0.129493
     5  H    0.100986
     6  H    0.082499
     7  H    0.100757
     8  H    0.072174
 Sum of Mulliken charges =   0.00000

 Dipole moment (field-independent basis, Debye):
    X=             -3.4564    Y=              0.8451    Z=              0.0456  Tot=              3.5585
 Quadrupole moment (field-independent basis, Debye-Ang):
   XX=            -26.9855   YY=            -22.0440   ZZ=            -25.0963
   XY=              1.1052   XZ=              0.6294   YZ=              0.0429

 Normal termination of Gaussian 09 at Wed Aug 26 10:39:30 2020.
