 Gaussian 09, Revision D.01,
 Gaussian 09:  ES64L-G09RevD.01 24-Apr-2013

 --------------------
 #p B2PLYPD3/Def2QZVP
 --------------------

 --------
 acrolein
 --------
 Symbolic Z-matrix:
 Charge =  0 Multiplicity = 1

                         Standard orientation:
 ---------------------------------------------------------------------
 Center     Atomic      Atomic             Coordinates (Angstroms)
 Number     Number       Type             X           Y           Z
 ---------------------------------------------------------------------
      1          6           0       -0.676492    0.370722   -0.019969
      2          8           0       -1.789294   -0.146931    0.027475
      3          6           0        0.565265   -0.439644   -0.038527
      4          6           0        1.748068    0.134786    0.004268
      5          1           0        0.459547   -1.480760   -0.048037
      6          1           0        1.846347    1.158511   -0.025088
      7          1           0        2.692386   -0.445016    0.174133
      8          1           0       -0.504974    1.547524    0.004562
 ---------------------------------------------------------------------

 SCF Done:  E(RB2PLYPD3) =  -191.606594967     A.U. after   13 cycles
 E2(B2PLYPD3) =    -0.2482561543D+00 E(B2PLYPD3) =    -0.19185485112166D+03

 The electronic state is 1-A.
 Alpha  occ. eigenvalues --  -19.73243 -10.72923 -10.64923 -10.63998  -1.18751
 Alpha  occ. eigenvalues --   -0.93408  -0.75034  -0.66974  -0.56359  -0.56190
 Alpha  occ. eigenvalues --   -0.50330  -0.47226  -0.46314  -0.34885  -0.33885
 Alpha virt. eigenvalues --   -0.01762   0.05672   0.07026   0.07825   0.09813
 Alpha virt. eigenvalues --    0.12353   0.13687   0.15330   0.17463   0.19639
 Alpha virt. eigenvalues --    0.20217   0.21652   0.25264   0.26373   0.28643

 Mulliken charges:
               1
     1  C    0.157221
     2  O   -0.350867
     3  C   -0.037485
     4  C   -0.126075
     5  H    0.112044
     6  H    0.086206
     7  H    0.095046
     8  H    0.063911
 Sum of Mulliken charges =   0.00000

 Dipole moment (field-independent basis, Debye):
    X=              3.4672    Y=              0.8024    Z=              0.0034  Tot=              3.5588
 Quadrupole moment (field-independent basis, Debye-Ang):
   XX=            -27.5128   YY=            -21.8019   ZZ=            -25.2106
   XY=             -0.9951   XZ=              0.4910   YZ=             -0.0718

 Normal termination of Gaussian 09 at Wed Aug 26 10:16:34 2020.
