 Gaussian 09, Revision D.01,
 Gaussian 09:  ES64L-G09RevD.01 24-Apr-2013

 --------------------
 #p B2PLYPD3/Def2QZVP
 --------------------

 --------
 acrolein
 --------
 Symbolic Z-matrix:
 Charge =  0 Multiplicity = 1

                         Standard orientation:
 ---------------------------------------------------------------------
 Center     Atomic      Atomic             Coordinates (Angstroms)
 Number     Number       Type             X           Y           Z
 ---------------------------------------------------------------------
      1          6           0       -0.680734    0.374949   -0.054677
      2          8           0       -1.790108   -0.166801    0.069274
      3          6           0        0.586447   -0.397621   -0.121281
      4          6           0        1.747070    0.137999    0.020344
      5          1           0        0.441333   -1.528417    0.017667
      6          1           0        1.727510    1.026374    0.096673
      7          1           0        2.750274   -0.433029    0.289097
      8          1           0       -0.514945    1.577521   -0.023945
 ---------------------------------------------------------------------

 SCF Done:  E(RB2PLYPD3) =  -191.555460161     A.U. after   13 cycles
 E2(B2PLYPD3) =    -0.2495255296D+00 E(B2PLYPD3) =    -0.19180498569062D+03

 The electronic state is 1-A.
 Alpha  occ. eigenvalues --  -19.73725 -10.73727 -10.64636 -10.63658  -1.18320
 Alpha  occ. eigenvalues --   -0.94848  -0.75659  -0.66698  -0.56934  -0.55789
 Alpha  occ. eigenvalues --   -0.50307  -0.46404  -0.45395  -0.35596  -0.34155
 Alpha virt. eigenvalues --   -0.01932   0.05483   0.06383   0.07826   0.09973
 Alpha virt. eigenvalues --    0.12192   0.13472   0.15109   0.16851   0.19058
 Alpha virt. eigenvalues --    0.20721   0.22444   0.24454   0.26148   0.28554

 Mulliken charges:
               1
     1  C    0.153542
     2  O   -0.351256
     3  C   -0.017968
     4  C   -0.142419
     5  H    0.096133
     6  H    0.105439
     7  H    0.101012
     8  H    0.055517
 Sum of Mulliken charges =   0.00000

 Dipole moment (field-independent basis, Debye):
    X=              3.4267    Y=              0.8914    Z=              0.1313  Tot=              3.5432
 Quadrupole moment (field-independent basis, Debye-Ang):
   XX=            -27.3947   YY=            -22.1574   ZZ=            -25.1083
   XY=             -1.2090   XZ=              1.1921   YZ=             -0.1592

 Normal termination of Gaussian 09 at Wed Aug 26 11:16:45 2020.
