 Gaussian 09, Revision D.01,
 Gaussian 09:  ES64L-G09RevD.01 24-Apr-2013

 --------------------
 #p B2PLYPD3/Def2QZVP
 --------------------

 --------
 acrolein
 --------
 Symbolic Z-matrix:
 Charge =  0 Multiplicity = 1

                         Standard orientation:
 ---------------------------------------------------------------------
 Center     Atomic      Atomic             Coordinates (Angstroms)
 Number     Number       Type             X           Y           Z
 ---------------------------------------------------------------------
      1          6           0        0.655270    0.338101    0.033660
      2          8           0        1.790614   -0.116952   -0.030654
      3          6           0       -0.560216   -0.431437   -0.000332
      4          6           0       -1.753365    0.146173   -0.005288
      5          1           0       -0.406822   -1.551166    0.091057
      6          1           0       -1.792184    1.189769   -0.094413
      7          1           0       -2.683458   -0.450535   -0.024163
      8          1           0        0.507415    1.430527    0.104508
 ---------------------------------------------------------------------

 SCF Done:  E(RB2PLYPD3) =  -191.611558740     A.U. after   12 cycles
 E2(B2PLYPD3) =    -0.2479743169D+00 E(B2PLYPD3) =    -0.19185953305742D+03

 The electronic state is 1-A.
 Alpha  occ. eigenvalues --  -19.72751 -10.71436 -10.65582 -10.64686  -1.18630
 Alpha  occ. eigenvalues --   -0.93752  -0.76123  -0.66600  -0.56800  -0.56332
 Alpha  occ. eigenvalues --   -0.50292  -0.46792  -0.46157  -0.34904  -0.33907
 Alpha virt. eigenvalues --   -0.02207   0.05736   0.06824   0.08331   0.09803
 Alpha virt. eigenvalues --    0.12617   0.13806   0.15129   0.17216   0.19697
 Alpha virt. eigenvalues --    0.20223   0.21599   0.25217   0.26685   0.28945

 Mulliken charges:
               1
     1  C    0.153190
     2  O   -0.357779
     3  C   -0.021153
     4  C   -0.131458
     5  H    0.096980
     6  H    0.089445
     7  H    0.107187
     8  H    0.063589
 Sum of Mulliken charges =   0.00000

 Dipole moment (field-independent basis, Debye):
    X=             -3.6330    Y=              0.7403    Z=              0.1191  Tot=              3.7096
 Quadrupole moment (field-independent basis, Debye-Ang):
   XX=            -27.5119   YY=            -21.8434   ZZ=            -25.1850
   XY=              0.9347   XZ=              0.3107   YZ=             -0.1988

 Normal termination of Gaussian 09 at Wed Aug 26 10:30:31 2020.
