 Gaussian 09, Revision D.01,
 Gaussian 09:  ES64L-G09RevD.01 24-Apr-2013

 --------------------
 #p B2PLYPD3/Def2QZVP
 --------------------

 --------
 acrolein
 --------
 Symbolic Z-matrix:
 Charge =  0 Multiplicity = 1

                         Standard orientation:
 ---------------------------------------------------------------------
 Center     Atomic      Atomic             Coordinates (Angstroms)
 Number     Number       Type             X           Y           Z
 ---------------------------------------------------------------------
      1          6           0        0.679095    0.364299   -0.017530
      2          8           0        1.762103   -0.134586    0.060942
      3          6           0       -0.507625   -0.459630   -0.107624
      4          6           0       -1.746533    0.136795    0.036915
      5          1           0       -0.456003   -1.410428   -0.070540
      6          1           0       -1.850412    1.182916   -0.007233
      7          1           0       -2.816898   -0.452035    0.252369
      8          1           0        0.476867    1.507451   -0.132693
 ---------------------------------------------------------------------

 SCF Done:  E(RB2PLYPD3) =  -191.579604876     A.U. after   13 cycles
 E2(B2PLYPD3) =    -0.2485253970D+00 E(B2PLYPD3) =    -0.19182813027329D+03

 The electronic state is 1-A.
 Alpha  occ. eigenvalues --  -19.72767 -10.71913 -10.67418 -10.63542  -1.20638
 Alpha  occ. eigenvalues --   -0.92500  -0.74597  -0.68434  -0.56682  -0.55542
 Alpha  occ. eigenvalues --   -0.50212  -0.47461  -0.46904  -0.33950  -0.33612
 Alpha virt. eigenvalues --   -0.02156   0.05238   0.07107   0.07980   0.09601
 Alpha virt. eigenvalues --    0.11998   0.13717   0.15365   0.18318   0.19558
 Alpha virt. eigenvalues --    0.20002   0.20666   0.24522   0.25953   0.28619

 Mulliken charges:
               1
     1  C    0.158083
     2  O   -0.339618
     3  C   -0.050598
     4  C   -0.129684
     5  H    0.124388
     6  H    0.088770
     7  H    0.086155
     8  H    0.062502
 Sum of Mulliken charges =   0.00000

 Dipole moment (field-independent basis, Debye):
    X=             -3.4081    Y=              0.7738    Z=             -0.0390  Tot=              3.4951
 Quadrupole moment (field-independent basis, Debye-Ang):
   XX=            -27.0956   YY=            -21.9629   ZZ=            -25.3064
   XY=              0.8465   XZ=             -0.8892   YZ=             -0.1494

 Normal termination of Gaussian 09 at Wed Aug 26 11:42:39 2020.
