 Gaussian 09, Revision D.01,
 Gaussian 09:  ES64L-G09RevD.01 24-Apr-2013

 --------------------
 #p B2PLYPD3/Def2QZVP
 --------------------

 --------
 acrolein
 --------
 Symbolic Z-matrix:
 Charge =  0 Multiplicity = 1

                         Standard orientation:
 ---------------------------------------------------------------------
 Center     Atomic      Atomic             Coordinates (Angstroms)
 Number     Number       Type             X           Y           Z
 ---------------------------------------------------------------------
      1          6           0        0.681826    0.374947    0.060564
      2          8           0        1.787012   -0.146970   -0.042263
      3          6           0       -0.576189   -0.439635    0.010994
      4          6           0       -1.748385    0.137946   -0.033939
      5          1           0       -0.468213   -1.489362    0.069462
      6          1           0       -1.787959    1.193657   -0.108129
      7          1           0       -2.681161   -0.445971    0.062157
      8          1           0        0.497717    1.477894    0.088904
 ---------------------------------------------------------------------

 SCF Done:  E(RB2PLYPD3) =  -191.611580510     A.U. after   13 cycles
 E2(B2PLYPD3) =    -0.2476046525D+00 E(B2PLYPD3) =    -0.19185918516251D+03

 The electronic state is 1-A.
 Alpha  occ. eigenvalues --  -19.73261 -10.72410 -10.64693 -10.63734  -1.18837
 Alpha  occ. eigenvalues --   -0.93307  -0.74873  -0.67327  -0.56579  -0.56060
 Alpha  occ. eigenvalues --   -0.50749  -0.46844  -0.46314  -0.34982  -0.33938
 Alpha virt. eigenvalues --   -0.01539   0.05767   0.07161   0.07770   0.09858
 Alpha virt. eigenvalues --    0.12528   0.13766   0.15367   0.17568   0.19566
 Alpha virt. eigenvalues --    0.20055   0.21625   0.25438   0.26569   0.28882

 Mulliken charges:
               1
     1  C    0.154759
     2  O   -0.349943
     3  C   -0.039318
     4  C   -0.133037
     5  H    0.106891
     6  H    0.081197
     7  H    0.100403
     8  H    0.079047
 Sum of Mulliken charges =   0.00000

 Dipole moment (field-independent basis, Debye):
    X=             -3.3581    Y=              0.8692    Z=              0.2236  Tot=              3.4760
 Quadrupole moment (field-independent basis, Debye-Ang):
   XX=            -27.6957   YY=            -21.6761   ZZ=            -25.1720
   XY=              1.1727   XZ=              0.1481   YZ=             -0.2122

 Normal termination of Gaussian 09 at Wed Aug 26 09:48:38 2020.
