 Gaussian 09, Revision D.01,
 Gaussian 09:  ES64L-G09RevD.01 24-Apr-2013

 --------------------
 #p B2PLYPD3/Def2QZVP
 --------------------

 --------
 acrolein
 --------
 Symbolic Z-matrix:
 Charge =  0 Multiplicity = 1

                         Standard orientation:
 ---------------------------------------------------------------------
 Center     Atomic      Atomic             Coordinates (Angstroms)
 Number     Number       Type             X           Y           Z
 ---------------------------------------------------------------------
      1          6           0        0.668452    0.324580   -0.047694
      2          8           0        1.794157   -0.076191    0.027840
      3          6           0       -0.562021   -0.498059    0.007409
      4          6           0       -1.759250    0.157336   -0.010262
      5          1           0       -0.307030   -1.649797    0.015178
      6          1           0       -1.970713    1.309963    0.196843
      7          1           0       -2.729761   -0.378834   -0.053326
      8          1           0        0.571162    1.425052   -0.078130
 ---------------------------------------------------------------------

 SCF Done:  E(RB2PLYPD3) =  -191.592759514     A.U. after   13 cycles
 E2(B2PLYPD3) =    -0.2488515758D+00 E(B2PLYPD3) =    -0.19184161108939D+03

 The electronic state is 1-A.
 Alpha  occ. eigenvalues --  -19.72442 -10.71080 -10.67648 -10.66504  -1.20133
 Alpha  occ. eigenvalues --   -0.91674  -0.74543  -0.65674  -0.56593  -0.54615
 Alpha  occ. eigenvalues --   -0.50218  -0.46977  -0.45371  -0.34314  -0.33247
 Alpha virt. eigenvalues --   -0.02044   0.05236   0.06703   0.08022   0.09484
 Alpha virt. eigenvalues --    0.12043   0.14164   0.15319   0.16760   0.19352
 Alpha virt. eigenvalues --    0.20000   0.21104   0.24557   0.26466   0.28165

 Mulliken charges:
               1
     1  C    0.166071
     2  O   -0.343059
     3  C   -0.053774
     4  C   -0.119346
     5  H    0.106320
     6  H    0.090454
     7  H    0.095532
     8  H    0.057800
 Sum of Mulliken charges =   0.00000

 Dipole moment (field-independent basis, Debye):
    X=             -3.4911    Y=              0.6235    Z=             -0.0061  Tot=              3.5463
 Quadrupole moment (field-independent basis, Debye-Ang):
   XX=            -27.3397   YY=            -21.7100   ZZ=            -25.5279
   XY=              0.2030   XZ=             -0.3627   YZ=              0.2564

 Normal termination of Gaussian 09 at Wed Aug 26 14:38:55 2020.
