 Gaussian 09, Revision D.01,
 Gaussian 09:  ES64L-G09RevD.01 24-Apr-2013

 --------------------
 #p B2PLYPD3/Def2QZVP
 --------------------

 --------
 acrolein
 --------
 Symbolic Z-matrix:
 Charge =  0 Multiplicity = 1

                         Standard orientation:
 ---------------------------------------------------------------------
 Center     Atomic      Atomic             Coordinates (Angstroms)
 Number     Number       Type             X           Y           Z
 ---------------------------------------------------------------------
      1          6           0       -0.667850    0.339853    0.018517
      2          8           0       -1.790479   -0.108394   -0.011489
      3          6           0        0.564107   -0.472298    0.001051
      4          6           0        1.748122    0.147889   -0.012775
      5          1           0        0.459096   -1.509405    0.016293
      6          1           0        1.889903    1.263675   -0.023373
      7          1           0        2.633984   -0.412296    0.033981
      8          1           0       -0.525431    1.432512    0.024245
 ---------------------------------------------------------------------

 SCF Done:  E(RB2PLYPD3) =  -191.613799471     A.U. after   12 cycles
 E2(B2PLYPD3) =    -0.2468635403D+00 E(B2PLYPD3) =    -0.19186066301156D+03

 The electronic state is 1-A.
 Alpha  occ. eigenvalues --  -19.72623 -10.71364 -10.65601 -10.64235  -1.19470
 Alpha  occ. eigenvalues --   -0.92986  -0.75384  -0.67366  -0.56674  -0.56364
 Alpha  occ. eigenvalues --   -0.50603  -0.47315  -0.46675  -0.34663  -0.33648
 Alpha virt. eigenvalues --   -0.01644   0.05709   0.07325   0.08109   0.09643
 Alpha virt. eigenvalues --    0.12556   0.14097   0.15356   0.17689   0.19530
 Alpha virt. eigenvalues --    0.20007   0.21685   0.25357   0.26466   0.28566

 Mulliken charges:
               1
     1  C    0.155835
     2  O   -0.349203
     3  C   -0.048244
     4  C   -0.126232
     5  H    0.111117
     6  H    0.086335
     7  H    0.098742
     8  H    0.071649
 Sum of Mulliken charges =   0.00000

 Dipole moment (field-independent basis, Debye):
    X=              3.5239    Y=              0.7050    Z=              0.0801  Tot=              3.5947
 Quadrupole moment (field-independent basis, Debye-Ang):
   XX=            -27.5083   YY=            -21.6082   ZZ=            -25.1933
   XY=             -0.7679   XZ=              0.0036   YZ=             -0.0648

 Normal termination of Gaussian 09 at Wed Aug 26 15:32:42 2020.
