 Gaussian 09, Revision D.01,
 Gaussian 09:  ES64L-G09RevD.01 24-Apr-2013

 --------------------
 #p B2PLYPD3/Def2QZVP
 --------------------

 --------
 acrolein
 --------
 Symbolic Z-matrix:
 Charge =  0 Multiplicity = 1

                         Standard orientation:
 ---------------------------------------------------------------------
 Center     Atomic      Atomic             Coordinates (Angstroms)
 Number     Number       Type             X           Y           Z
 ---------------------------------------------------------------------
      1          6           0       -0.666206    0.307647    0.034437
      2          8           0       -1.820952   -0.081233   -0.034715
      3          6           0        0.598548   -0.477236   -0.028358
      4          6           0        1.761571    0.163963    0.009049
      5          1           0        0.371486   -1.546223    0.178608
      6          1           0        1.848307    1.262541   -0.124870
      7          1           0        2.665409   -0.402535   -0.042377
      8          1           0       -0.481063    1.369837    0.175593
 ---------------------------------------------------------------------

 SCF Done:  E(RB2PLYPD3) =  -191.606926404     A.U. after   13 cycles
 E2(B2PLYPD3) =    -0.2481873052D+00 E(B2PLYPD3) =    -0.19185511370919D+03

 The electronic state is 1-A.
 Alpha  occ. eigenvalues --  -19.72977 -10.71476 -10.65954 -10.65186  -1.18877
 Alpha  occ. eigenvalues --   -0.93218  -0.75716  -0.66613  -0.56658  -0.55839
 Alpha  occ. eigenvalues --   -0.50836  -0.47032  -0.45833  -0.35213  -0.33438
 Alpha virt. eigenvalues --   -0.01995   0.05748   0.07034   0.07751   0.09610
 Alpha virt. eigenvalues --    0.12693   0.13540   0.14963   0.17490   0.19410
 Alpha virt. eigenvalues --    0.20006   0.21778   0.24148   0.27299   0.28319

 Mulliken charges:
               1
     1  C    0.159853
     2  O   -0.352182
     3  C   -0.040312
     4  C   -0.121497
     5  H    0.101885
     6  H    0.089180
     7  H    0.102567
     8  H    0.060505
 Sum of Mulliken charges =   0.00000

 Dipole moment (field-independent basis, Debye):
    X=              3.5994    Y=              0.6340    Z=              0.1932  Tot=              3.6599
 Quadrupole moment (field-independent basis, Debye-Ang):
   XX=            -27.7159   YY=            -21.9177   ZZ=            -25.1970
   XY=             -0.3923   XZ=             -0.4045   YZ=             -0.3772

 Normal termination of Gaussian 09 at Wed Aug 26 11:29:10 2020.
