 Gaussian 09, Revision D.01,
 Gaussian 09:  ES64L-G09RevD.01 24-Apr-2013

 --------------------
 #p B2PLYPD3/Def2QZVP
 --------------------

 --------
 acrolein
 --------
 Symbolic Z-matrix:
 Charge =  0 Multiplicity = 1

                         Standard orientation:
 ---------------------------------------------------------------------
 Center     Atomic      Atomic             Coordinates (Angstroms)
 Number     Number       Type             X           Y           Z
 ---------------------------------------------------------------------
      1          6           0        0.670259    0.362986    0.043923
      2          8           0        1.797078   -0.137601   -0.040984
      3          6           0       -0.580447   -0.440336    0.017431
      4          6           0       -1.745979    0.130595   -0.042866
      5          1           0       -0.496986   -1.452097    0.123881
      6          1           0       -1.788551    1.206940   -0.036363
      7          1           0       -2.629462   -0.419361    0.013133
      8          1           0        0.475376    1.445853    0.116297
 ---------------------------------------------------------------------

 SCF Done:  E(RB2PLYPD3) =  -191.609206813     A.U. after   12 cycles
 E2(B2PLYPD3) =    -0.2473552940D+00 E(B2PLYPD3) =    -0.19185656210684D+03

 The electronic state is 1-A.
 Alpha  occ. eigenvalues --  -19.73208 -10.72237 -10.64242 -10.63246  -1.18203
 Alpha  occ. eigenvalues --   -0.94032  -0.75714  -0.67919  -0.57357  -0.56169
 Alpha  occ. eigenvalues --   -0.50940  -0.47331  -0.45905  -0.35169  -0.34093
 Alpha virt. eigenvalues --   -0.01672   0.05823   0.07239   0.07987   0.09807
 Alpha virt. eigenvalues --    0.12711   0.13932   0.15256   0.17821   0.19614
 Alpha virt. eigenvalues --    0.20033   0.21787   0.25481   0.26706   0.28874

 Mulliken charges:
               1
     1  C    0.150999
     2  O   -0.356467
     3  C   -0.031594
     4  C   -0.125765
     5  H    0.105260
     6  H    0.075766
     7  H    0.100503
     8  H    0.081298
 Sum of Mulliken charges =   0.00000

 Dipole moment (field-independent basis, Debye):
    X=             -3.5036    Y=              0.8213    Z=              0.2828  Tot=              3.6097
 Quadrupole moment (field-independent basis, Debye-Ang):
   XX=            -27.6934   YY=            -21.7299   ZZ=            -25.0270
   XY=              1.1387   XZ=              0.1239   YZ=             -0.1469

 Normal termination of Gaussian 09 at Wed Aug 26 10:00:49 2020.
