 Gaussian 09, Revision D.01,
 Gaussian 09:  ES64L-G09RevD.01 24-Apr-2013

 --------------------
 #p B2PLYPD3/Def2QZVP
 --------------------

 --------
 acrolein
 --------
 Symbolic Z-matrix:
 Charge =  0 Multiplicity = 1

                         Standard orientation:
 ---------------------------------------------------------------------
 Center     Atomic      Atomic             Coordinates (Angstroms)
 Number     Number       Type             X           Y           Z
 ---------------------------------------------------------------------
      1          6           0       -0.649809    0.324958   -0.011664
      2          8           0       -1.798663   -0.097502    0.030617
      3          6           0        0.562917   -0.463969   -0.055904
      4          6           0        1.748293    0.143387    0.031684
      5          1           0        0.413833   -1.523083   -0.031575
      6          1           0        1.866931    1.270560   -0.026299
      7          1           0        2.645463   -0.414596    0.104096
      8          1           0       -0.505325    1.420885   -0.075853
 ---------------------------------------------------------------------

 SCF Done:  E(RB2PLYPD3) =  -191.612128808     A.U. after   13 cycles
 E2(B2PLYPD3) =    -0.2480109945D+00 E(B2PLYPD3) =    -0.19186013980259D+03

 The electronic state is 1-A.
 Alpha  occ. eigenvalues --  -19.72564 -10.71330 -10.66249 -10.64527  -1.18469
 Alpha  occ. eigenvalues --   -0.93519  -0.75956  -0.66897  -0.56859  -0.55999
 Alpha  occ. eigenvalues --   -0.50272  -0.47131  -0.46261  -0.34800  -0.33653
 Alpha virt. eigenvalues --   -0.02183   0.05605   0.07094   0.08238   0.09673
 Alpha virt. eigenvalues --    0.12481   0.13911   0.15236   0.17483   0.19519
 Alpha virt. eigenvalues --    0.19991   0.21652   0.25048   0.26544   0.28670

 Mulliken charges:
               1
     1  C    0.159693
     2  O   -0.360797
     3  C   -0.036453
     4  C   -0.121936
     5  H    0.107194
     6  H    0.087821
     7  H    0.103092
     8  H    0.061387
 Sum of Mulliken charges =   0.00000

 Dipole moment (field-independent basis, Debye):
    X=              3.7250    Y=              0.6452    Z=             -0.0648  Tot=              3.7811
 Quadrupole moment (field-independent basis, Debye-Ang):
   XX=            -27.5321   YY=            -21.7458   ZZ=            -25.2124
   XY=             -0.6661   XZ=              0.3701   YZ=             -0.1050

 Normal termination of Gaussian 09 at Wed Aug 26 08:49:47 2020.
