 Gaussian 09, Revision D.01,
 Gaussian 09:  ES64L-G09RevD.01 24-Apr-2013

 --------------------
 #p B2PLYPD3/Def2QZVP
 --------------------

 --------
 acrolein
 --------
 Symbolic Z-matrix:
 Charge =  0 Multiplicity = 1

                         Standard orientation:
 ---------------------------------------------------------------------
 Center     Atomic      Atomic             Coordinates (Angstroms)
 Number     Number       Type             X           Y           Z
 ---------------------------------------------------------------------
      1          6           0       -0.670328    0.334212    0.008928
      2          8           0       -1.761552   -0.133573   -0.033051
      3          6           0        0.544700   -0.428408    0.020550
      4          6           0        1.735482    0.156440   -0.000421
      5          1           0        0.503438   -1.447300    0.094601
      6          1           0        1.787838    1.217866   -0.132857
      7          1           0        2.787806   -0.471433   -0.064031
      8          1           0       -0.645787    1.395986    0.192356
 ---------------------------------------------------------------------

 SCF Done:  E(RB2PLYPD3) =  -191.598128293     A.U. after   13 cycles
 E2(B2PLYPD3) =    -0.2460072275D+00 E(B2PLYPD3) =    -0.19184413552036D+03

 The electronic state is 1-A.
 Alpha  occ. eigenvalues --  -19.72261 -10.70502 -10.66527 -10.63409  -1.20819
 Alpha  occ. eigenvalues --   -0.93517  -0.74774  -0.68023  -0.58041  -0.55483
 Alpha  occ. eigenvalues --   -0.50214  -0.47431  -0.46309  -0.34878  -0.33577
 Alpha virt. eigenvalues --   -0.01531   0.05363   0.07222   0.08438   0.09668
 Alpha virt. eigenvalues --    0.12257   0.14086   0.15269   0.18208   0.19122
 Alpha virt. eigenvalues --    0.20085   0.20920   0.25204   0.26305   0.29136

 Mulliken charges:
               1
     1  C    0.138815
     2  O   -0.336885
     3  C   -0.039398
     4  C   -0.123761
     5  H    0.112946
     6  H    0.086966
     7  H    0.088860
     8  H    0.072456
 Sum of Mulliken charges =   0.00000

 Dipole moment (field-independent basis, Debye):
    X=              3.3510    Y=              0.7559    Z=              0.0634  Tot=              3.4358
 Quadrupole moment (field-independent basis, Debye-Ang):
   XX=            -27.2589   YY=            -21.8854   ZZ=            -25.0744
   XY=             -1.3375   XZ=             -0.5181   YZ=             -0.1895

 Normal termination of Gaussian 09 at Wed Aug 26 14:31:17 2020.
