 Gaussian 09, Revision D.01,
 Gaussian 09:  ES64L-G09RevD.01 24-Apr-2013

 --------------------
 #p B2PLYPD3/Def2QZVP
 --------------------

 --------
 acrolein
 --------
 Symbolic Z-matrix:
 Charge =  0 Multiplicity = 1

                         Standard orientation:
 ---------------------------------------------------------------------
 Center     Atomic      Atomic             Coordinates (Angstroms)
 Number     Number       Type             X           Y           Z
 ---------------------------------------------------------------------
      1          6           0        0.670863    0.343679   -0.014896
      2          8           0        1.788157   -0.103031    0.019373
      3          6           0       -0.564574   -0.478383   -0.024470
      4          6           0       -1.761931    0.143935    0.003701
      5          1           0       -0.405254   -1.589534    0.031296
      6          1           0       -1.893461    1.282475    0.110527
      7          1           0       -2.595575   -0.389043   -0.001388
      8          1           0        0.522882    1.464972   -0.081429
 ---------------------------------------------------------------------

 SCF Done:  E(RB2PLYPD3) =  -191.604009571     A.U. after   13 cycles
 E2(B2PLYPD3) =    -0.2476000049D+00 E(B2PLYPD3) =    -0.19185160957620D+03

 The electronic state is 1-A.
 Alpha  occ. eigenvalues --  -19.72739 -10.71674 -10.65473 -10.65306  -1.19865
 Alpha  occ. eigenvalues --   -0.92446  -0.75653  -0.65948  -0.57038  -0.55614
 Alpha  occ. eigenvalues --   -0.50639  -0.47046  -0.46669  -0.34455  -0.33573
 Alpha virt. eigenvalues --   -0.01737   0.05687   0.07037   0.08009   0.09632
 Alpha virt. eigenvalues --    0.12465   0.14050   0.15407   0.17063   0.19416
 Alpha virt. eigenvalues --    0.20085   0.22048   0.25090   0.26370   0.28516

 Mulliken charges:
               1
     1  C    0.162734
     2  O   -0.343196
     3  C   -0.053085
     4  C   -0.126148
     5  H    0.104348
     6  H    0.085247
     7  H    0.106925
     8  H    0.063174
 Sum of Mulliken charges =   0.00000

 Dipole moment (field-independent basis, Debye):
    X=             -3.4646    Y=              0.6609    Z=              0.0374  Tot=              3.5273
 Quadrupole moment (field-independent basis, Debye-Ang):
   XX=            -27.4678   YY=            -21.6095   ZZ=            -25.3226
   XY=              0.6581   XZ=             -0.3031   YZ=              0.0510

 Normal termination of Gaussian 09 at Wed Aug 26 21:07:12 2020.
