 Gaussian 09, Revision D.01,
 Gaussian 09:  ES64L-G09RevD.01 24-Apr-2013

 --------------------
 #p B2PLYPD3/Def2QZVP
 --------------------

 --------
 acrolein
 --------
 Symbolic Z-matrix:
 Charge =  0 Multiplicity = 1

                         Standard orientation:
 ---------------------------------------------------------------------
 Center     Atomic      Atomic             Coordinates (Angstroms)
 Number     Number       Type             X           Y           Z
 ---------------------------------------------------------------------
      1          6           0       -0.687787    0.365826    0.026843
      2          8           0       -1.773491   -0.134410   -0.014755
      3          6           0        0.546067   -0.422208   -0.001053
      4          6           0        1.771048    0.129735   -0.020896
      5          1           0        0.398273   -1.536668    0.000772
      6          1           0        1.813450    1.124428   -0.087497
      7          1           0        2.701806   -0.404064    0.116524
      8          1           0       -0.501565    1.451464    0.058884
 ---------------------------------------------------------------------

 SCF Done:  E(RB2PLYPD3) =  -191.608284284     A.U. after   13 cycles
 E2(B2PLYPD3) =    -0.2465942987D+00 E(B2PLYPD3) =    -0.19185487858233D+03

 The electronic state is 1-A.
 Alpha  occ. eigenvalues --  -19.72991 -10.71469 -10.64636 -10.64517  -1.20591
 Alpha  occ. eigenvalues --   -0.92806  -0.76089  -0.66987  -0.57092  -0.56557
 Alpha  occ. eigenvalues --   -0.51237  -0.47379  -0.46482  -0.34455  -0.33870
 Alpha virt. eigenvalues --   -0.01892   0.05878   0.07244   0.08380   0.09875
 Alpha virt. eigenvalues --    0.12639   0.14123   0.15502   0.17168   0.19693
 Alpha virt. eigenvalues --    0.20063   0.22100   0.25509   0.26491   0.28820

 Mulliken charges:
               1
     1  C    0.153688
     2  O   -0.339005
     3  C   -0.032459
     4  C   -0.139285
     5  H    0.098275
     6  H    0.082991
     7  H    0.105790
     8  H    0.070004
 Sum of Mulliken charges =   0.00000

 Dipole moment (field-independent basis, Debye):
    X=              3.3446    Y=              0.8511    Z=              0.1102  Tot=              3.4530
 Quadrupole moment (field-independent basis, Debye-Ang):
   XX=            -27.0580   YY=            -21.9633   ZZ=            -25.1315
   XY=             -0.9376   XZ=              0.0998   YZ=             -0.1406

 Normal termination of Gaussian 09 at Wed Aug 26 08:58:22 2020.
