 Gaussian 09, Revision D.01,
 Gaussian 09:  ES64L-G09RevD.01 24-Apr-2013

 --------------------
 #p B2PLYPD3/Def2QZVP
 --------------------

 --------
 acrolein
 --------
 Symbolic Z-matrix:
 Charge =  0 Multiplicity = 1

                         Standard orientation:
 ---------------------------------------------------------------------
 Center     Atomic      Atomic             Coordinates (Angstroms)
 Number     Number       Type             X           Y           Z
 ---------------------------------------------------------------------
      1          6           0        0.662079   -0.329957    0.028624
      2          8           0        1.790254    0.099576   -0.030787
      3          6           0       -0.569270    0.461437    0.024543
      4          6           0       -1.763266   -0.158651   -0.027311
      5          1           0       -0.406091    1.650600    0.011269
      6          1           0       -1.827520   -1.251429   -0.109022
      7          1           0       -2.623956    0.395294    0.055939
      8          1           0        0.558280   -1.428046    0.132979
 ---------------------------------------------------------------------

 SCF Done:  E(RB2PLYPD3) =  -191.604579779     A.U. after   13 cycles
 E2(B2PLYPD3) =    -0.2478778050D+00 E(B2PLYPD3) =    -0.19185245758453D+03

 The electronic state is 1-A.
 Alpha  occ. eigenvalues --  -19.72577 -10.71326 -10.65885 -10.65495  -1.19492
 Alpha  occ. eigenvalues --   -0.92785  -0.75852  -0.65715  -0.56660  -0.56337
 Alpha  occ. eigenvalues --   -0.50425  -0.46654  -0.46334  -0.34565  -0.33597
 Alpha virt. eigenvalues --   -0.02005   0.05822   0.06565   0.08267   0.09679
 Alpha virt. eigenvalues --    0.12497   0.14039   0.15404   0.16729   0.19390
 Alpha virt. eigenvalues --    0.20165   0.21897   0.25181   0.26319   0.28867

 Mulliken charges:
               1
     1  C    0.158349
     2  O   -0.346925
     3  C   -0.041335
     4  C   -0.127136
     5  H    0.094566
     6  H    0.090638
     7  H    0.110348
     8  H    0.061494
 Sum of Mulliken charges =   0.00000

 Dipole moment (field-independent basis, Debye):
    X=             -3.5363    Y=             -0.6938    Z=              0.1059  Tot=              3.6052
 Quadrupole moment (field-independent basis, Debye-Ang):
   XX=            -27.5382   YY=            -21.6368   ZZ=            -25.3280
   XY=             -0.7510   XZ=              0.1988   YZ=              0.1243

 Normal termination of Gaussian 09 at Wed Aug 26 08:57:36 2020.
