 Gaussian 09, Revision D.01,
 Gaussian 09:  ES64L-G09RevD.01 24-Apr-2013

 --------------------
 #p B2PLYPD3/Def2QZVP
 --------------------

 --------
 acrolein
 --------
 Symbolic Z-matrix:
 Charge =  0 Multiplicity = 1

                         Standard orientation:
 ---------------------------------------------------------------------
 Center     Atomic      Atomic             Coordinates (Angstroms)
 Number     Number       Type             X           Y           Z
 ---------------------------------------------------------------------
      1          6           0       -0.680262    0.370612    0.027178
      2          8           0       -1.766414   -0.157719   -0.060903
      3          6           0        0.524105   -0.430443    0.077814
      4          6           0        1.765418    0.135981   -0.072452
      5          1           0        0.416669   -1.503619    0.139193
      6          1           0        1.715654    1.176959   -0.026601
      7          1           0        2.910123   -0.447079   -0.039593
      8          1           0       -0.566701    1.578590    0.218992
 ---------------------------------------------------------------------

 SCF Done:  E(RB2PLYPD3) =  -191.578332406     A.U. after   13 cycles
 E2(B2PLYPD3) =    -0.2507426675D+00 E(B2PLYPD3) =    -0.19182907507388D+03

 The electronic state is 1-A.
 Alpha  occ. eigenvalues --  -19.73149 -10.72865 -10.67528 -10.64991  -1.19943
 Alpha  occ. eigenvalues --   -0.92349  -0.74377  -0.65942  -0.55904  -0.54931
 Alpha  occ. eigenvalues --   -0.49500  -0.47029  -0.45858  -0.34094  -0.33915
 Alpha virt. eigenvalues --   -0.02408   0.04969   0.06243   0.07988   0.09668
 Alpha virt. eigenvalues --    0.11577   0.13633   0.15262   0.17329   0.19372
 Alpha virt. eigenvalues --    0.20103   0.20390   0.24862   0.25640   0.28672

 Mulliken charges:
               1
     1  C    0.158195
     2  O   -0.338005
     3  C   -0.040161
     4  C   -0.130758
     5  H    0.111875
     6  H    0.086648
     7  H    0.100950
     8  H    0.051256
 Sum of Mulliken charges =   0.00000

 Dipole moment (field-independent basis, Debye):
    X=              3.3805    Y=              0.7416    Z=              0.2850  Tot=              3.4726
 Quadrupole moment (field-independent basis, Debye-Ang):
   XX=            -26.9506   YY=            -22.1343   ZZ=            -25.6076
   XY=             -1.3633   XZ=             -0.3639   YZ=             -0.0641

 Normal termination of Gaussian 09 at Wed Aug 26 11:06:47 2020.
