 Gaussian 09, Revision D.01,
 Gaussian 09:  ES64L-G09RevD.01 24-Apr-2013

 --------------------
 #p B2PLYPD3/Def2QZVP
 --------------------

 --------
 acrolein
 --------
 Symbolic Z-matrix:
 Charge =  0 Multiplicity = 1

                         Standard orientation:
 ---------------------------------------------------------------------
 Center     Atomic      Atomic             Coordinates (Angstroms)
 Number     Number       Type             X           Y           Z
 ---------------------------------------------------------------------
      1          6           0       -0.668496    0.355019   -0.023707
      2          8           0       -1.798240   -0.113600    0.034110
      3          6           0        0.591114   -0.477187   -0.040670
      4          6           0        1.740586    0.155299    0.013342
      5          1           0        0.479928   -1.514372   -0.072216
      6          1           0        1.882607    1.291697   -0.013005
      7          1           0        2.579488   -0.431930    0.167946
      8          1           0       -0.535323    1.364627   -0.049391
 ---------------------------------------------------------------------

 SCF Done:  E(RB2PLYPD3) =  -191.603748058     A.U. after   13 cycles
 E2(B2PLYPD3) =    -0.2468151317D+00 E(B2PLYPD3) =    -0.19185056318930D+03

 The electronic state is 1-A.
 Alpha  occ. eigenvalues --  -19.72642 -10.70985 -10.65052 -10.64020  -1.18514
 Alpha  occ. eigenvalues --   -0.93295  -0.75475  -0.68297  -0.56933  -0.56153
 Alpha  occ. eigenvalues --   -0.50791  -0.47212  -0.45907  -0.34917  -0.33657
 Alpha virt. eigenvalues --   -0.01249   0.05667   0.07365   0.07690   0.09611
 Alpha virt. eigenvalues --    0.12584   0.14022   0.15307   0.17825   0.19288
 Alpha virt. eigenvalues --    0.19963   0.21957   0.25219   0.26846   0.28368

 Mulliken charges:
               1
     1  C    0.157066
     2  O   -0.359395
     3  C   -0.057574
     4  C   -0.126955
     5  H    0.111924
     6  H    0.085930
     7  H    0.096873
     8  H    0.092131
 Sum of Mulliken charges =   0.00000

 Dipole moment (field-independent basis, Debye):
    X=              3.4838    Y=              0.8225    Z=             -0.0570  Tot=              3.5800
 Quadrupole moment (field-independent basis, Debye-Ang):
   XX=            -28.0321   YY=            -21.2964   ZZ=            -25.0918
   XY=             -0.8775   XZ=              0.5161   YZ=             -0.0540

 Normal termination of Gaussian 09 at Wed Aug 26 09:14:04 2020.
