 Gaussian 09, Revision D.01,
 Gaussian 09:  ES64L-G09RevD.01 24-Apr-2013

 --------------------
 #p B2PLYPD3/Def2QZVP
 --------------------

 --------
 acrolein
 --------
 Symbolic Z-matrix:
 Charge =  0 Multiplicity = 1

                         Standard orientation:
 ---------------------------------------------------------------------
 Center     Atomic      Atomic             Coordinates (Angstroms)
 Number     Number       Type             X           Y           Z
 ---------------------------------------------------------------------
      1          6           0        0.666075    0.331532   -0.008992
      2          8           0        1.803050   -0.098565    0.032292
      3          6           0       -0.557965   -0.462982   -0.053940
      4          6           0       -1.762264    0.143820    0.011644
      5          1           0       -0.418976   -1.570236   -0.048444
      6          1           0       -1.914965    1.248715   -0.001518
      7          1           0       -2.642058   -0.419191    0.178884
      8          1           0        0.476520    1.455010   -0.079535
 ---------------------------------------------------------------------

 SCF Done:  E(RB2PLYPD3) =  -191.610921797     A.U. after   13 cycles
 E2(B2PLYPD3) =    -0.2484823074D+00 E(B2PLYPD3) =    -0.19185940410492D+03

 The electronic state is 1-A.
 Alpha  occ. eigenvalues --  -19.72853 -10.71860 -10.66199 -10.65261  -1.19126
 Alpha  occ. eigenvalues --   -0.92818  -0.75825  -0.66020  -0.56700  -0.55733
 Alpha  occ. eigenvalues --   -0.50330  -0.47099  -0.46396  -0.34567  -0.33643
 Alpha virt. eigenvalues --   -0.02278   0.05651   0.06932   0.08165   0.09626
 Alpha virt. eigenvalues --    0.12475   0.13971   0.15304   0.17183   0.19669
 Alpha virt. eigenvalues --    0.19816   0.21806   0.24954   0.26448   0.28281

 Mulliken charges:
               1
     1  C    0.162271
     2  O   -0.350781
     3  C   -0.037281
     4  C   -0.124944
     5  H    0.103013
     6  H    0.087752
     7  H    0.103414
     8  H    0.056557
 Sum of Mulliken charges =   0.00000

 Dipole moment (field-independent basis, Debye):
    X=             -3.6464    Y=              0.6387    Z=              0.0049  Tot=              3.7019
 Quadrupole moment (field-independent basis, Debye-Ang):
   XX=            -27.4470   YY=            -21.8178   ZZ=            -25.3174
   XY=              0.5354   XZ=             -0.5890   YZ=             -0.0853

 Normal termination of Gaussian 09 at Wed Aug 26 08:35:59 2020.
