 Gaussian 09, Revision D.01,
 Gaussian 09:  ES64L-G09RevD.01 24-Apr-2013

 --------------------
 #p B2PLYPD3/Def2QZVP
 --------------------

 --------
 acrolein
 --------
 Symbolic Z-matrix:
 Charge =  0 Multiplicity = 1

                         Standard orientation:
 ---------------------------------------------------------------------
 Center     Atomic      Atomic             Coordinates (Angstroms)
 Number     Number       Type             X           Y           Z
 ---------------------------------------------------------------------
      1          6           0        0.662091    0.351361    0.029747
      2          8           0        1.798088   -0.131196   -0.031927
      3          6           0       -0.569827   -0.428413    0.046533
      4          6           0       -1.749918    0.132972   -0.032953
      5          1           0       -0.431317   -1.505364    0.007060
      6          1           0       -1.841473    1.160450   -0.019712
      7          1           0       -2.668330   -0.434774   -0.036857
      8          1           0        0.502341    1.493732    0.044961
 ---------------------------------------------------------------------

 SCF Done:  E(RB2PLYPD3) =  -191.611227157     A.U. after   13 cycles
 E2(B2PLYPD3) =    -0.2481040631D+00 E(B2PLYPD3) =    -0.19185933121993D+03

 The electronic state is 1-A.
 Alpha  occ. eigenvalues --  -19.73072 -10.72364 -10.64778 -10.64226  -1.18154
 Alpha  occ. eigenvalues --   -0.93985  -0.76060  -0.66746  -0.56817  -0.56554
 Alpha  occ. eigenvalues --   -0.50366  -0.46833  -0.46230  -0.35158  -0.33939
 Alpha virt. eigenvalues --   -0.02084   0.05750   0.07021   0.08179   0.09831
 Alpha virt. eigenvalues --    0.12576   0.13788   0.15259   0.17261   0.19857
 Alpha virt. eigenvalues --    0.20179   0.21794   0.25432   0.26360   0.28722

 Mulliken charges:
               1
     1  C    0.156898
     2  O   -0.359314
     3  C   -0.026639
     4  C   -0.123479
     5  H    0.103704
     6  H    0.085517
     7  H    0.101552
     8  H    0.061761
 Sum of Mulliken charges =   0.00000

 Dipole moment (field-independent basis, Debye):
    X=             -3.6402    Y=              0.7633    Z=              0.0748  Tot=              3.7201
 Quadrupole moment (field-independent basis, Debye-Ang):
   XX=            -27.4246   YY=            -21.8846   ZZ=            -25.1500
   XY=              0.9066   XZ=              0.2711   YZ=              0.0329

 Normal termination of Gaussian 09 at Wed Aug 26 08:58:26 2020.
