 Gaussian 09, Revision D.01,
 Gaussian 09:  ES64L-G09RevD.01 24-Apr-2013

 --------------------
 #p B2PLYPD3/Def2QZVP
 --------------------

 --------
 acrolein
 --------
 Symbolic Z-matrix:
 Charge =  0 Multiplicity = 1

                         Standard orientation:
 ---------------------------------------------------------------------
 Center     Atomic      Atomic             Coordinates (Angstroms)
 Number     Number       Type             X           Y           Z
 ---------------------------------------------------------------------
      1          6           0       -0.686390    0.374937    0.052667
      2          8           0       -1.759758   -0.155528   -0.061064
      3          6           0        0.522945   -0.401809    0.011440
      4          6           0        1.756541    0.101216   -0.004881
      5          1           0        0.431599   -1.475669    0.227454
      6          1           0        1.866517    1.197967   -0.158926
      7          1           0        2.685882   -0.492251   -0.126564
      8          1           0       -0.464518    1.568106    0.191198
 ---------------------------------------------------------------------

 SCF Done:  E(RB2PLYPD3) =  -191.601222802     A.U. after   13 cycles
 E2(B2PLYPD3) =    -0.2486928177D+00 E(B2PLYPD3) =    -0.19184991561931D+03

 The electronic state is 1-A.
 Alpha  occ. eigenvalues --  -19.73430 -10.72677 -10.65924 -10.64171  -1.20597
 Alpha  occ. eigenvalues --   -0.92945  -0.75448  -0.65336  -0.56654  -0.55737
 Alpha  occ. eigenvalues --   -0.50784  -0.47742  -0.45025  -0.34772  -0.33958
 Alpha virt. eigenvalues --   -0.02074   0.05652   0.06655   0.08132   0.09795
 Alpha virt. eigenvalues --    0.12297   0.13390   0.14691   0.17943   0.19147
 Alpha virt. eigenvalues --    0.19903   0.21631   0.24733   0.26678   0.28710

 Mulliken charges:
               1
     1  C    0.159327
     2  O   -0.330826
     3  C   -0.033738
     4  C   -0.119505
     5  H    0.102316
     6  H    0.068047
     7  H    0.102760
     8  H    0.051617
 Sum of Mulliken charges =   0.00000

 Dipole moment (field-independent basis, Debye):
    X=              3.3307    Y=              0.7137    Z=              0.2004  Tot=              3.4122
 Quadrupole moment (field-independent basis, Debye-Ang):
   XX=            -27.0536   YY=            -22.2410   ZZ=            -25.2404
   XY=             -1.1288   XZ=             -0.6995   YZ=             -0.3404

 Normal termination of Gaussian 09 at Wed Aug 26 11:55:43 2020.
