 Gaussian 09, Revision D.01,
 Gaussian 09:  ES64L-G09RevD.01 24-Apr-2013

 --------------------
 #p B2PLYPD3/Def2QZVP
 --------------------

 --------
 acrolein
 --------
 Symbolic Z-matrix:
 Charge =  0 Multiplicity = 1

                         Standard orientation:
 ---------------------------------------------------------------------
 Center     Atomic      Atomic             Coordinates (Angstroms)
 Number     Number       Type             X           Y           Z
 ---------------------------------------------------------------------
      1          6           0       -0.688277    0.372529    0.036735
      2          8           0       -1.761126   -0.139779   -0.072561
      3          6           0        0.533835   -0.430480    0.053676
      4          6           0        1.774877    0.111536   -0.031115
      5          1           0        0.411932   -1.409176    0.154447
      6          1           0        1.955733    1.211365   -0.221906
      7          1           0        2.682927   -0.400352   -0.041851
      8          1           0       -0.684194    1.394884    0.334012
 ---------------------------------------------------------------------

 SCF Done:  E(RB2PLYPD3) =  -191.600916333     A.U. after   13 cycles
 E2(B2PLYPD3) =    -0.2459755926D+00 E(B2PLYPD3) =    -0.19184689192557D+03

 The electronic state is 1-A.
 Alpha  occ. eigenvalues --  -19.72413 -10.70691 -10.65629 -10.63774  -1.20590
 Alpha  occ. eigenvalues --   -0.92273  -0.75806  -0.68383  -0.57423  -0.56887
 Alpha  occ. eigenvalues --   -0.51337  -0.47082  -0.46386  -0.34121  -0.33724
 Alpha virt. eigenvalues --   -0.01754   0.05769   0.07430   0.08276   0.09565
 Alpha virt. eigenvalues --    0.12442   0.14395   0.15471   0.18272   0.18703
 Alpha virt. eigenvalues --    0.20230   0.21444   0.24896   0.26718   0.29120

 Mulliken charges:
               1
     1  C    0.155394
     2  O   -0.340683
     3  C   -0.074659
     4  C   -0.121761
     5  H    0.122171
     6  H    0.071764
     7  H    0.097235
     8  H    0.090539
 Sum of Mulliken charges =   0.00000

 Dipole moment (field-independent basis, Debye):
    X=              3.2940    Y=              0.8471    Z=              0.2458  Tot=              3.4100
 Quadrupole moment (field-independent basis, Debye-Ang):
   XX=            -26.8445   YY=            -21.8868   ZZ=            -25.0331
   XY=             -1.1130   XZ=             -0.8171   YZ=             -0.3072

 Normal termination of Gaussian 09 at Wed Aug 26 11:05:26 2020.
