 Gaussian 09, Revision D.01,
 Gaussian 09:  ES64L-G09RevD.01 24-Apr-2013

 --------------------
 #p B2PLYPD3/Def2QZVP
 --------------------

 --------
 acrolein
 --------
 Symbolic Z-matrix:
 Charge =  0 Multiplicity = 1

                         Standard orientation:
 ---------------------------------------------------------------------
 Center     Atomic      Atomic             Coordinates (Angstroms)
 Number     Number       Type             X           Y           Z
 ---------------------------------------------------------------------
      1          6           0        0.667453    0.352588    0.015205
      2          8           0        1.781117   -0.126532   -0.014361
      3          6           0       -0.559938   -0.439868    0.015141
      4          6           0       -1.752867    0.135860   -0.016013
      5          1           0       -0.442574   -1.516946    0.039849
      6          1           0       -1.828720    1.192509    0.047547
      7          1           0       -2.637887   -0.408480   -0.051077
      8          1           0        0.532356    1.453685   -0.007433
 ---------------------------------------------------------------------

 SCF Done:  E(RB2PLYPD3) =  -191.615896015     A.U. after   12 cycles
 E2(B2PLYPD3) =    -0.2466798804D+00 E(B2PLYPD3) =    -0.19186257589559D+03

 The electronic state is 1-A.
 Alpha  occ. eigenvalues --  -19.72744 -10.71512 -10.64665 -10.64189  -1.19382
 Alpha  occ. eigenvalues --   -0.93410  -0.75966  -0.67054  -0.57014  -0.56764
 Alpha  occ. eigenvalues --   -0.50709  -0.47206  -0.46655  -0.34762  -0.33861
 Alpha virt. eigenvalues --   -0.01745   0.05857   0.07217   0.08273   0.09802
 Alpha virt. eigenvalues --    0.12666   0.14143   0.15353   0.17371   0.19844
 Alpha virt. eigenvalues --    0.20126   0.21905   0.25530   0.26409   0.28848

 Mulliken charges:
               1
     1  C    0.153798
     2  O   -0.350079
     3  C   -0.034610
     4  C   -0.130328
     5  H    0.103606
     6  H    0.083645
     7  H    0.103825
     8  H    0.070144
 Sum of Mulliken charges =   0.00000

 Dipole moment (field-independent basis, Debye):
    X=             -3.5028    Y=              0.7715    Z=              0.0776  Tot=              3.5875
 Quadrupole moment (field-independent basis, Debye-Ang):
   XX=            -27.3505   YY=            -21.7587   ZZ=            -25.1004
   XY=              0.9925   XZ=              0.0963   YZ=              0.0327

 Normal termination of Gaussian 09 at Wed Aug 26 16:39:01 2020.
