 Gaussian 09, Revision D.01,
 Gaussian 09:  ES64L-G09RevD.01 24-Apr-2013

 --------------------
 #p B2PLYPD3/Def2QZVP
 --------------------

 --------
 acrolein
 --------
 Symbolic Z-matrix:
 Charge =  0 Multiplicity = 1

                         Standard orientation:
 ---------------------------------------------------------------------
 Center     Atomic      Atomic             Coordinates (Angstroms)
 Number     Number       Type             X           Y           Z
 ---------------------------------------------------------------------
      1          6           0        0.654376    0.345019    0.038355
      2          8           0        1.807376   -0.101665   -0.034800
      3          6           0       -0.571429   -0.472859   -0.003558
      4          6           0       -1.744485    0.145030   -0.026572
      5          1           0       -0.442051   -1.608500    0.135880
      6          1           0       -1.892355    1.274281   -0.050386
      7          1           0       -2.587343   -0.417760    0.011603
      8          1           0        0.431963    1.462161    0.131956
 ---------------------------------------------------------------------

 SCF Done:  E(RB2PLYPD3) =  -191.602744703     A.U. after   13 cycles
 E2(B2PLYPD3) =    -0.2493487858D+00 E(B2PLYPD3) =    -0.19185209348899D+03

 The electronic state is 1-A.
 Alpha  occ. eigenvalues --  -19.73012 -10.72365 -10.65448 -10.65292  -1.17848
 Alpha  occ. eigenvalues --   -0.93350  -0.75842  -0.65669  -0.56802  -0.55439
 Alpha  occ. eigenvalues --   -0.50200  -0.46683  -0.45639  -0.34898  -0.33836
 Alpha virt. eigenvalues --   -0.02027   0.05585   0.06554   0.07806   0.09594
 Alpha virt. eigenvalues --    0.12549   0.13902   0.15053   0.17017   0.19453
 Alpha virt. eigenvalues --    0.20092   0.22022   0.24973   0.26701   0.28369

 Mulliken charges:
               1
     1  C    0.160648
     2  O   -0.358796
     3  C   -0.035505
     4  C   -0.124487
     5  H    0.099908
     6  H    0.086195
     7  H    0.104111
     8  H    0.067926
 Sum of Mulliken charges =   0.00000

 Dipole moment (field-independent basis, Debye):
    X=             -3.6893    Y=              0.6888    Z=              0.2572  Tot=              3.7618
 Quadrupole moment (field-independent basis, Debye-Ang):
   XX=            -27.8411   YY=            -21.5639   ZZ=            -25.3373
   XY=              0.5662   XZ=              0.1371   YZ=             -0.2232

 Normal termination of Gaussian 09 at Wed Aug 26 07:57:21 2020.
