 Gaussian 09, Revision D.01,
 Gaussian 09:  ES64L-G09RevD.01 24-Apr-2013

 --------------------
 #p B2PLYPD3/Def2QZVP
 --------------------

 --------
 acrolein
 --------
 Symbolic Z-matrix:
 Charge =  0 Multiplicity = 1

                         Standard orientation:
 ---------------------------------------------------------------------
 Center     Atomic      Atomic             Coordinates (Angstroms)
 Number     Number       Type             X           Y           Z
 ---------------------------------------------------------------------
      1          6           0        0.700068    0.391134   -0.042754
      2          8           0        1.774365   -0.165126    0.046144
      3          6           0       -0.546329   -0.416489   -0.039443
      4          6           0       -1.786506    0.097055    0.026206
      5          1           0       -0.397025   -1.509975   -0.019050
      6          1           0       -1.879428    1.242978    0.211012
      7          1           0       -2.661698   -0.464679   -0.058333
      8          1           0        0.539834    1.622485   -0.166835
 ---------------------------------------------------------------------

 SCF Done:  E(RB2PLYPD3) =  -191.597370803     A.U. after   13 cycles
 E2(B2PLYPD3) =    -0.2495090951D+00 E(B2PLYPD3) =    -0.19184687989815D+03

 The electronic state is 1-A.
 Alpha  occ. eigenvalues --  -19.73582 -10.73431 -10.65889 -10.64878  -1.20004
 Alpha  occ. eigenvalues --   -0.92010  -0.74940  -0.64792  -0.56986  -0.54887
 Alpha  occ. eigenvalues --   -0.50975  -0.46970  -0.45522  -0.34408  -0.33837
 Alpha virt. eigenvalues --   -0.02043   0.05531   0.06751   0.07834   0.09767
 Alpha virt. eigenvalues --    0.11947   0.13462   0.15524   0.16819   0.19043
 Alpha virt. eigenvalues --    0.19990   0.21818   0.25228   0.26158   0.28813

 Mulliken charges:
               1
     1  C    0.171998
     2  O   -0.334995
     3  C   -0.055959
     4  C   -0.126917
     5  H    0.105055
     6  H    0.073013
     7  H    0.112897
     8  H    0.054907
 Sum of Mulliken charges =   0.00000

 Dipole moment (field-independent basis, Debye):
    X=             -3.2739    Y=              0.7458    Z=             -0.0846  Tot=              3.3589
 Quadrupole moment (field-independent basis, Debye-Ang):
   XX=            -27.2027   YY=            -21.9865   ZZ=            -25.4801
   XY=              1.2435   XZ=             -0.3716   YZ=              0.2124

 Normal termination of Gaussian 09 at Wed Aug 26 12:16:23 2020.
