 Gaussian 09, Revision D.01,
 Gaussian 09:  ES64L-G09RevD.01 24-Apr-2013

 --------------------
 #p B2PLYPD3/Def2QZVP
 --------------------

 --------
 acrolein
 --------
 Symbolic Z-matrix:
 Charge =  0 Multiplicity = 1

                         Standard orientation:
 ---------------------------------------------------------------------
 Center     Atomic      Atomic             Coordinates (Angstroms)
 Number     Number       Type             X           Y           Z
 ---------------------------------------------------------------------
      1          6           0        0.658463    0.319629   -0.049953
      2          8           0        1.786379   -0.101679    0.063015
      3          6           0       -0.548937   -0.486598   -0.075112
      4          6           0       -1.746834    0.155056    0.051101
      5          1           0       -0.523799   -1.509015   -0.158171
      6          1           0       -1.860178    1.288400   -0.138812
      7          1           0       -2.603036   -0.398461    0.281499
      8          1           0        0.519821    1.503989   -0.044848
 ---------------------------------------------------------------------

 SCF Done:  E(RB2PLYPD3) =  -191.599127024     A.U. after   14 cycles
 E2(B2PLYPD3) =    -0.2487193156D+00 E(B2PLYPD3) =    -0.19184784633973D+03

 The electronic state is 1-A.
 Alpha  occ. eigenvalues --  -19.72546 -10.72071 -10.66563 -10.64602  -1.19424
 Alpha  occ. eigenvalues --   -0.92965  -0.75322  -0.66505  -0.56712  -0.55673
 Alpha  occ. eigenvalues --   -0.49780  -0.48564  -0.46373  -0.34016  -0.33342
 Alpha virt. eigenvalues --   -0.02270   0.05612   0.06885   0.07919   0.09566
 Alpha virt. eigenvalues --    0.12227   0.13973   0.15279   0.17446   0.19350
 Alpha virt. eigenvalues --    0.20369   0.21400   0.24306   0.26371   0.28718

 Mulliken charges:
               1
     1  C    0.156743
     2  O   -0.343780
     3  C   -0.038765
     4  C   -0.127037
     5  H    0.109530
     6  H    0.093544
     7  H    0.102759
     8  H    0.047006
 Sum of Mulliken charges =   0.00000

 Dipole moment (field-independent basis, Debye):
    X=             -3.6555    Y=              0.5249    Z=             -0.2175  Tot=              3.6993
 Quadrupole moment (field-independent basis, Debye-Ang):
   XX=            -27.4744   YY=            -21.7910   ZZ=            -25.2370
   XY=              0.8549   XZ=             -0.6748   YZ=             -0.1300

 Normal termination of Gaussian 09 at Wed Aug 26 13:39:02 2020.
