 Gaussian 09, Revision D.01,
 Gaussian 09:  ES64L-G09RevD.01 24-Apr-2013

 --------------------
 #p B2PLYPD3/Def2QZVP
 --------------------

 --------
 acrolein
 --------
 Symbolic Z-matrix:
 Charge =  0 Multiplicity = 1

                         Standard orientation:
 ---------------------------------------------------------------------
 Center     Atomic      Atomic             Coordinates (Angstroms)
 Number     Number       Type             X           Y           Z
 ---------------------------------------------------------------------
      1          6           0       -0.664212    0.370079   -0.017113
      2          8           0       -1.771288   -0.147539    0.019898
      3          6           0        0.558529   -0.411777   -0.025689
      4          6           0        1.733731    0.148353   -0.009571
      5          1           0        0.492525   -1.535887   -0.030928
      6          1           0        1.723391    1.082771   -0.008663
      7          1           0        2.678598   -0.441294    0.165696
      8          1           0       -0.492493    1.434784    0.028949
 ---------------------------------------------------------------------

 SCF Done:  E(RB2PLYPD3) =  -191.590382441     A.U. after   13 cycles
 E2(B2PLYPD3) =    -0.2469244509D+00 E(B2PLYPD3) =    -0.19183730689178D+03

 The electronic state is 1-A.
 Alpha  occ. eigenvalues --  -19.72901 -10.71545 -10.63900 -10.63584  -1.18910
 Alpha  occ. eigenvalues --   -0.94574  -0.76244  -0.67901  -0.58095  -0.56025
 Alpha  occ. eigenvalues --   -0.50437  -0.46736  -0.46420  -0.35048  -0.34159
 Alpha virt. eigenvalues --   -0.01741   0.05810   0.06893   0.08258   0.09939
 Alpha virt. eigenvalues --    0.12723   0.14063   0.15280   0.17202   0.19517
 Alpha virt. eigenvalues --    0.20632   0.22085   0.25719   0.26533   0.29007

 Mulliken charges:
               1
     1  C    0.136526
     2  O   -0.352987
     3  C   -0.008469
     4  C   -0.143587
     5  H    0.094495
     6  H    0.088759
     7  H    0.103741
     8  H    0.081522
 Sum of Mulliken charges =   0.00000

 Dipole moment (field-independent basis, Debye):
    X=              3.4607    Y=              0.9099    Z=              0.0577  Tot=              3.5787
 Quadrupole moment (field-independent basis, Debye-Ang):
   XX=            -27.5410   YY=            -21.7460   ZZ=            -24.9555
   XY=             -1.3000   XZ=              0.4786   YZ=             -0.0627

 Normal termination of Gaussian 09 at Wed Aug 26 11:37:22 2020.
