 Gaussian 09, Revision D.01,
 Gaussian 09:  ES64L-G09RevD.01 24-Apr-2013

 --------------------
 #p B2PLYPD3/Def2QZVP
 --------------------

 --------
 acrolein
 --------
 Symbolic Z-matrix:
 Charge =  0 Multiplicity = 1

                         Standard orientation:
 ---------------------------------------------------------------------
 Center     Atomic      Atomic             Coordinates (Angstroms)
 Number     Number       Type             X           Y           Z
 ---------------------------------------------------------------------
      1          6           0       -0.674450    0.365232    0.024232
      2          8           0       -1.775090   -0.140221   -0.019136
      3          6           0        0.548335   -0.430593    0.009840
      4          6           0        1.762028    0.128458   -0.024628
      5          1           0        0.384362   -1.519704    0.066302
      6          1           0        1.784920    1.187973    0.048721
      7          1           0        2.729334   -0.443816   -0.020873
      8          1           0       -0.513369    1.518730    0.002274
 ---------------------------------------------------------------------

 SCF Done:  E(RB2PLYPD3) =  -191.610942175     A.U. after   12 cycles
 E2(B2PLYPD3) =    -0.2481564357D+00 E(B2PLYPD3) =    -0.19185909861116D+03

 The electronic state is 1-A.
 Alpha  occ. eigenvalues --  -19.73051 -10.72194 -10.65775 -10.64551  -1.19683
 Alpha  occ. eigenvalues --   -0.92912  -0.75214  -0.66164  -0.56275  -0.56093
 Alpha  occ. eigenvalues --   -0.50493  -0.47093  -0.46268  -0.34580  -0.33947
 Alpha virt. eigenvalues --   -0.01946   0.05695   0.06916   0.08160   0.09877
 Alpha virt. eigenvalues --    0.12310   0.13722   0.15344   0.17226   0.19771
 Alpha virt. eigenvalues --    0.20134   0.21338   0.25502   0.26289   0.29078

 Mulliken charges:
               1
     1  C    0.160056
     2  O   -0.345486
     3  C   -0.034206
     4  C   -0.131071
     5  H    0.103306
     6  H    0.083599
     7  H    0.106253
     8  H    0.057549
 Sum of Mulliken charges =   0.00000

 Dipole moment (field-independent basis, Debye):
    X=              3.4247    Y=              0.7605    Z=              0.1508  Tot=              3.5113
 Quadrupole moment (field-independent basis, Debye-Ang):
   XX=            -27.2412   YY=            -21.9459   ZZ=            -25.3170
   XY=             -1.0759   XZ=             -0.0278   YZ=             -0.0160

 Normal termination of Gaussian 09 at Wed Aug 26 08:34:59 2020.
