 Gaussian 09, Revision D.01,
 Gaussian 09:  ES64L-G09RevD.01 24-Apr-2013

 --------------------
 #p B2PLYPD3/Def2QZVP
 --------------------

 --------
 acrolein
 --------
 Symbolic Z-matrix:
 Charge =  0 Multiplicity = 1

                         Standard orientation:
 ---------------------------------------------------------------------
 Center     Atomic      Atomic             Coordinates (Angstroms)
 Number     Number       Type             X           Y           Z
 ---------------------------------------------------------------------
      1          6           0        0.696814    0.352811   -0.007099
      2          8           0        1.772738   -0.133908    0.045044
      3          6           0       -0.500174   -0.404035   -0.085029
      4          6           0       -1.775840    0.124271    0.004166
      5          1           0       -0.451220   -1.469313   -0.049413
      6          1           0       -1.906142    1.166891    0.005682
      7          1           0       -2.870959   -0.474257    0.277526
      8          1           0        0.521615    1.409664   -0.066376
 ---------------------------------------------------------------------

 SCF Done:  E(RB2PLYPD3) =  -191.584872909     A.U. after   13 cycles
 E2(B2PLYPD3) =    -0.2480063568D+00 E(B2PLYPD3) =    -0.19183287926587D+03

 The electronic state is 1-A.
 Alpha  occ. eigenvalues --  -19.72619 -10.70644 -10.67890 -10.64388  -1.21353
 Alpha  occ. eigenvalues --   -0.92282  -0.75682  -0.67694  -0.57630  -0.55232
 Alpha  occ. eigenvalues --   -0.49686  -0.48020  -0.45486  -0.34184  -0.33695
 Alpha virt. eigenvalues --   -0.02640   0.04851   0.07283   0.08736   0.09509
 Alpha virt. eigenvalues --    0.11905   0.14226   0.15414   0.18090   0.19225
 Alpha virt. eigenvalues --    0.19827   0.20881   0.24855   0.26249   0.28308

 Mulliken charges:
               1
     1  C    0.148062
     2  O   -0.335210
     3  C   -0.032083
     4  C   -0.136137
     5  H    0.107849
     6  H    0.083083
     7  H    0.093980
     8  H    0.070456
 Sum of Mulliken charges =   0.00000

 Dipole moment (field-independent basis, Debye):
    X=             -3.4346    Y=              0.8553    Z=              0.0755  Tot=              3.5403
 Quadrupole moment (field-independent basis, Debye-Ang):
   XX=            -26.7674   YY=            -22.1974   ZZ=            -25.2706
   XY=              0.9475   XZ=             -0.9388   YZ=             -0.1489

 Normal termination of Gaussian 09 at Wed Aug 26 14:58:46 2020.
