 Gaussian 09, Revision D.01,
 Gaussian 09:  ES64L-G09RevD.01 24-Apr-2013

 --------------------
 #p B2PLYPD3/Def2QZVP
 --------------------

 --------
 acrolein
 --------
 Symbolic Z-matrix:
 Charge =  0 Multiplicity = 1

                         Standard orientation:
 ---------------------------------------------------------------------
 Center     Atomic      Atomic             Coordinates (Angstroms)
 Number     Number       Type             X           Y           Z
 ---------------------------------------------------------------------
      1          6           0       -0.663445    0.337140    0.027047
      2          8           0       -1.783889   -0.126948   -0.028344
      3          6           0        0.550493   -0.436617    0.031173
      4          6           0        1.751485    0.143733   -0.031705
      5          1           0        0.457520   -1.516118    0.057567
      6          1           0        1.735383    1.167881    0.046525
      7          1           0        2.744277   -0.408729   -0.059168
      8          1           0       -0.497268    1.507008    0.022739
 ---------------------------------------------------------------------

 SCF Done:  E(RB2PLYPD3) =  -191.607048868     A.U. after   12 cycles
 E2(B2PLYPD3) =    -0.2482138273D+00 E(B2PLYPD3) =    -0.19185526269528D+03

 The electronic state is 1-A.
 Alpha  occ. eigenvalues --  -19.72979 -10.72208 -10.65708 -10.64368  -1.19460
 Alpha  occ. eigenvalues --   -0.93658  -0.75610  -0.66476  -0.56476  -0.56210
 Alpha  occ. eigenvalues --   -0.50249  -0.47275  -0.46653  -0.34752  -0.33863
 Alpha virt. eigenvalues --   -0.02162   0.05721   0.06813   0.08383   0.09823
 Alpha virt. eigenvalues --    0.12453   0.13823   0.15270   0.17208   0.19833
 Alpha virt. eigenvalues --    0.20445   0.21214   0.25321   0.26178   0.29223

 Mulliken charges:
               1
     1  C    0.152081
     2  O   -0.345562
     3  C   -0.018369
     4  C   -0.129299
     5  H    0.101212
     6  H    0.087424
     7  H    0.105769
     8  H    0.046743
 Sum of Mulliken charges =   0.00000

 Dipole moment (field-independent basis, Debye):
    X=              3.5789    Y=              0.6463    Z=              0.1351  Tot=              3.6393
 Quadrupole moment (field-independent basis, Debye-Ang):
   XX=            -27.1425   YY=            -22.0911   ZZ=            -25.2396
   XY=             -1.0765   XZ=             -0.1842   YZ=              0.0275

 Normal termination of Gaussian 09 at Wed Aug 26 09:04:17 2020.
