 Gaussian 09, Revision D.01,
 Gaussian 09:  ES64L-G09RevD.01 24-Apr-2013

 --------------------
 #p B2PLYPD3/Def2QZVP
 --------------------

 --------
 acrolein
 --------
 Symbolic Z-matrix:
 Charge =  0 Multiplicity = 1

                         Standard orientation:
 ---------------------------------------------------------------------
 Center     Atomic      Atomic             Coordinates (Angstroms)
 Number     Number       Type             X           Y           Z
 ---------------------------------------------------------------------
      1          6           0        0.654508    0.331399    0.021268
      2          8           0        1.799916   -0.111530   -0.019673
      3          6           0       -0.562767   -0.463660   -0.008812
      4          6           0       -1.736673    0.153614   -0.017864
      5          1           0       -0.491750   -1.495280    0.115263
      6          1           0       -1.813700    1.243511   -0.004598
      7          1           0       -2.715014   -0.424592    0.002071
      8          1           0        0.490731    1.440478    0.077097
 ---------------------------------------------------------------------

 SCF Done:  E(RB2PLYPD3) =  -191.611240796     A.U. after   13 cycles
 E2(B2PLYPD3) =    -0.2482066780D+00 E(B2PLYPD3) =    -0.19185944747393D+03

 The electronic state is 1-A.
 Alpha  occ. eigenvalues --  -19.72743 -10.71810 -10.66274 -10.64080  -1.18352
 Alpha  occ. eigenvalues --   -0.93696  -0.75191  -0.67407  -0.56411  -0.56084
 Alpha  occ. eigenvalues --   -0.50153  -0.47157  -0.46097  -0.34907  -0.33808
 Alpha virt. eigenvalues --   -0.02014   0.05574   0.06963   0.08049   0.09651
 Alpha virt. eigenvalues --    0.12485   0.13828   0.15144   0.17790   0.19732
 Alpha virt. eigenvalues --    0.19984   0.21178   0.25239   0.26483   0.29008

 Mulliken charges:
               1
     1  C    0.149965
     2  O   -0.357790
     3  C   -0.029314
     4  C   -0.121992
     5  H    0.109573
     6  H    0.087141
     7  H    0.095205
     8  H    0.067213
 Sum of Mulliken charges =   0.00000

 Dipole moment (field-independent basis, Debye):
    X=             -3.6784    Y=              0.6995    Z=              0.1997  Tot=              3.7496
 Quadrupole moment (field-independent basis, Debye-Ang):
   XX=            -27.6379   YY=            -21.7603   ZZ=            -25.2194
   XY=              0.8775   XZ=              0.0209   YZ=             -0.1493

 Normal termination of Gaussian 09 at Wed Aug 26 21:19:04 2020.
