 Gaussian 09, Revision D.01,
 Gaussian 09:  ES64L-G09RevD.01 24-Apr-2013

 --------------------
 #p B2PLYPD3/Def2QZVP
 --------------------

 --------
 acrolein
 --------
 Symbolic Z-matrix:
 Charge =  0 Multiplicity = 1

                         Standard orientation:
 ---------------------------------------------------------------------
 Center     Atomic      Atomic             Coordinates (Angstroms)
 Number     Number       Type             X           Y           Z
 ---------------------------------------------------------------------
      1          6           0        0.664952    0.354643    0.012041
      2          8           0        1.779548   -0.128205   -0.035906
      3          6           0       -0.553043   -0.435237    0.058730
      4          6           0       -1.742086    0.131591   -0.042484
      5          1           0       -0.428680   -1.499550    0.070028
      6          1           0       -1.843147    1.184882    0.031618
      7          1           0       -2.709891   -0.413470   -0.090811
      8          1           0        0.526391    1.447799    0.106688
 ---------------------------------------------------------------------

 SCF Done:  E(RB2PLYPD3) =  -191.614264644     A.U. after   12 cycles
 E2(B2PLYPD3) =    -0.2471016479D+00 E(B2PLYPD3) =    -0.19186136629216D+03

 The electronic state is 1-A.
 Alpha  occ. eigenvalues --  -19.72741 -10.71487 -10.65432 -10.64051  -1.19228
 Alpha  occ. eigenvalues --   -0.93500  -0.75643  -0.67290  -0.56957  -0.56256
 Alpha  occ. eigenvalues --   -0.50606  -0.47038  -0.46277  -0.34850  -0.33886
 Alpha virt. eigenvalues --   -0.01820   0.05709   0.07147   0.08269   0.09751
 Alpha virt. eigenvalues --    0.12487   0.14101   0.15307   0.17534   0.19793
 Alpha virt. eigenvalues --    0.20134   0.21437   0.25312   0.26382   0.28756

 Mulliken charges:
               1
     1  C    0.155441
     2  O   -0.352944
     3  C   -0.036100
     4  C   -0.123988
     5  H    0.107884
     6  H    0.082065
     7  H    0.096504
     8  H    0.071137
 Sum of Mulliken charges =   0.00000

 Dipole moment (field-independent basis, Debye):
    X=             -3.5310    Y=              0.7939    Z=              0.1388  Tot=              3.6218
 Quadrupole moment (field-independent basis, Debye-Ang):
   XX=            -27.2695   YY=            -21.8635   ZZ=            -25.1232
   XY=              0.9215   XZ=              0.3293   YZ=              0.0677

 Normal termination of Gaussian 09 at Wed Aug 26 09:00:39 2020.
