 Gaussian 09, Revision D.01,
 Gaussian 09:  ES64L-G09RevD.01 24-Apr-2013

 --------------------
 #p B2PLYPD3/Def2QZVP
 --------------------

 --------
 acrolein
 --------
 Symbolic Z-matrix:
 Charge =  0 Multiplicity = 1

                         Standard orientation:
 ---------------------------------------------------------------------
 Center     Atomic      Atomic             Coordinates (Angstroms)
 Number     Number       Type             X           Y           Z
 ---------------------------------------------------------------------
      1          6           0       -0.652561    0.329823   -0.025202
      2          8           0       -1.792565   -0.101319    0.034425
      3          6           0        0.568096   -0.444606   -0.027193
      4          6           0        1.756720    0.143570    0.009879
      5          1           0        0.414538   -1.554525   -0.097712
      6          1           0        1.808990    1.226650    0.005512
      7          1           0        2.578987   -0.408338    0.146273
      8          1           0       -0.495528    1.374051   -0.074379
 ---------------------------------------------------------------------

 SCF Done:  E(RB2PLYPD3) =  -191.607699585     A.U. after   13 cycles
 E2(B2PLYPD3) =    -0.2470418720D+00 E(B2PLYPD3) =    -0.19185474145739D+03

 The electronic state is 1-A.
 Alpha  occ. eigenvalues --  -19.72609 -10.70803 -10.64846 -10.64571  -1.18769
 Alpha  occ. eigenvalues --   -0.93878  -0.76951  -0.67151  -0.57493  -0.56625
 Alpha  occ. eigenvalues --   -0.50766  -0.47321  -0.46162  -0.34873  -0.33802
 Alpha virt. eigenvalues --   -0.02115   0.05850   0.07113   0.08414   0.09764
 Alpha virt. eigenvalues --    0.12774   0.13986   0.15266   0.17322   0.19816
 Alpha virt. eigenvalues --    0.19856   0.22215   0.25402   0.26729   0.28764

 Mulliken charges:
               1
     1  C    0.155203
     2  O   -0.359179
     3  C   -0.024007
     4  C   -0.131883
     5  H    0.095652
     6  H    0.086098
     7  H    0.109903
     8  H    0.068212
 Sum of Mulliken charges =   0.00000

 Dipole moment (field-independent basis, Debye):
    X=              3.6372    Y=              0.7176    Z=             -0.0855  Tot=              3.7083
 Quadrupole moment (field-independent basis, Debye-Ang):
   XX=            -27.6265   YY=            -21.7293   ZZ=            -25.0336
   XY=             -0.7922   XZ=              0.5007   YZ=              0.0252

 Normal termination of Gaussian 09 at Wed Aug 26 09:08:41 2020.
