 Gaussian 09, Revision D.01,
 Gaussian 09:  ES64L-G09RevD.01 24-Apr-2013

 --------------------
 #p B2PLYPD3/Def2QZVP
 --------------------

 --------
 acrolein
 --------
 Symbolic Z-matrix:
 Charge =  0 Multiplicity = 1

                         Standard orientation:
 ---------------------------------------------------------------------
 Center     Atomic      Atomic             Coordinates (Angstroms)
 Number     Number       Type             X           Y           Z
 ---------------------------------------------------------------------
      1          6           0        0.678926    0.359582    0.012503
      2          8           0        1.789372   -0.121777   -0.000677
      3          6           0       -0.569773   -0.451714   -0.034247
      4          6           0       -1.756735    0.140609   -0.013188
      5          1           0       -0.436031   -1.550860    0.079725
      6          1           0       -1.872775    1.218154    0.013571
      7          1           0       -2.624244   -0.418741    0.095411
      8          1           0        0.503568    1.434801    0.026301
 ---------------------------------------------------------------------

 SCF Done:  E(RB2PLYPD3) =  -191.613733283     A.U. after   13 cycles
 E2(B2PLYPD3) =    -0.2469224874D+00 E(B2PLYPD3) =    -0.19186065577070D+03

 The electronic state is 1-A.
 Alpha  occ. eigenvalues --  -19.72936 -10.71608 -10.64785 -10.64598  -1.19578
 Alpha  occ. eigenvalues --   -0.92879  -0.75595  -0.66887  -0.56725  -0.56407
 Alpha  occ. eigenvalues --   -0.50898  -0.46934  -0.46459  -0.34735  -0.33850
 Alpha virt. eigenvalues --   -0.01559   0.05827   0.07130   0.08007   0.09724
 Alpha virt. eigenvalues --    0.12700   0.14049   0.15308   0.17433   0.19764
 Alpha virt. eigenvalues --    0.19873   0.22076   0.25214   0.26654   0.28441

 Mulliken charges:
               1
     1  C    0.158596
     2  O   -0.346497
     3  C   -0.044731
     4  C   -0.128649
     5  H    0.101545
     6  H    0.081633
     7  H    0.101509
     8  H    0.076594
 Sum of Mulliken charges =   0.00000

 Dipole moment (field-independent basis, Debye):
    X=             -3.4165    Y=              0.8145    Z=              0.1942  Tot=              3.5176
 Quadrupole moment (field-independent basis, Debye-Ang):
   XX=            -27.5394   YY=            -21.6636   ZZ=            -25.1725
   XY=              0.8332   XZ=             -0.3141   YZ=             -0.1618

 Normal termination of Gaussian 09 at Wed Aug 26 10:10:14 2020.
