 Gaussian 09, Revision D.01,
 Gaussian 09:  ES64L-G09RevD.01 24-Apr-2013

 --------------------
 #p B2PLYPD3/Def2QZVP
 --------------------

 --------
 acrolein
 --------
 Symbolic Z-matrix:
 Charge =  0 Multiplicity = 1

                         Standard orientation:
 ---------------------------------------------------------------------
 Center     Atomic      Atomic             Coordinates (Angstroms)
 Number     Number       Type             X           Y           Z
 ---------------------------------------------------------------------
      1          6           0        0.670529    0.355332    0.004724
      2          8           0        1.780138   -0.124267   -0.012196
      3          6           0       -0.556634   -0.442770    0.020924
      4          6           0       -1.754297    0.140862   -0.004410
      5          1           0       -0.405041   -1.542155   -0.002257
      6          1           0       -1.807326    1.195107   -0.032584
      7          1           0       -2.720039   -0.410182   -0.035551
      8          1           0        0.533723    1.430820    0.040534
 ---------------------------------------------------------------------

 SCF Done:  E(RB2PLYPD3) =  -191.615169279     A.U. after   12 cycles
 E2(B2PLYPD3) =    -0.2469886794D+00 E(B2PLYPD3) =    -0.19186215795858D+03

 The electronic state is 1-A.
 Alpha  occ. eigenvalues --  -19.72709 -10.71257 -10.65514 -10.64574  -1.19611
 Alpha  occ. eigenvalues --   -0.92993  -0.75467  -0.67142  -0.56857  -0.56136
 Alpha  occ. eigenvalues --   -0.50583  -0.46853  -0.46527  -0.34662  -0.33897
 Alpha virt. eigenvalues --   -0.01729   0.05738   0.07142   0.08238   0.09768
 Alpha virt. eigenvalues --    0.12516   0.14072   0.15368   0.17338   0.19809
 Alpha virt. eigenvalues --    0.20067   0.21457   0.25565   0.26469   0.28983

 Mulliken charges:
               1
     1  C    0.155112
     2  O   -0.350192
     3  C   -0.036736
     4  C   -0.131982
     5  H    0.103761
     6  H    0.084298
     7  H    0.102547
     8  H    0.073191
 Sum of Mulliken charges =   0.00000

 Dipole moment (field-independent basis, Debye):
    X=             -3.4593    Y=              0.8138    Z=             -0.0155  Tot=              3.5538
 Quadrupole moment (field-independent basis, Debye-Ang):
   XX=            -27.3370   YY=            -21.7763   ZZ=            -25.2092
   XY=              0.9414   XZ=              0.2116   YZ=              0.0107

 Normal termination of Gaussian 09 at Wed Aug 26 20:08:51 2020.
