 Gaussian 09, Revision D.01,
 Gaussian 09:  ES64L-G09RevD.01 24-Apr-2013

 --------------------
 #p B2PLYPD3/Def2QZVP
 --------------------

 --------
 acrolein
 --------
 Symbolic Z-matrix:
 Charge =  0 Multiplicity = 1

                         Standard orientation:
 ---------------------------------------------------------------------
 Center     Atomic      Atomic             Coordinates (Angstroms)
 Number     Number       Type             X           Y           Z
 ---------------------------------------------------------------------
      1          6           0        0.676998   -0.349731    0.075972
      2          8           0        1.766774    0.115614   -0.054719
      3          6           0       -0.566251    0.456259    0.041093
      4          6           0       -1.770186   -0.166521   -0.041787
      5          1           0       -0.416060    1.657972    0.053010
      6          1           0       -1.786163   -1.218831   -0.003065
      7          1           0       -2.551553    0.428627   -0.068411
      8          1           0        0.576216   -1.432719    0.004551
 ---------------------------------------------------------------------

 SCF Done:  E(RB2PLYPD3) =  -191.594867441     A.U. after   12 cycles
 E2(B2PLYPD3) =    -0.2470569161D+00 E(B2PLYPD3) =    -0.19184192435727D+03

 The electronic state is 1-A.
 Alpha  occ. eigenvalues --  -19.72608 -10.71107 -10.65807 -10.64283  -1.20608
 Alpha  occ. eigenvalues --   -0.92444  -0.75825  -0.66087  -0.57739  -0.56215
 Alpha  occ. eigenvalues --   -0.50623  -0.47237  -0.46513  -0.34273  -0.33551
 Alpha virt. eigenvalues --   -0.01598   0.06058   0.06662   0.07995   0.09763
 Alpha virt. eigenvalues --    0.12618   0.14101   0.15354   0.16830   0.19771
 Alpha virt. eigenvalues --    0.20171   0.22328   0.25008   0.26295   0.29081

 Mulliken charges:
               1
     1  C    0.158759
     2  O   -0.335254
     3  C   -0.044391
     4  C   -0.142013
     5  H    0.090383
     6  H    0.094886
     7  H    0.112658
     8  H    0.064972
 Sum of Mulliken charges =   0.00000

 Dipole moment (field-independent basis, Debye):
    X=             -3.2680    Y=             -0.7698    Z=              0.1887  Tot=              3.3627
 Quadrupole moment (field-independent basis, Debye-Ang):
   XX=            -27.6235   YY=            -21.4576   ZZ=            -25.2781
   XY=             -1.0049   XZ=              0.4046   YZ=              0.0257

 Normal termination of Gaussian 09 at Wed Aug 26 11:12:02 2020.
