 Gaussian 09, Revision D.01,
 Gaussian 09:  ES64L-G09RevD.01 24-Apr-2013

 --------------------
 #p B2PLYPD3/Def2QZVP
 --------------------

 --------
 acrolein
 --------
 Symbolic Z-matrix:
 Charge =  0 Multiplicity = 1

                         Standard orientation:
 ---------------------------------------------------------------------
 Center     Atomic      Atomic             Coordinates (Angstroms)
 Number     Number       Type             X           Y           Z
 ---------------------------------------------------------------------
      1          6           0       -0.682015    0.358337    0.021775
      2          8           0       -1.780447   -0.131679   -0.012136
      3          6           0        0.547737   -0.444702    0.001774
      4          6           0        1.759085    0.130690   -0.013984
      5          1           0        0.470888   -1.471907    0.016302
      6          1           0        1.831554    1.223341   -0.015336
      7          1           0        2.693939   -0.423993    0.030621
      8          1           0       -0.501647    1.460038    0.008108
 ---------------------------------------------------------------------

 SCF Done:  E(RB2PLYPD3) =  -191.614565161     A.U. after   13 cycles
 E2(B2PLYPD3) =    -0.2468818643D+00 E(B2PLYPD3) =    -0.19186144702521D+03

 The electronic state is 1-A.
 Alpha  occ. eigenvalues --  -19.72916 -10.71691 -10.65611 -10.63782  -1.20085
 Alpha  occ. eigenvalues --   -0.92813  -0.75254  -0.67484  -0.56532  -0.56454
 Alpha  occ. eigenvalues --   -0.50796  -0.47095  -0.47021  -0.34491  -0.33918
 Alpha virt. eigenvalues --   -0.01733   0.05740   0.07367   0.08192   0.09747
 Alpha virt. eigenvalues --    0.12500   0.14000   0.15431   0.17867   0.19705
 Alpha virt. eigenvalues --    0.19895   0.21391   0.25575   0.26350   0.28861

 Mulliken charges:
               1
     1  C    0.154456
     2  O   -0.342267
     3  C   -0.041652
     4  C   -0.131472
     5  H    0.109567
     6  H    0.077986
     7  H    0.101346
     8  H    0.072037
 Sum of Mulliken charges =   0.00000

 Dipole moment (field-independent basis, Debye):
    X=              3.4103    Y=              0.7661    Z=              0.0846  Tot=              3.4963
 Quadrupole moment (field-independent basis, Debye-Ang):
   XX=            -27.2638   YY=            -21.8275   ZZ=            -25.1986
   XY=             -1.0597   XZ=              0.0142   YZ=             -0.0551

 Normal termination of Gaussian 09 at Wed Aug 26 07:43:38 2020.
