 Gaussian 09, Revision D.01,
 Gaussian 09:  ES64L-G09RevD.01 24-Apr-2013

 --------------------
 #p B2PLYPD3/Def2QZVP
 --------------------

 --------
 acrolein
 --------
 Symbolic Z-matrix:
 Charge =  0 Multiplicity = 1

                         Standard orientation:
 ---------------------------------------------------------------------
 Center     Atomic      Atomic             Coordinates (Angstroms)
 Number     Number       Type             X           Y           Z
 ---------------------------------------------------------------------
      1          6           0        0.675883    0.343858   -0.020712
      2          8           0        1.788348   -0.116181    0.020713
      3          6           0       -0.565620   -0.458230   -0.024486
      4          6           0       -1.757331    0.143686    0.003516
      5          1           0       -0.465931   -1.494948   -0.008009
      6          1           0       -1.833257    1.241939    0.024075
      7          1           0       -2.634618   -0.411927    0.080397
      8          1           0        0.509429    1.418499   -0.012072
 ---------------------------------------------------------------------

 SCF Done:  E(RB2PLYPD3) =  -191.615188851     A.U. after   12 cycles
 E2(B2PLYPD3) =    -0.2464074046D+00 E(B2PLYPD3) =    -0.19186159625542D+03

 The electronic state is 1-A.
 Alpha  occ. eigenvalues --  -19.72781 -10.71313 -10.65161 -10.63961  -1.19850
 Alpha  occ. eigenvalues --   -0.93029  -0.75612  -0.67619  -0.56930  -0.56428
 Alpha  occ. eigenvalues --   -0.50880  -0.47482  -0.46891  -0.34639  -0.33800
 Alpha virt. eigenvalues --   -0.01606   0.05814   0.07412   0.08196   0.09737
 Alpha virt. eigenvalues --    0.12683   0.14046   0.15386   0.17761   0.19678
 Alpha virt. eigenvalues --    0.19938   0.21741   0.25405   0.26577   0.28715

 Mulliken charges:
               1
     1  C    0.155379
     2  O   -0.346161
     3  C   -0.042972
     4  C   -0.131733
     5  H    0.107087
     6  H    0.082983
     7  H    0.102883
     8  H    0.072535
 Sum of Mulliken charges =   0.00000

 Dipole moment (field-independent basis, Debye):
    X=             -3.4482    Y=              0.7313    Z=              0.0116  Tot=              3.5250
 Quadrupole moment (field-independent basis, Debye-Ang):
   XX=            -27.4667   YY=            -21.7024   ZZ=            -25.1251
   XY=              0.9297   XZ=             -0.3401   YZ=             -0.0187

 Normal termination of Gaussian 09 at Wed Aug 26 16:10:11 2020.
