 Gaussian 09, Revision D.01,
 Gaussian 09:  ES64L-G09RevD.01 24-Apr-2013

 --------------------
 #p B2PLYPD3/Def2QZVP
 --------------------

 --------
 acrolein
 --------
 Symbolic Z-matrix:
 Charge =  0 Multiplicity = 1

                         Standard orientation:
 ---------------------------------------------------------------------
 Center     Atomic      Atomic             Coordinates (Angstroms)
 Number     Number       Type             X           Y           Z
 ---------------------------------------------------------------------
      1          6           0       -0.669755    0.357021   -0.023014
      2          8           0       -1.795686   -0.125801    0.023696
      3          6           0        0.568006   -0.446008   -0.024101
      4          6           0        1.753409    0.138927    0.018608
      5          1           0        0.436865   -1.541250   -0.054655
      6          1           0        1.855000    1.203936   -0.033954
      7          1           0        2.667504   -0.425052    0.080872
      8          1           0       -0.503841    1.469126   -0.010783
 ---------------------------------------------------------------------

 SCF Done:  E(RB2PLYPD3) =  -191.615056932     A.U. after   13 cycles
 E2(B2PLYPD3) =    -0.2478864532D+00 E(B2PLYPD3) =    -0.19186294338499D+03

 The electronic state is 1-A.
 Alpha  occ. eigenvalues --  -19.72976 -10.72081 -10.65182 -10.64619  -1.18670
 Alpha  occ. eigenvalues --   -0.93217  -0.75516  -0.66662  -0.56561  -0.56288
 Alpha  occ. eigenvalues --   -0.50468  -0.46856  -0.46213  -0.34831  -0.33911
 Alpha virt. eigenvalues --   -0.01837   0.05734   0.07034   0.07990   0.09740
 Alpha virt. eigenvalues --    0.12541   0.13961   0.15310   0.17246   0.19840
 Alpha virt. eigenvalues --    0.20042   0.21720   0.25371   0.26465   0.28651

 Mulliken charges:
               1
     1  C    0.158073
     2  O   -0.354575
     3  C   -0.036544
     4  C   -0.129214
     5  H    0.104153
     6  H    0.085169
     7  H    0.101983
     8  H    0.070957
 Sum of Mulliken charges =   0.00000

 Dipole moment (field-independent basis, Debye):
    X=              3.5481    Y=              0.7857    Z=             -0.0901  Tot=              3.6352
 Quadrupole moment (field-independent basis, Debye-Ang):
   XX=            -27.5291   YY=            -21.7244   ZZ=            -25.2360
   XY=             -0.8827   XZ=              0.2268   YZ=             -0.0234

 Normal termination of Gaussian 09 at Wed Aug 26 18:39:39 2020.
