 Gaussian 09, Revision D.01,
 Gaussian 09:  ES64L-G09RevD.01 24-Apr-2013

 --------------------
 #p B2PLYPD3/Def2QZVP
 --------------------

 --------
 acrolein
 --------
 Symbolic Z-matrix:
 Charge =  0 Multiplicity = 1

                         Standard orientation:
 ---------------------------------------------------------------------
 Center     Atomic      Atomic             Coordinates (Angstroms)
 Number     Number       Type             X           Y           Z
 ---------------------------------------------------------------------
      1          6           0        0.677797    0.358265   -0.011895
      2          8           0        1.774848   -0.132110    0.011256
      3          6           0       -0.559217   -0.445261   -0.012250
      4          6           0       -1.754225    0.139818    0.011975
      5          1           0       -0.452876   -1.503748    0.009883
      6          1           0       -1.806386    1.175768    0.049764
      7          1           0       -2.654534   -0.400366   -0.034053
      8          1           0        0.528888    1.468288   -0.042627
 ---------------------------------------------------------------------

 SCF Done:  E(RB2PLYPD3) =  -191.615508828     A.U. after   12 cycles
 E2(B2PLYPD3) =    -0.2462231840D+00 E(B2PLYPD3) =    -0.19186173201206D+03

 The electronic state is 1-A.
 Alpha  occ. eigenvalues --  -19.72842 -10.71645 -10.64420 -10.63998  -1.20117
 Alpha  occ. eigenvalues --   -0.93105  -0.75577  -0.67272  -0.57013  -0.56696
 Alpha  occ. eigenvalues --   -0.50865  -0.47491  -0.47046  -0.34630  -0.33809
 Alpha virt. eigenvalues --   -0.01508   0.05913   0.07312   0.08222   0.09842
 Alpha virt. eigenvalues --    0.12693   0.14073   0.15427   0.17484   0.19834
 Alpha virt. eigenvalues --    0.20138   0.21830   0.25624   0.26344   0.28894

 Mulliken charges:
               1
     1  C    0.152075
     2  O   -0.342139
     3  C   -0.038995
     4  C   -0.133103
     5  H    0.106290
     6  H    0.083296
     7  H    0.102390
     8  H    0.070186
 Sum of Mulliken charges =   0.00000

 Dipole moment (field-independent basis, Debye):
    X=             -3.3809    Y=              0.7821    Z=             -0.0298  Tot=              3.4703
 Quadrupole moment (field-independent basis, Debye-Ang):
   XX=            -27.2769   YY=            -21.7687   ZZ=            -25.1021
   XY=              1.0283   XZ=             -0.0546   YZ=              0.0392

 Normal termination of Gaussian 09 at Wed Aug 26 13:58:39 2020.
