 Gaussian 09, Revision D.01,
 Gaussian 09:  ES64L-G09RevD.01 24-Apr-2013

 --------------------
 #p B2PLYPD3/Def2QZVP
 --------------------

 --------
 acrolein
 --------
 Symbolic Z-matrix:
 Charge =  0 Multiplicity = 1

                         Standard orientation:
 ---------------------------------------------------------------------
 Center     Atomic      Atomic             Coordinates (Angstroms)
 Number     Number       Type             X           Y           Z
 ---------------------------------------------------------------------
      1          6           0        0.677410    0.359067    0.033431
      2          8           0        1.791885   -0.143886   -0.021833
      3          6           0       -0.558501   -0.428617    0.001916
      4          6           0       -1.756159    0.134300   -0.015767
      5          1           0       -0.462192   -1.509305    0.050496
      6          1           0       -1.767297    1.140535   -0.037953
      7          1           0       -2.773945   -0.411426    0.014793
      8          1           0        0.491851    1.542786    0.029857
 ---------------------------------------------------------------------

 SCF Done:  E(RB2PLYPD3) =  -191.601731146     A.U. after   13 cycles
 E2(B2PLYPD3) =    -0.2487037771D+00 E(B2PLYPD3) =    -0.19185043492281D+03

 The electronic state is 1-A.
 Alpha  occ. eigenvalues --  -19.73355 -10.72952 -10.65284 -10.64375  -1.19092
 Alpha  occ. eigenvalues --   -0.93485  -0.75264  -0.66500  -0.56279  -0.56085
 Alpha  occ. eigenvalues --   -0.50305  -0.46747  -0.46472  -0.34898  -0.34025
 Alpha virt. eigenvalues --   -0.02025   0.05634   0.06794   0.08090   0.09800
 Alpha virt. eigenvalues --    0.12308   0.13756   0.15303   0.17222   0.19831
 Alpha virt. eigenvalues --    0.20221   0.21379   0.25554   0.26018   0.29091

 Mulliken charges:
               1
     1  C    0.155433
     2  O   -0.346038
     3  C   -0.024627
     4  C   -0.129041
     5  H    0.102754
     6  H    0.084454
     7  H    0.102672
     8  H    0.054394
 Sum of Mulliken charges =   0.00000

 Dipole moment (field-independent basis, Debye):
    X=             -3.5101    Y=              0.7586    Z=              0.1193  Tot=              3.5931
 Quadrupole moment (field-independent basis, Debye-Ang):
   XX=            -27.1717   YY=            -22.0722   ZZ=            -25.2907
   XY=              1.0821   XZ=              0.0789   YZ=             -0.1145

 Normal termination of Gaussian 09 at Wed Aug 26 08:48:53 2020.
