 Gaussian 09, Revision D.01,
 Gaussian 09:  ES64L-G09RevD.01 24-Apr-2013

 --------------------
 #p B2PLYPD3/Def2QZVP
 --------------------

 --------
 acrolein
 --------
 Symbolic Z-matrix:
 Charge =  0 Multiplicity = 1

                         Standard orientation:
 ---------------------------------------------------------------------
 Center     Atomic      Atomic             Coordinates (Angstroms)
 Number     Number       Type             X           Y           Z
 ---------------------------------------------------------------------
      1          6           0        0.682044    0.380510    0.017170
      2          8           0        1.779223   -0.149596   -0.007310
      3          6           0       -0.555711   -0.429289    0.003865
      4          6           0       -1.769840    0.129827   -0.020217
      5          1           0       -0.450784   -1.536366   -0.017726
      6          1           0       -1.803194    1.194619   -0.024055
      7          1           0       -2.666884   -0.436780    0.084495
      8          1           0        0.548126    1.489012    0.010855
 ---------------------------------------------------------------------

 SCF Done:  E(RB2PLYPD3) =  -191.613532199     A.U. after   13 cycles
 E2(B2PLYPD3) =    -0.2478055803D+00 E(B2PLYPD3) =    -0.19186133777940D+03

 The electronic state is 1-A.
 Alpha  occ. eigenvalues --  -19.72987 -10.72097 -10.64946 -10.64620  -1.19220
 Alpha  occ. eigenvalues --   -0.92673  -0.75364  -0.66666  -0.56720  -0.56266
 Alpha  occ. eigenvalues --   -0.50629  -0.46659  -0.46338  -0.34516  -0.33978
 Alpha virt. eigenvalues --   -0.01858   0.05809   0.07043   0.07951   0.09831
 Alpha virt. eigenvalues --    0.12410   0.13997   0.15418   0.17274   0.19754
 Alpha virt. eigenvalues --    0.19834   0.21830   0.25538   0.26241   0.29062

 Mulliken charges:
               1
     1  C    0.153247
     2  O   -0.347426
     3  C   -0.041860
     4  C   -0.132058
     5  H    0.103006
     6  H    0.078524
     7  H    0.106784
     8  H    0.079782
 Sum of Mulliken charges =   0.00000

 Dipole moment (field-independent basis, Debye):
    X=             -3.3801    Y=              0.8874    Z=              0.0793  Tot=              3.4956
 Quadrupole moment (field-independent basis, Debye-Ang):
   XX=            -27.4874   YY=            -21.6622   ZZ=            -25.2800
   XY=              1.2939   XZ=             -0.1435   YZ=             -0.0410

 Normal termination of Gaussian 09 at Wed Aug 26 08:45:16 2020.
