 Gaussian 09, Revision D.01,
 Gaussian 09:  ES64L-G09RevD.01 24-Apr-2013

 --------------------
 #p B2PLYPD3/Def2QZVP
 --------------------

 --------
 acrolein
 --------
 Symbolic Z-matrix:
 Charge =  0 Multiplicity = 1

                         Standard orientation:
 ---------------------------------------------------------------------
 Center     Atomic      Atomic             Coordinates (Angstroms)
 Number     Number       Type             X           Y           Z
 ---------------------------------------------------------------------
      1          6           0        0.676568    0.367600   -0.021418
      2          8           0        1.772643   -0.135069    0.023653
      3          6           0       -0.564897   -0.450779   -0.017876
      4          6           0       -1.743412    0.144261    0.003152
      5          1           0       -0.454708   -1.532012    0.003822
      6          1           0       -1.850209    1.190324    0.140835
      7          1           0       -2.659256   -0.403572   -0.016493
      8          1           0        0.573482    1.459320   -0.100539
 ---------------------------------------------------------------------

 SCF Done:  E(RB2PLYPD3) =  -191.615667465     A.U. after   13 cycles
 E2(B2PLYPD3) =    -0.2463288330D+00 E(B2PLYPD3) =    -0.19186199629834D+03

 The electronic state is 1-A.
 Alpha  occ. eigenvalues --  -19.72693 -10.71531 -10.64564 -10.64275  -1.19752
 Alpha  occ. eigenvalues --   -0.92951  -0.75105  -0.67218  -0.56985  -0.56423
 Alpha  occ. eigenvalues --   -0.50665  -0.47061  -0.46643  -0.34704  -0.33742
 Alpha virt. eigenvalues --   -0.01293   0.05854   0.07249   0.07936   0.09761
 Alpha virt. eigenvalues --    0.12618   0.14193   0.15437   0.17378   0.19612
 Alpha virt. eigenvalues --    0.20280   0.21761   0.25353   0.26353   0.28654

 Mulliken charges:
               1
     1  C    0.152925
     2  O   -0.345077
     3  C   -0.050997
     4  C   -0.126751
     5  H    0.108716
     6  H    0.083055
     7  H    0.096328
     8  H    0.081800
 Sum of Mulliken charges =   0.00000

 Dipole moment (field-independent basis, Debye):
    X=             -3.3537    Y=              0.8448    Z=             -0.0007  Tot=              3.4585
 Quadrupole moment (field-independent basis, Debye-Ang):
   XX=            -27.4319   YY=            -21.6015   ZZ=            -25.1267
   XY=              1.0393   XZ=             -0.3206   YZ=              0.1172

 Normal termination of Gaussian 09 at Wed Aug 26 09:07:31 2020.
