 Gaussian 09, Revision D.01,
 Gaussian 09:  ES64L-G09RevD.01 24-Apr-2013

 --------------------
 #p B2PLYPD3/Def2QZVP
 --------------------

 --------
 acrolein
 --------
 Symbolic Z-matrix:
 Charge =  0 Multiplicity = 1

                         Standard orientation:
 ---------------------------------------------------------------------
 Center     Atomic      Atomic             Coordinates (Angstroms)
 Number     Number       Type             X           Y           Z
 ---------------------------------------------------------------------
      1          6           0        0.668104    0.316470   -0.056506
      2          8           0        1.784007   -0.100807    0.045166
      3          6           0       -0.572684   -0.459742   -0.040417
      4          6           0       -1.748149    0.163664    0.018318
      5          1           0       -0.444510   -1.532784   -0.019149
      6          1           0       -1.794089    1.218822    0.045224
      7          1           0       -2.669330   -0.391486    0.105145
      8          1           0        0.552249    1.389557   -0.020918
 ---------------------------------------------------------------------

 SCF Done:  E(RB2PLYPD3) =  -191.615142929     A.U. after   12 cycles
 E2(B2PLYPD3) =    -0.2459715789D+00 E(B2PLYPD3) =    -0.19186111450778D+03

 The electronic state is 1-A.
 Alpha  occ. eigenvalues --  -19.72525 -10.70779 -10.65258 -10.64383  -1.20273
 Alpha  occ. eigenvalues --   -0.93293  -0.75640  -0.67364  -0.57088  -0.56557
 Alpha  occ. eigenvalues --   -0.50680  -0.47466  -0.47163  -0.34840  -0.33514
 Alpha virt. eigenvalues --   -0.01590   0.05869   0.07267   0.08457   0.09763
 Alpha virt. eigenvalues --    0.12755   0.14094   0.15330   0.17547   0.19885
 Alpha virt. eigenvalues --    0.20031   0.21610   0.25302   0.26568   0.28904

 Mulliken charges:
               1
     1  C    0.154561
     2  O   -0.343285
     3  C   -0.032153
     4  C   -0.132889
     5  H    0.101633
     6  H    0.090928
     7  H    0.102875
     8  H    0.058331
 Sum of Mulliken charges =   0.00000

 Dipole moment (field-independent basis, Debye):
    X=             -3.4712    Y=              0.6653    Z=             -0.0577  Tot=              3.5348
 Quadrupole moment (field-independent basis, Debye-Ang):
   XX=            -27.3498   YY=            -21.8098   ZZ=            -25.0815
   XY=              0.8165   XZ=             -0.5393   YZ=              0.0199

 Normal termination of Gaussian 09 at Wed Aug 26 10:15:16 2020.
