 Gaussian 09, Revision D.01,
 Gaussian 09:  ES64L-G09RevD.01 24-Apr-2013

 --------------------
 #p B2PLYPD3/Def2QZVP
 --------------------

 --------
 acrolein
 --------
 Symbolic Z-matrix:
 Charge =  0 Multiplicity = 1

                         Standard orientation:
 ---------------------------------------------------------------------
 Center     Atomic      Atomic             Coordinates (Angstroms)
 Number     Number       Type             X           Y           Z
 ---------------------------------------------------------------------
      1          6           0       -0.668865    0.368800   -0.026577
      2          8           0       -1.777420   -0.141724    0.030921
      3          6           0        0.554165   -0.425652   -0.030242
      4          6           0        1.750250    0.127390    0.006651
      5          1           0        0.460308   -1.512156    0.016011
      6          1           0        1.797889    1.242826    0.171365
      7          1           0        2.692107   -0.451975   -0.007577
      8          1           0       -0.544250    1.431873   -0.126159
 ---------------------------------------------------------------------

 SCF Done:  E(RB2PLYPD3) =  -191.611807580     A.U. after   13 cycles
 E2(B2PLYPD3) =    -0.2476089217D+00 E(B2PLYPD3) =    -0.19185941650195D+03

 The electronic state is 1-A.
 Alpha  occ. eigenvalues --  -19.72761 -10.71421 -10.65847 -10.64071  -1.18903
 Alpha  occ. eigenvalues --   -0.93269  -0.75396  -0.67039  -0.56472  -0.56280
 Alpha  occ. eigenvalues --   -0.50529  -0.46601  -0.45803  -0.34744  -0.34069
 Alpha virt. eigenvalues --   -0.01833   0.05603   0.07065   0.08026   0.09762
 Alpha virt. eigenvalues --    0.12395   0.13921   0.15425   0.17566   0.19029
 Alpha virt. eigenvalues --    0.20184   0.21455   0.25448   0.26439   0.29057

 Mulliken charges:
               1
     1  C    0.154849
     2  O   -0.354563
     3  C   -0.043203
     4  C   -0.123743
     5  H    0.104094
     6  H    0.074231
     7  H    0.104457
     8  H    0.083879
 Sum of Mulliken charges =   0.00000

 Dipole moment (field-independent basis, Debye):
    X=              3.4658    Y=              0.8452    Z=              0.0035  Tot=              3.5674
 Quadrupole moment (field-independent basis, Debye-Ang):
   XX=            -27.5546   YY=            -21.7186   ZZ=            -25.1920
   XY=             -1.3392   XZ=              0.4140   YZ=              0.1119

 Normal termination of Gaussian 09 at Wed Aug 26 09:03:52 2020.
