 Gaussian 09, Revision D.01,
 Gaussian 09:  ES64L-G09RevD.01 24-Apr-2013

 --------------------
 #p B2PLYPD3/Def2QZVP
 --------------------

 --------
 acrolein
 --------
 Symbolic Z-matrix:
 Charge =  0 Multiplicity = 1

                         Standard orientation:
 ---------------------------------------------------------------------
 Center     Atomic      Atomic             Coordinates (Angstroms)
 Number     Number       Type             X           Y           Z
 ---------------------------------------------------------------------
      1          6           0       -0.671438    0.328460   -0.018565
      2          8           0       -1.819208   -0.092204    0.021247
      3          6           0        0.578700   -0.502593   -0.015356
      4          6           0        1.748804    0.150668   -0.009571
      5          1           0        0.585902   -1.470113    0.065007
      6          1           0        1.921181    1.324938    0.218397
      7          1           0        2.527002   -0.377720   -0.050850
      8          1           0       -0.416820    1.401319   -0.141578
 ---------------------------------------------------------------------

 SCF Done:  E(RB2PLYPD3) =  -191.574641470     A.U. after   13 cycles
 E2(B2PLYPD3) =    -0.2480696526D+00 E(B2PLYPD3) =    -0.19182271112252D+03

 The electronic state is 1-A.
 Alpha  occ. eigenvalues --  -19.73010 -10.72080 -10.65150 -10.63763  -1.18701
 Alpha  occ. eigenvalues --   -0.93618  -0.76158  -0.68169  -0.57560  -0.55437
 Alpha  occ. eigenvalues --   -0.50674  -0.47984  -0.46022  -0.34576  -0.33770
 Alpha virt. eigenvalues --   -0.01923   0.05450   0.07379   0.07528   0.09477
 Alpha virt. eigenvalues --    0.12702   0.13999   0.15412   0.17940   0.19078
 Alpha virt. eigenvalues --    0.20240   0.21615   0.24258   0.26931   0.28094

 Mulliken charges:
               1
     1  C    0.161631
     2  O   -0.350004
     3  C   -0.058440
     4  C   -0.121488
     5  H    0.105472
     6  H    0.082269
     7  H    0.102015
     8  H    0.078545
 Sum of Mulliken charges =   0.00000

 Dipole moment (field-independent basis, Debye):
    X=              3.6404    Y=              0.6039    Z=              0.0821  Tot=              3.6911
 Quadrupole moment (field-independent basis, Debye-Ang):
   XX=            -27.7741   YY=            -21.5945   ZZ=            -25.0943
   XY=             -0.7133   XZ=              0.4017   YZ=              0.1501

 Normal termination of Gaussian 09 at Wed Aug 26 13:48:05 2020.
