 Gaussian 09, Revision D.01,
 Gaussian 09:  ES64L-G09RevD.01 24-Apr-2013

 --------------------
 #p B2PLYPD3/Def2QZVP
 --------------------

 --------
 acrolein
 --------
 Symbolic Z-matrix:
 Charge =  0 Multiplicity = 1

                         Standard orientation:
 ---------------------------------------------------------------------
 Center     Atomic      Atomic             Coordinates (Angstroms)
 Number     Number       Type             X           Y           Z
 ---------------------------------------------------------------------
      1          6           0       -0.672131    0.351989   -0.017975
      2          8           0       -1.785865   -0.129278    0.023194
      3          6           0        0.552956   -0.434695   -0.026293
      4          6           0        1.759697    0.135803    0.009011
      5          1           0        0.445480   -1.512608   -0.007589
      6          1           0        1.791233    1.208365    0.076404
      7          1           0        2.717951   -0.430098    0.029616
      8          1           0       -0.510871    1.449987   -0.072438
 ---------------------------------------------------------------------

 SCF Done:  E(RB2PLYPD3) =  -191.615199525     A.U. after   13 cycles
 E2(B2PLYPD3) =    -0.2475687987D+00 E(B2PLYPD3) =    -0.19186276832372D+03

 The electronic state is 1-A.
 Alpha  occ. eigenvalues --  -19.72871 -10.71653 -10.65813 -10.64290  -1.19388
 Alpha  occ. eigenvalues --   -0.93124  -0.75499  -0.66957  -0.56464  -0.56317
 Alpha  occ. eigenvalues --   -0.50560  -0.46797  -0.46591  -0.34641  -0.33991
 Alpha virt. eigenvalues --   -0.01975   0.05694   0.07100   0.08268   0.09779
 Alpha virt. eigenvalues --    0.12486   0.13903   0.15379   0.17507   0.19614
 Alpha virt. eigenvalues --    0.20099   0.21338   0.25525   0.26344   0.29020

 Mulliken charges:
               1
     1  C    0.153679
     2  O   -0.349790
     3  C   -0.032433
     4  C   -0.130904
     5  H    0.103571
     6  H    0.081487
     7  H    0.105431
     8  H    0.068960
 Sum of Mulliken charges =   0.00000

 Dipole moment (field-independent basis, Debye):
    X=              3.5112    Y=              0.7675    Z=             -0.0108  Tot=              3.5941
 Quadrupole moment (field-independent basis, Debye-Ang):
   XX=            -27.3313   YY=            -21.8728   ZZ=            -25.2339
   XY=             -1.0917   XZ=              0.3085   YZ=              0.0434

 Normal termination of Gaussian 09 at Wed Aug 26 18:52:54 2020.
