 Gaussian 09, Revision D.01,
 Gaussian 09:  ES64L-G09RevD.01 24-Apr-2013

 --------------------
 #p B2PLYPD3/Def2QZVP
 --------------------

 --------
 acrolein
 --------
 Symbolic Z-matrix:
 Charge =  0 Multiplicity = 1

                         Standard orientation:
 ---------------------------------------------------------------------
 Center     Atomic      Atomic             Coordinates (Angstroms)
 Number     Number       Type             X           Y           Z
 ---------------------------------------------------------------------
      1          6           0       -0.698658    0.367811    0.026163
      2          8           0       -1.761793   -0.148820   -0.060464
      3          6           0        0.543468   -0.407036    0.053902
      4          6           0        1.801582    0.117356   -0.058885
      5          1           0        0.432969   -1.511257    0.174223
      6          1           0        1.865050    1.208593   -0.084930
      7          1           0        2.562972   -0.447622   -0.008219
      8          1           0       -0.645003    1.472067    0.275559
 ---------------------------------------------------------------------

 SCF Done:  E(RB2PLYPD3) =  -191.595874444     A.U. after   13 cycles
 E2(B2PLYPD3) =    -0.2465915770D+00 E(B2PLYPD3) =    -0.19184246602117D+03

 The electronic state is 1-A.
 Alpha  occ. eigenvalues --  -19.72853 -10.71545 -10.64870 -10.64388  -1.21315
 Alpha  occ. eigenvalues --   -0.92166  -0.76533  -0.66024  -0.57930  -0.56449
 Alpha  occ. eigenvalues --   -0.51760  -0.48018  -0.45826  -0.34072  -0.33734
 Alpha virt. eigenvalues --   -0.01920   0.06081   0.06859   0.08511   0.09759
 Alpha virt. eigenvalues --    0.12375   0.14293   0.15476   0.17306   0.18912
 Alpha virt. eigenvalues --    0.20115   0.22529   0.25132   0.26641   0.28865

 Mulliken charges:
               1
     1  C    0.159590
     2  O   -0.326514
     3  C   -0.053716
     4  C   -0.141737
     5  H    0.096182
     6  H    0.084041
     7  H    0.116018
     8  H    0.066136
 Sum of Mulliken charges =   0.00000

 Dipole moment (field-independent basis, Debye):
    X=              3.1878    Y=              0.7973    Z=              0.3103  Tot=              3.3006
 Quadrupole moment (field-independent basis, Debye-Ang):
   XX=            -27.1055   YY=            -21.8452   ZZ=            -25.1822
   XY=             -1.3070   XZ=             -0.3831   YZ=             -0.2077

 Normal termination of Gaussian 09 at Wed Aug 26 11:15:07 2020.
