 Gaussian 09, Revision D.01,
 Gaussian 09:  ES64L-G09RevD.01 24-Apr-2013

 --------------------
 #p B2PLYPD3/Def2QZVP
 --------------------

 --------
 acrolein
 --------
 Symbolic Z-matrix:
 Charge =  0 Multiplicity = 1

                         Standard orientation:
 ---------------------------------------------------------------------
 Center     Atomic      Atomic             Coordinates (Angstroms)
 Number     Number       Type             X           Y           Z
 ---------------------------------------------------------------------
      1          6           0        0.659852    0.358203    0.028345
      2          8           0        1.787076   -0.119892   -0.019518
      3          6           0       -0.558769   -0.452968    0.030494
      4          6           0       -1.753779    0.137322   -0.021812
      5          1           0       -0.400253   -1.537192   -0.009857
      6          1           0       -1.840035    1.221141    0.042035
      7          1           0       -2.622651   -0.438575   -0.051628
      8          1           0        0.482510    1.458418   -0.046568
 ---------------------------------------------------------------------

 SCF Done:  E(RB2PLYPD3) =  -191.613939657     A.U. after   13 cycles
 E2(B2PLYPD3) =    -0.2479759834D+00 E(B2PLYPD3) =    -0.19186191564049D+03

 The electronic state is 1-A.
 Alpha  occ. eigenvalues --  -19.72825 -10.71757 -10.65242 -10.64560  -1.18632
 Alpha  occ. eigenvalues --   -0.93209  -0.75848  -0.66734  -0.56771  -0.56162
 Alpha  occ. eigenvalues --   -0.50390  -0.47118  -0.46344  -0.34665  -0.33854
 Alpha virt. eigenvalues --   -0.01976   0.05760   0.07097   0.07906   0.09816
 Alpha virt. eigenvalues --    0.12617   0.13866   0.15275   0.17287   0.19699
 Alpha virt. eigenvalues --    0.20088   0.21913   0.25106   0.26725   0.28684

 Mulliken charges:
               1
     1  C    0.159656
     2  O   -0.357842
     3  C   -0.038775
     4  C   -0.131444
     5  H    0.106559
     6  H    0.087214
     7  H    0.104993
     8  H    0.069640
 Sum of Mulliken charges =   0.00000

 Dipole moment (field-independent basis, Debye):
    X=             -3.5617    Y=              0.7550    Z=              0.0393  Tot=              3.6411
 Quadrupole moment (field-independent basis, Debye-Ang):
   XX=            -27.6330   YY=            -21.6354   ZZ=            -25.2271
   XY=              0.8427   XZ=              0.1527   YZ=              0.0948

 Normal termination of Gaussian 09 at Wed Aug 26 10:07:34 2020.
