 Gaussian 09, Revision D.01,
 Gaussian 09:  ES64L-G09RevD.01 24-Apr-2013

 --------------------
 #p B2PLYPD3/Def2QZVP
 --------------------

 --------
 acrolein
 --------
 Symbolic Z-matrix:
 Charge =  0 Multiplicity = 1

                         Standard orientation:
 ---------------------------------------------------------------------
 Center     Atomic      Atomic             Coordinates (Angstroms)
 Number     Number       Type             X           Y           Z
 ---------------------------------------------------------------------
      1          6           0       -0.670315    0.364895   -0.033288
      2          8           0       -1.789700   -0.136761    0.033127
      3          6           0        0.556864   -0.419469   -0.028587
      4          6           0        1.758178    0.119572    0.012003
      5          1           0        0.417751   -1.479109   -0.003871
      6          1           0        1.806599    1.197035    0.143549
      7          1           0        2.726508   -0.433793   -0.000408
      8          1           0       -0.501624    1.419972   -0.105052
 ---------------------------------------------------------------------

 SCF Done:  E(RB2PLYPD3) =  -191.612272345     A.U. after   13 cycles
 E2(B2PLYPD3) =    -0.2476826296D+00 E(B2PLYPD3) =    -0.19185995497430D+03

 The electronic state is 1-A.
 Alpha  occ. eigenvalues --  -19.72962 -10.71504 -10.65684 -10.63860  -1.18577
 Alpha  occ. eigenvalues --   -0.93523  -0.75908  -0.67570  -0.56636  -0.56310
 Alpha  occ. eigenvalues --   -0.50816  -0.46478  -0.46046  -0.34846  -0.34153
 Alpha virt. eigenvalues --   -0.02076   0.05620   0.07298   0.08148   0.09786
 Alpha virt. eigenvalues --    0.12474   0.13909   0.15415   0.17634   0.19300
 Alpha virt. eigenvalues --    0.20170   0.21396   0.25516   0.26588   0.28984

 Mulliken charges:
               1
     1  C    0.156233
     2  O   -0.359693
     3  C   -0.034574
     4  C   -0.127887
     5  H    0.105267
     6  H    0.075308
     7  H    0.104762
     8  H    0.080583
 Sum of Mulliken charges =   0.00000

 Dipole moment (field-independent basis, Debye):
    X=              3.5449    Y=              0.8526    Z=             -0.0355  Tot=              3.6462
 Quadrupole moment (field-independent basis, Debye-Ang):
   XX=            -27.3797   YY=            -21.9023   ZZ=            -25.1368
   XY=             -1.1166   XZ=              0.3789   YZ=              0.1119

 Normal termination of Gaussian 09 at Wed Aug 26 08:58:38 2020.
