 Gaussian 09, Revision D.01,
 Gaussian 09:  ES64L-G09RevD.01 24-Apr-2013

 --------------------
 #p B2PLYPD3/Def2QZVP
 --------------------

 --------
 acrolein
 --------
 Symbolic Z-matrix:
 Charge =  0 Multiplicity = 1

                         Standard orientation:
 ---------------------------------------------------------------------
 Center     Atomic      Atomic             Coordinates (Angstroms)
 Number     Number       Type             X           Y           Z
 ---------------------------------------------------------------------
      1          6           0       -0.675052    0.336977    0.023137
      2          8           0       -1.791883   -0.103036   -0.016250
      3          6           0        0.557492   -0.461890    0.012460
      4          6           0        1.763567    0.142727   -0.018805
      5          1           0        0.414019   -1.536333    0.005364
      6          1           0        1.882353    1.254910   -0.015610
      7          1           0        2.674036   -0.405833    0.020541
      8          1           0       -0.511383    1.404657    0.018956
 ---------------------------------------------------------------------

 SCF Done:  E(RB2PLYPD3) =  -191.615016796     A.U. after   12 cycles
 E2(B2PLYPD3) =    -0.2468975015D+00 E(B2PLYPD3) =    -0.19186191429709D+03

 The electronic state is 1-A.
 Alpha  occ. eigenvalues --  -19.72680 -10.71035 -10.66011 -10.64710  -1.20009
 Alpha  occ. eigenvalues --   -0.92572  -0.75653  -0.67132  -0.56745  -0.56096
 Alpha  occ. eigenvalues --   -0.50809  -0.47000  -0.46881  -0.34496  -0.33721
 Alpha virt. eigenvalues --   -0.01871   0.05698   0.07314   0.08310   0.09667
 Alpha virt. eigenvalues --    0.12547   0.14098   0.15395   0.17559   0.19547
 Alpha virt. eigenvalues --    0.19966   0.21641   0.25327   0.26611   0.28598

 Mulliken charges:
               1
     1  C    0.160049
     2  O   -0.346363
     3  C   -0.043223
     4  C   -0.130859
     5  H    0.105242
     6  H    0.083746
     7  H    0.103277
     8  H    0.068132
 Sum of Mulliken charges =   0.00000

 Dipole moment (field-independent basis, Debye):
    X=              3.4983    Y=              0.7091    Z=              0.0779  Tot=              3.5703
 Quadrupole moment (field-independent basis, Debye-Ang):
   XX=            -27.3256   YY=            -21.7643   ZZ=            -25.2421
   XY=             -0.6904   XZ=             -0.0474   YZ=             -0.0262

 Normal termination of Gaussian 09 at Wed Aug 26 15:51:32 2020.
