 Gaussian 09, Revision D.01,
 Gaussian 09:  ES64L-G09RevD.01 24-Apr-2013

 --------------------
 #p B2PLYPD3/Def2QZVP
 --------------------

 --------
 acrolein
 --------
 Symbolic Z-matrix:
 Charge =  0 Multiplicity = 1

                         Standard orientation:
 ---------------------------------------------------------------------
 Center     Atomic      Atomic             Coordinates (Angstroms)
 Number     Number       Type             X           Y           Z
 ---------------------------------------------------------------------
      1          6           0       -0.678342    0.362072   -0.035630
      2          8           0       -1.786023   -0.141481    0.041113
      3          6           0        0.568877   -0.430185   -0.042583
      4          6           0        1.740668    0.145424    0.038127
      5          1           0        0.469645   -1.484475   -0.105051
      6          1           0        1.819254    1.165287   -0.053331
      7          1           0        2.757080   -0.449136    0.113283
      8          1           0       -0.545011    1.436302   -0.043280
 ---------------------------------------------------------------------

 SCF Done:  E(RB2PLYPD3) =  -191.606953855     A.U. after   13 cycles
 E2(B2PLYPD3) =    -0.2470231872D+00 E(B2PLYPD3) =    -0.19185397704185D+03

 The electronic state is 1-A.
 Alpha  occ. eigenvalues --  -19.72921 -10.71666 -10.65293 -10.63826  -1.19110
 Alpha  occ. eigenvalues --   -0.93535  -0.75127  -0.67887  -0.57253  -0.55671
 Alpha  occ. eigenvalues --   -0.50575  -0.46959  -0.46067  -0.34969  -0.33976
 Alpha virt. eigenvalues --   -0.01520   0.05578   0.07136   0.08062   0.09744
 Alpha virt. eigenvalues --    0.12363   0.13989   0.15301   0.17740   0.19815
 Alpha virt. eigenvalues --    0.20276   0.21172   0.25347   0.26421   0.28772

 Mulliken charges:
               1
     1  C    0.148931
     2  O   -0.351795
     3  C   -0.034378
     4  C   -0.131029
     5  H    0.108143
     6  H    0.086973
     7  H    0.091913
     8  H    0.081241
 Sum of Mulliken charges =   0.00000

 Dipole moment (field-independent basis, Debye):
    X=              3.4188    Y=              0.8844    Z=             -0.1950  Tot=              3.5367
 Quadrupole moment (field-independent basis, Debye-Ang):
   XX=            -27.5112   YY=            -21.7729   ZZ=            -25.1210
   XY=             -1.1163   XZ=              0.3212   YZ=             -0.0222

 Normal termination of Gaussian 09 at Wed Aug 26 09:23:59 2020.
