 Gaussian 09, Revision D.01,
 Gaussian 09:  ES64L-G09RevD.01 24-Apr-2013

 --------------------
 #p B2PLYPD3/Def2QZVP
 --------------------

 --------
 acrolein
 --------
 Symbolic Z-matrix:
 Charge =  0 Multiplicity = 1

                         Standard orientation:
 ---------------------------------------------------------------------
 Center     Atomic      Atomic             Coordinates (Angstroms)
 Number     Number       Type             X           Y           Z
 ---------------------------------------------------------------------
      1          6           0        0.665445    0.341364    0.024647
      2          8           0        1.786243   -0.126584   -0.026968
      3          6           0       -0.562449   -0.430327   -0.008850
      4          6           0       -1.739582    0.141769   -0.007305
      5          1           0       -0.492490   -1.482356    0.137614
      6          1           0       -1.741487    1.146667   -0.067662
      7          1           0       -2.692699   -0.403197   -0.027794
      8          1           0        0.456247    1.434723    0.122633
 ---------------------------------------------------------------------

 SCF Done:  E(RB2PLYPD3) =  -191.608918032     A.U. after   12 cycles
 E2(B2PLYPD3) =    -0.2468119382D+00 E(B2PLYPD3) =    -0.19185572997008D+03

 The electronic state is 1-A.
 Alpha  occ. eigenvalues --  -19.73035 -10.71760 -10.64448 -10.63529  -1.19331
 Alpha  occ. eigenvalues --   -0.94304  -0.76029  -0.67567  -0.57049  -0.56641
 Alpha  occ. eigenvalues --   -0.50861  -0.47493  -0.46348  -0.35180  -0.33977
 Alpha virt. eigenvalues --   -0.01779   0.05874   0.07096   0.08302   0.09823
 Alpha virt. eigenvalues --    0.12839   0.13875   0.15063   0.17698   0.19677
 Alpha virt. eigenvalues --    0.20455   0.21588   0.25272   0.26792   0.29073

 Mulliken charges:
               1
     1  C    0.144722
     2  O   -0.348036
     3  C   -0.015550
     4  C   -0.128864
     5  H    0.099235
     6  H    0.080495
     7  H    0.103132
     8  H    0.064865
 Sum of Mulliken charges =   0.00000

 Dipole moment (field-independent basis, Debye):
    X=             -3.5439    Y=              0.7418    Z=              0.1692  Tot=              3.6246
 Quadrupole moment (field-independent basis, Debye-Ang):
   XX=            -27.2894   YY=            -22.0329   ZZ=            -24.9766
   XY=              1.0409   XZ=              0.2095   YZ=             -0.2137

 Normal termination of Gaussian 09 at Wed Aug 26 08:36:23 2020.
