 Gaussian 09, Revision D.01,
 Gaussian 09:  ES64L-G09RevD.01 24-Apr-2013

 --------------------
 #p B2PLYPD3/Def2QZVP
 --------------------

 --------
 acrolein
 --------
 Symbolic Z-matrix:
 Charge =  0 Multiplicity = 1

                         Standard orientation:
 ---------------------------------------------------------------------
 Center     Atomic      Atomic             Coordinates (Angstroms)
 Number     Number       Type             X           Y           Z
 ---------------------------------------------------------------------
      1          6           0       -0.666546    0.355958   -0.067892
      2          8           0       -1.784251   -0.135681    0.046799
      3          6           0        0.546849   -0.418103   -0.021559
      4          6           0        1.755863    0.105130   -0.004645
      5          1           0        0.427250   -1.461551   -0.035052
      6          1           0        1.838705    1.238117    0.138630
      7          1           0        2.591121   -0.494950    0.103933
      8          1           0       -0.400070    1.545917   -0.017326
 ---------------------------------------------------------------------

 SCF Done:  E(RB2PLYPD3) =  -191.599302427     A.U. after   12 cycles
 E2(B2PLYPD3) =    -0.2492218012D+00 E(B2PLYPD3) =    -0.19184852422794D+03

 The electronic state is 1-A.
 Alpha  occ. eigenvalues --  -19.73525 -10.72861 -10.65519 -10.63696  -1.19058
 Alpha  occ. eigenvalues --   -0.93914  -0.76184  -0.65905  -0.57501  -0.55071
 Alpha  occ. eigenvalues --   -0.50734  -0.46878  -0.46358  -0.35079  -0.33995
 Alpha virt. eigenvalues --   -0.02413   0.05590   0.06905   0.08214   0.09891
 Alpha virt. eigenvalues --    0.12520   0.13329   0.15147   0.17560   0.19447
 Alpha virt. eigenvalues --    0.19673   0.21963   0.25216   0.26413   0.28476

 Mulliken charges:
               1
     1  C    0.175320
     2  O   -0.348154
     3  C   -0.027513
     4  C   -0.118156
     5  H    0.099974
     6  H    0.074040
     7  H    0.106228
     8  H    0.038261
 Sum of Mulliken charges =   0.00000

 Dipole moment (field-independent basis, Debye):
    X=              3.5227    Y=              0.5787    Z=             -0.0086  Tot=              3.5700
 Quadrupole moment (field-independent basis, Debye-Ang):
   XX=            -27.4818   YY=            -22.0946   ZZ=            -25.1883
   XY=             -1.0011   XZ=              0.6551   YZ=              0.1492

 Normal termination of Gaussian 09 at Wed Aug 26 11:08:30 2020.
