 Gaussian 09, Revision D.01,
 Gaussian 09:  ES64L-G09RevD.01 24-Apr-2013

 --------------------
 #p B2PLYPD3/Def2QZVP
 --------------------

 --------
 acrolein
 --------
 Symbolic Z-matrix:
 Charge =  0 Multiplicity = 1

                         Standard orientation:
 ---------------------------------------------------------------------
 Center     Atomic      Atomic             Coordinates (Angstroms)
 Number     Number       Type             X           Y           Z
 ---------------------------------------------------------------------
      1          6           0       -0.676161    0.351081    0.012498
      2          8           0       -1.778438   -0.129640   -0.013697
      3          6           0        0.555802   -0.448373    0.009279
      4          6           0        1.754300    0.145848   -0.018923
      5          1           0        0.463564   -1.515471    0.017677
      6          1           0        1.812520    1.193056   -0.046150
      7          1           0        2.670590   -0.426350    0.050963
      8          1           0       -0.522819    1.494545    0.069965
 ---------------------------------------------------------------------

 SCF Done:  E(RB2PLYPD3) =  -191.614967354     A.U. after   12 cycles
 E2(B2PLYPD3) =    -0.2470016106D+00 E(B2PLYPD3) =    -0.19186196896450D+03

 The electronic state is 1-A.
 Alpha  occ. eigenvalues --  -19.72897 -10.71960 -10.65091 -10.64273  -1.20088
 Alpha  occ. eigenvalues --   -0.92969  -0.75275  -0.66728  -0.56703  -0.56358
 Alpha  occ. eigenvalues --   -0.50487  -0.47435  -0.47080  -0.34583  -0.33762
 Alpha virt. eigenvalues --   -0.01683   0.05847   0.07063   0.08243   0.09817
 Alpha virt. eigenvalues --    0.12570   0.13918   0.15398   0.17408   0.19754
 Alpha virt. eigenvalues --    0.20133   0.21624   0.25470   0.26288   0.28835

 Mulliken charges:
               1
     1  C    0.153818
     2  O   -0.340336
     3  C   -0.037185
     4  C   -0.132287
     5  H    0.105952
     6  H    0.087105
     7  H    0.102147
     8  H    0.060787
 Sum of Mulliken charges =   0.00000

 Dipole moment (field-independent basis, Debye):
    X=              3.4152    Y=              0.7188    Z=              0.0856  Tot=              3.4911
 Quadrupole moment (field-independent basis, Debye-Ang):
   XX=            -27.3306   YY=            -21.7990   ZZ=            -25.2130
   XY=             -1.0097   XZ=             -0.0014   YZ=             -0.0783

 Normal termination of Gaussian 09 at Wed Aug 26 18:31:04 2020.
