 Gaussian 09, Revision D.01,
 Gaussian 09:  ES64L-G09RevD.01 24-Apr-2013

 --------------------
 #p B2PLYPD3/Def2QZVP
 --------------------

 --------
 acrolein
 --------
 Symbolic Z-matrix:
 Charge =  0 Multiplicity = 1

                         Standard orientation:
 ---------------------------------------------------------------------
 Center     Atomic      Atomic             Coordinates (Angstroms)
 Number     Number       Type             X           Y           Z
 ---------------------------------------------------------------------
      1          6           0       -0.638689    0.296018   -0.061558
      2          8           0       -1.818378   -0.072435    0.067156
      3          6           0        0.587659   -0.458122   -0.104461
      4          6           0        1.759186    0.150909    0.036674
      5          1           0        0.338736   -1.553123    0.040899
      6          1           0        1.802531    1.229044    0.080421
      7          1           0        2.552917   -0.407483    0.206842
      8          1           0       -0.396094    1.378217   -0.089339
 ---------------------------------------------------------------------

 SCF Done:  E(RB2PLYPD3) =  -191.596419515     A.U. after   13 cycles
 E2(B2PLYPD3) =    -0.2492612306D+00 E(B2PLYPD3) =    -0.19184568074527D+03

 The electronic state is 1-A.
 Alpha  occ. eigenvalues --  -19.72963 -10.71599 -10.65376 -10.65072  -1.17517
 Alpha  occ. eigenvalues --   -0.94554  -0.77656  -0.66323  -0.57937  -0.56050
 Alpha  occ. eigenvalues --   -0.50608  -0.46866  -0.45969  -0.35181  -0.33636
 Alpha virt. eigenvalues --   -0.02776   0.05778   0.07008   0.08187   0.09790
 Alpha virt. eigenvalues --    0.12971   0.13351   0.15115   0.17167   0.19535
 Alpha virt. eigenvalues --    0.19960   0.22203   0.24339   0.26892   0.28354

 Mulliken charges:
               1
     1  C    0.163441
     2  O   -0.369289
     3  C   -0.020058
     4  C   -0.116596
     5  H    0.092539
     6  H    0.093791
     7  H    0.111515
     8  H    0.044657
 Sum of Mulliken charges =   0.00000

 Dipole moment (field-independent basis, Debye):
    X=              3.8722    Y=              0.5644    Z=              0.0403  Tot=              3.9133
 Quadrupole moment (field-independent basis, Debye-Ang):
   XX=            -27.7392   YY=            -22.0503   ZZ=            -25.0807
   XY=             -0.2804   XZ=              0.9894   YZ=             -0.1473

 Normal termination of Gaussian 09 at Wed Aug 26 14:00:29 2020.
