 Gaussian 09, Revision D.01,
 Gaussian 09:  ES64L-G09RevD.01 24-Apr-2013

 --------------------
 #p B2PLYPD3/Def2QZVP
 --------------------

 --------
 acrolein
 --------
 Symbolic Z-matrix:
 Charge =  0 Multiplicity = 1

                         Standard orientation:
 ---------------------------------------------------------------------
 Center     Atomic      Atomic             Coordinates (Angstroms)
 Number     Number       Type             X           Y           Z
 ---------------------------------------------------------------------
      1          6           0        0.694181   -0.332118    0.075989
      2          8           0        1.779996    0.093242   -0.082904
      3          6           0       -0.591350    0.484675    0.026813
      4          6           0       -1.767559   -0.183468   -0.073688
      5          1           0       -0.454658    1.619412    0.250642
      6          1           0       -1.870787   -1.219895   -0.040075
      7          1           0       -2.510361    0.373424   -0.017544
      8          1           0        0.584203   -1.333422    0.295521
 ---------------------------------------------------------------------

 SCF Done:  E(RB2PLYPD3) =  -191.580064172     A.U. after   13 cycles
 E2(B2PLYPD3) =    -0.2454174592D+00 E(B2PLYPD3) =    -0.19182548163089D+03

 The electronic state is 1-A.
 Alpha  occ. eigenvalues --  -19.72628 -10.70472 -10.65585 -10.63202  -1.21479
 Alpha  occ. eigenvalues --   -0.92305  -0.76161  -0.67317  -0.57936  -0.56567
 Alpha  occ. eigenvalues --   -0.51222  -0.48462  -0.46597  -0.34216  -0.33273
 Alpha virt. eigenvalues --   -0.01021   0.06202   0.06642   0.08265   0.09566
 Alpha virt. eigenvalues --    0.12998   0.14430   0.15199   0.17526   0.19425
 Alpha virt. eigenvalues --    0.20212   0.22610   0.24522   0.26992   0.28114

 Mulliken charges:
               1
     1  C    0.154022
     2  O   -0.325942
     3  C   -0.053279
     4  C   -0.147678
     5  H    0.094106
     6  H    0.089272
     7  H    0.110203
     8  H    0.079296
 Sum of Mulliken charges =   0.00000

 Dipole moment (field-independent basis, Debye):
    X=             -3.1526    Y=             -0.7603    Z=              0.5568  Tot=              3.2904
 Quadrupole moment (field-independent basis, Debye-Ang):
   XX=            -27.5997   YY=            -21.4191   ZZ=            -25.0449
   XY=             -0.6288   XZ=              0.4093   YZ=              0.3347

 Normal termination of Gaussian 09 at Wed Aug 26 10:44:06 2020.
