 Gaussian 09, Revision D.01,
 Gaussian 09:  ES64L-G09RevD.01 24-Apr-2013

 --------------------
 #p B2PLYPD3/Def2QZVP
 --------------------

 --------
 acrolein
 --------
 Symbolic Z-matrix:
 Charge =  0 Multiplicity = 1

                         Standard orientation:
 ---------------------------------------------------------------------
 Center     Atomic      Atomic             Coordinates (Angstroms)
 Number     Number       Type             X           Y           Z
 ---------------------------------------------------------------------
      1          6           0       -0.661799    0.338098   -0.007248
      2          8           0       -1.795241   -0.110823    0.003709
      3          6           0        0.569566   -0.460395   -0.008888
      4          6           0        1.750576    0.142357   -0.008271
      5          1           0        0.440213   -1.512040    0.020775
      6          1           0        1.825263    1.252443    0.000220
      7          1           0        2.632809   -0.414351    0.057314
      8          1           0       -0.486410    1.440176    0.038460
 ---------------------------------------------------------------------

 SCF Done:  E(RB2PLYPD3) =  -191.614706792     A.U. after   12 cycles
 E2(B2PLYPD3) =    -0.2473958350D+00 E(B2PLYPD3) =    -0.19186210262747D+03

 The electronic state is 1-A.
 Alpha  occ. eigenvalues --  -19.72840 -10.71680 -10.65410 -10.64181  -1.18967
 Alpha  occ. eigenvalues --   -0.93452  -0.75700  -0.67018  -0.56960  -0.56050
 Alpha  occ. eigenvalues --   -0.50616  -0.47257  -0.46503  -0.34890  -0.33786
 Alpha virt. eigenvalues --   -0.01827   0.05740   0.07188   0.08164   0.09752
 Alpha virt. eigenvalues --    0.12623   0.13910   0.15300   0.17502   0.19599
 Alpha virt. eigenvalues --    0.20000   0.21775   0.25389   0.26605   0.28745

 Mulliken charges:
               1
     1  C    0.158611
     2  O   -0.353954
     3  C   -0.036922
     4  C   -0.127067
     5  H    0.106051
     6  H    0.084791
     7  H    0.104071
     8  H    0.064419
 Sum of Mulliken charges =   0.00000

 Dipole moment (field-independent basis, Debye):
    X=              3.5723    Y=              0.6812    Z=              0.0662  Tot=              3.6373
 Quadrupole moment (field-independent basis, Debye-Ang):
   XX=            -27.5855   YY=            -21.7312   ZZ=            -25.1720
   XY=             -0.8266   XZ=              0.1720   YZ=             -0.0482

 Normal termination of Gaussian 09 at Wed Aug 26 19:56:35 2020.
