 Gaussian 09, Revision D.01,
 Gaussian 09:  ES64L-G09RevD.01 24-Apr-2013

 --------------------
 #p B2PLYPD3/Def2QZVP
 --------------------

 --------
 acrolein
 --------
 Symbolic Z-matrix:
 Charge =  0 Multiplicity = 1

                         Standard orientation:
 ---------------------------------------------------------------------
 Center     Atomic      Atomic             Coordinates (Angstroms)
 Number     Number       Type             X           Y           Z
 ---------------------------------------------------------------------
      1          6           0        0.676346    0.339458   -0.016161
      2          8           0        1.788805   -0.113220    0.017066
      3          6           0       -0.557531   -0.459352   -0.024997
      4          6           0       -1.750830    0.146952    0.004432
      5          1           0       -0.455030   -1.503413    0.023179
      6          1           0       -1.856890    1.248640    0.050820
      7          1           0       -2.707930   -0.431136    0.036054
      8          1           0        0.501493    1.429327   -0.026229
 ---------------------------------------------------------------------

 SCF Done:  E(RB2PLYPD3) =  -191.615004146     A.U. after   13 cycles
 E2(B2PLYPD3) =    -0.2469318436D+00 E(B2PLYPD3) =    -0.19186193598926D+03

 The electronic state is 1-A.
 Alpha  occ. eigenvalues --  -19.72780 -10.71382 -10.66204 -10.64170  -1.20047
 Alpha  occ. eigenvalues --   -0.92835  -0.75034  -0.67280  -0.56478  -0.56131
 Alpha  occ. eigenvalues --   -0.50642  -0.47128  -0.46796  -0.34652  -0.33753
 Alpha virt. eigenvalues --   -0.01678   0.05637   0.07259   0.08256   0.09674
 Alpha virt. eigenvalues --    0.12485   0.13927   0.15377   0.17799   0.19577
 Alpha virt. eigenvalues --    0.19967   0.21277   0.25418   0.26470   0.28646

 Mulliken charges:
               1
     1  C    0.156255
     2  O   -0.344317
     3  C   -0.041611
     4  C   -0.128668
     5  H    0.108960
     6  H    0.084943
     7  H    0.097409
     8  H    0.067030
 Sum of Mulliken charges =   0.00000

 Dipole moment (field-independent basis, Debye):
    X=             -3.4659    Y=              0.7111    Z=              0.0317  Tot=              3.5382
 Quadrupole moment (field-independent basis, Debye-Ang):
   XX=            -27.3887   YY=            -21.7910   ZZ=            -25.2353
   XY=              0.8185   XZ=             -0.2729   YZ=             -0.0094

 Normal termination of Gaussian 09 at Wed Aug 26 15:52:57 2020.
