 Gaussian 09, Revision D.01,
 Gaussian 09:  ES64L-G09RevD.01 24-Apr-2013

 --------------------
 #p B2PLYPD3/Def2QZVP
 --------------------

 --------
 acrolein
 --------
 Symbolic Z-matrix:
 Charge =  0 Multiplicity = 1

                         Standard orientation:
 ---------------------------------------------------------------------
 Center     Atomic      Atomic             Coordinates (Angstroms)
 Number     Number       Type             X           Y           Z
 ---------------------------------------------------------------------
      1          6           0        0.667681    0.344674    0.011524
      2          8           0        1.802723   -0.111307   -0.017284
      3          6           0       -0.571644   -0.467290    0.008548
      4          6           0       -1.753152    0.144316   -0.008141
      5          1           0       -0.471318   -1.553176    0.041487
      6          1           0       -1.848730    1.251402   -0.062239
      7          1           0       -2.622948   -0.397995   -0.003470
      8          1           0        0.463902    1.460023    0.090913
 ---------------------------------------------------------------------

 SCF Done:  E(RB2PLYPD3) =  -191.612319678     A.U. after   13 cycles
 E2(B2PLYPD3) =    -0.2480400872D+00 E(B2PLYPD3) =    -0.19186035976497D+03

 The electronic state is 1-A.
 Alpha  occ. eigenvalues --  -19.73029 -10.72208 -10.65183 -10.64688  -1.18786
 Alpha  occ. eigenvalues --   -0.93149  -0.75621  -0.66487  -0.56943  -0.55800
 Alpha  occ. eigenvalues --   -0.50568  -0.47091  -0.46325  -0.34800  -0.33843
 Alpha virt. eigenvalues --   -0.01833   0.05744   0.07031   0.07916   0.09685
 Alpha virt. eigenvalues --    0.12645   0.14005   0.15292   0.17255   0.19590
 Alpha virt. eigenvalues --    0.20099   0.21798   0.25206   0.26586   0.28542

 Mulliken charges:
               1
     1  C    0.159925
     2  O   -0.351397
     3  C   -0.039850
     4  C   -0.126788
     5  H    0.103577
     6  H    0.083131
     7  H    0.103990
     8  H    0.067412
 Sum of Mulliken charges =   0.00000

 Dipole moment (field-independent basis, Debye):
    X=             -3.5765    Y=              0.6910    Z=              0.0642  Tot=              3.6433
 Quadrupole moment (field-independent basis, Debye-Ang):
   XX=            -27.6140   YY=            -21.6827   ZZ=            -25.2595
   XY=              0.7833   XZ=              0.1703   YZ=             -0.0944

 Normal termination of Gaussian 09 at Wed Aug 26 20:14:44 2020.
