 Gaussian 09, Revision D.01,
 Gaussian 09:  ES64L-G09RevD.01 24-Apr-2013

 --------------------
 #p B2PLYPD3/Def2QZVP
 --------------------

 --------
 acrolein
 --------
 Symbolic Z-matrix:
 Charge =  0 Multiplicity = 1

                         Standard orientation:
 ---------------------------------------------------------------------
 Center     Atomic      Atomic             Coordinates (Angstroms)
 Number     Number       Type             X           Y           Z
 ---------------------------------------------------------------------
      1          6           0        0.672103    0.340630    0.027034
      2          8           0        1.807168   -0.107253   -0.023412
      3          6           0       -0.570901   -0.474244   -0.007345
      4          6           0       -1.749997    0.155173   -0.025228
      5          1           0       -0.468474   -1.536923    0.120932
      6          1           0       -1.853235    1.277033    0.001473
      7          1           0       -2.717446   -0.425833    0.014970
      8          1           0        0.474588    1.414392    0.083149
 ---------------------------------------------------------------------

 SCF Done:  E(RB2PLYPD3) =  -191.611455241     A.U. after   13 cycles
 E2(B2PLYPD3) =    -0.2482976442D+00 E(B2PLYPD3) =    -0.19185975288558D+03

 The electronic state is 1-A.
 Alpha  occ. eigenvalues --  -19.72935 -10.71782 -10.66529 -10.64692  -1.18868
 Alpha  occ. eigenvalues --   -0.92764  -0.74823  -0.67079  -0.56065  -0.55796
 Alpha  occ. eigenvalues --   -0.50521  -0.46747  -0.46070  -0.34714  -0.33835
 Alpha virt. eigenvalues --   -0.01816   0.05527   0.06948   0.07861   0.09591
 Alpha virt. eigenvalues --    0.12437   0.13861   0.15207   0.17729   0.19451
 Alpha virt. eigenvalues --    0.19981   0.21198   0.25063   0.26734   0.28667

 Mulliken charges:
               1
     1  C    0.157245
     2  O   -0.352100
     3  C   -0.041841
     4  C   -0.126372
     5  H    0.107894
     6  H    0.084627
     7  H    0.096016
     8  H    0.074531
 Sum of Mulliken charges =   0.00000

 Dipole moment (field-independent basis, Debye):
    X=             -3.5507    Y=              0.7381    Z=              0.2403  Tot=              3.6346
 Quadrupole moment (field-independent basis, Debye-Ang):
   XX=            -27.7280   YY=            -21.6732   ZZ=            -25.3386
   XY=              0.7491   XZ=             -0.0056   YZ=             -0.1559

 Normal termination of Gaussian 09 at Wed Aug 26 08:37:50 2020.
