 Gaussian 09, Revision D.01,
 Gaussian 09:  ES64L-G09RevD.01 24-Apr-2013

 --------------------
 #p B2PLYPD3/Def2QZVP
 --------------------

 --------
 acrolein
 --------
 Symbolic Z-matrix:
 Charge =  0 Multiplicity = 1

                         Standard orientation:
 ---------------------------------------------------------------------
 Center     Atomic      Atomic             Coordinates (Angstroms)
 Number     Number       Type             X           Y           Z
 ---------------------------------------------------------------------
      1          6           0        0.660293   -0.337342    0.062635
      2          8           0        1.785726    0.087006   -0.065376
      3          6           0       -0.596810    0.498573    0.020431
      4          6           0       -1.758670   -0.175891   -0.010642
      5          1           0       -0.344490    1.654617    0.167843
      6          1           0       -1.903351   -1.233418   -0.102883
      7          1           0       -2.502622    0.350622   -0.157321
      8          1           0        0.635777   -1.379906    0.180825
 ---------------------------------------------------------------------

 SCF Done:  E(RB2PLYPD3) =  -191.573940835     A.U. after   13 cycles
 E2(B2PLYPD3) =    -0.2472030921D+00 E(B2PLYPD3) =    -0.19182114392684D+03

 The electronic state is 1-A.
 Alpha  occ. eigenvalues --  -19.72245 -10.70656 -10.66287 -10.63743  -1.19276
 Alpha  occ. eigenvalues --   -0.92884  -0.76303  -0.66958  -0.57226  -0.56776
 Alpha  occ. eigenvalues --   -0.50293  -0.47485  -0.45920  -0.34630  -0.33122
 Alpha virt. eigenvalues --   -0.01424   0.05970   0.06815   0.07732   0.09480
 Alpha virt. eigenvalues --    0.12812   0.14132   0.15142   0.17026   0.19589
 Alpha virt. eigenvalues --    0.20058   0.22518   0.24538   0.26211   0.28392

 Mulliken charges:
               1
     1  C    0.153833
     2  O   -0.351282
     3  C   -0.051681
     4  C   -0.136852
     5  H    0.106863
     6  H    0.091149
     7  H    0.111562
     8  H    0.076408
 Sum of Mulliken charges =   0.00000

 Dipole moment (field-independent basis, Debye):
    X=             -3.4203    Y=             -0.7317    Z=              0.2080  Tot=              3.5039
 Quadrupole moment (field-independent basis, Debye-Ang):
   XX=            -27.7891   YY=            -21.2610   ZZ=            -25.1358
   XY=             -0.4564   XZ=              0.8572   YZ=              0.2657

 Normal termination of Gaussian 09 at Wed Aug 26 11:31:10 2020.
