 Gaussian 09, Revision D.01,
 Gaussian 09:  ES64L-G09RevD.01 24-Apr-2013

 --------------------
 #p B2PLYPD3/Def2QZVP
 --------------------

 --------
 acrolein
 --------
 Symbolic Z-matrix:
 Charge =  0 Multiplicity = 1

                         Standard orientation:
 ---------------------------------------------------------------------
 Center     Atomic      Atomic             Coordinates (Angstroms)
 Number     Number       Type             X           Y           Z
 ---------------------------------------------------------------------
      1          6           0       -0.711190    0.383990    0.070978
      2          8           0       -1.768893   -0.129027   -0.040337
      3          6           0        0.568952   -0.447913    0.013226
      4          6           0        1.764076    0.126146   -0.043447
      5          1           0        0.369411   -1.574388    0.020501
      6          1           0        1.968203    1.248900   -0.065459
      7          1           0        2.600011   -0.436422    0.106412
      8          1           0       -0.517512    1.420786    0.016703
 ---------------------------------------------------------------------

 SCF Done:  E(RB2PLYPD3) =  -191.601078080     A.U. after   13 cycles
 E2(B2PLYPD3) =    -0.2459920282D+00 E(B2PLYPD3) =    -0.19184707010791D+03

 The electronic state is 1-A.
 Alpha  occ. eigenvalues --  -19.73176 -10.71218 -10.64756 -10.64551  -1.21625
 Alpha  occ. eigenvalues --   -0.91794  -0.75140  -0.66804  -0.57000  -0.55505
 Alpha  occ. eigenvalues --   -0.51696  -0.47700  -0.45775  -0.34704  -0.33297
 Alpha virt. eigenvalues --   -0.01005   0.05830   0.07379   0.07837   0.09625
 Alpha virt. eigenvalues --    0.12557   0.14098   0.15570   0.17323   0.19289
 Alpha virt. eigenvalues --    0.19739   0.22480   0.25478   0.26739   0.27911

 Mulliken charges:
               1
     1  C    0.174373
     2  O   -0.327534
     3  C   -0.071378
     4  C   -0.133286
     5  H    0.100976
     6  H    0.072742
     7  H    0.101274
     8  H    0.082832
 Sum of Mulliken charges =   0.00000

 Dipole moment (field-independent basis, Debye):
    X=              3.0154    Y=              0.8909    Z=              0.2387  Tot=              3.1533
 Quadrupole moment (field-independent basis, Debye-Ang):
   XX=            -27.3691   YY=            -21.6243   ZZ=            -25.2048
   XY=             -0.7236   XZ=             -0.0166   YZ=             -0.1439

 Normal termination of Gaussian 09 at Wed Aug 26 10:35:54 2020.
