 Gaussian 09, Revision D.01,
 Gaussian 09:  ES64L-G09RevD.01 24-Apr-2013

 --------------------
 #p B2PLYPD3/Def2QZVP
 --------------------

 --------
 acrolein
 --------
 Symbolic Z-matrix:
 Charge =  0 Multiplicity = 1

                         Standard orientation:
 ---------------------------------------------------------------------
 Center     Atomic      Atomic             Coordinates (Angstroms)
 Number     Number       Type             X           Y           Z
 ---------------------------------------------------------------------
      1          6           0       -0.673190    0.347997    0.004212
      2          8           0       -1.787070   -0.111954    0.003925
      3          6           0        0.566781   -0.462910   -0.018842
      4          6           0        1.753884    0.144087    0.002618
      5          1           0        0.443052   -1.553327    0.014395
      6          1           0        1.860930    1.252472   -0.006518
      7          1           0        2.636469   -0.391595    0.041939
      8          1           0       -0.528745    1.413041   -0.009150
 ---------------------------------------------------------------------

 SCF Done:  E(RB2PLYPD3) =  -191.614532423     A.U. after   12 cycles
 E2(B2PLYPD3) =    -0.2465688916D+00 E(B2PLYPD3) =    -0.19186110131502D+03

 The electronic state is 1-A.
 Alpha  occ. eigenvalues --  -19.72675 -10.71176 -10.65190 -10.64615  -1.19763
 Alpha  occ. eigenvalues --   -0.92805  -0.75580  -0.67138  -0.56815  -0.56373
 Alpha  occ. eigenvalues --   -0.50823  -0.46828  -0.46808  -0.34662  -0.33765
 Alpha virt. eigenvalues --   -0.01520   0.05783   0.07248   0.08136   0.09674
 Alpha virt. eigenvalues --    0.12612   0.14226   0.15367   0.17423   0.19665
 Alpha virt. eigenvalues --    0.19987   0.21839   0.25406   0.26541   0.28662

 Mulliken charges:
               1
     1  C    0.158152
     2  O   -0.346926
     3  C   -0.046587
     4  C   -0.129563
     5  H    0.104123
     6  H    0.081730
     7  H    0.103205
     8  H    0.075866
 Sum of Mulliken charges =   0.00000

 Dipole moment (field-independent basis, Debye):
    X=              3.4540    Y=              0.7611    Z=              0.0389  Tot=              3.5371
 Quadrupole moment (field-independent basis, Debye-Ang):
   XX=            -27.4592   YY=            -21.6227   ZZ=            -25.1877
   XY=             -0.8339   XZ=              0.1305   YZ=             -0.0671

 Normal termination of Gaussian 09 at Wed Aug 26 19:11:45 2020.
