 Gaussian 09, Revision D.01,
 Gaussian 09:  ES64L-G09RevD.01 24-Apr-2013

 --------------------
 #p B2PLYPD3/Def2QZVP
 --------------------

 --------
 acrolein
 --------
 Symbolic Z-matrix:
 Charge =  0 Multiplicity = 1

                         Standard orientation:
 ---------------------------------------------------------------------
 Center     Atomic      Atomic             Coordinates (Angstroms)
 Number     Number       Type             X           Y           Z
 ---------------------------------------------------------------------
      1          6           0        0.666379    0.344993    0.057608
      2          8           0        1.813570   -0.097001   -0.056370
      3          6           0       -0.604177   -0.486507    0.073652
      4          6           0       -1.741389    0.156625   -0.068133
      5          1           0       -0.439891   -1.633007   -0.014434
      6          1           0       -1.976087    1.360130   -0.053288
      7          1           0       -2.587906   -0.419078    0.015460
      8          1           0        0.570445    1.377303    0.124460
 ---------------------------------------------------------------------

 SCF Done:  E(RB2PLYPD3) =  -191.586702674     A.U. after   13 cycles
 E2(B2PLYPD3) =    -0.2489478960D+00 E(B2PLYPD3) =    -0.19183565056990D+03

 The electronic state is 1-A.
 Alpha  occ. eigenvalues --  -19.72691 -10.71370 -10.65958 -10.65712  -1.17926
 Alpha  occ. eigenvalues --   -0.92936  -0.75204  -0.66550  -0.56257  -0.55294
 Alpha  occ. eigenvalues --   -0.50329  -0.45774  -0.45228  -0.35199  -0.33550
 Alpha virt. eigenvalues --   -0.01535   0.05279   0.06695   0.07449   0.09398
 Alpha virt. eigenvalues --    0.12175   0.13797   0.15427   0.17300   0.18593
 Alpha virt. eigenvalues --    0.19952   0.22066   0.24741   0.26435   0.28058

 Mulliken charges:
               1
     1  C    0.163862
     2  O   -0.361242
     3  C   -0.063446
     4  C   -0.113439
     5  H    0.107161
     6  H    0.081695
     7  H    0.098232
     8  H    0.087176
 Sum of Mulliken charges =   0.00000

 Dipole moment (field-independent basis, Debye):
    X=             -3.5682    Y=              0.7662    Z=              0.2024  Tot=              3.6552
 Quadrupole moment (field-independent basis, Debye-Ang):
   XX=            -28.0463   YY=            -21.2451   ZZ=            -25.3900
   XY=              0.6035   XZ=              0.3428   YZ=              0.0519

 Normal termination of Gaussian 09 at Wed Aug 26 10:53:36 2020.
