 Gaussian 09, Revision D.01,
 Gaussian 09:  ES64L-G09RevD.01 24-Apr-2013

 --------------------
 #p B2PLYPD3/Def2QZVP
 --------------------

 --------
 acrolein
 --------
 Symbolic Z-matrix:
 Charge =  0 Multiplicity = 1

                         Standard orientation:
 ---------------------------------------------------------------------
 Center     Atomic      Atomic             Coordinates (Angstroms)
 Number     Number       Type             X           Y           Z
 ---------------------------------------------------------------------
      1          6           0       -0.693480    0.349721    0.086322
      2          8           0       -1.761078   -0.138682   -0.074940
      3          6           0        0.537451   -0.427819    0.077856
      4          6           0        1.777023    0.135856   -0.065101
      5          1           0        0.438714   -1.381930    0.088866
      6          1           0        1.758711    1.196772    0.038438
      7          1           0        2.772196   -0.441137   -0.128538
      8          1           0       -0.606964    1.389202    0.006293
 ---------------------------------------------------------------------

 SCF Done:  E(RB2PLYPD3) =  -191.591729691     A.U. after   13 cycles
 E2(B2PLYPD3) =    -0.2461961379D+00 E(B2PLYPD3) =    -0.19183792582915D+03

 The electronic state is 1-A.
 Alpha  occ. eigenvalues --  -19.72531 -10.70423 -10.66313 -10.63175  -1.21160
 Alpha  occ. eigenvalues --   -0.92542  -0.75333  -0.69299  -0.57561  -0.55955
 Alpha  occ. eigenvalues --   -0.50697  -0.47868  -0.47291  -0.34107  -0.33671
 Alpha virt. eigenvalues --   -0.01916   0.05685   0.07679   0.08203   0.09864
 Alpha virt. eigenvalues --    0.12314   0.13918   0.15403   0.18585   0.19538
 Alpha virt. eigenvalues --    0.20203   0.21005   0.24582   0.26570   0.29637

 Mulliken charges:
               1
     1  C    0.151602
     2  O   -0.337092
     3  C   -0.046133
     4  C   -0.142622
     5  H    0.115953
     6  H    0.083048
     7  H    0.103486
     8  H    0.071758
 Sum of Mulliken charges =   0.00000

 Dipole moment (field-independent basis, Debye):
    X=              3.2757    Y=              0.7962    Z=              0.2579  Tot=              3.3809
 Quadrupole moment (field-independent basis, Debye-Ang):
   XX=            -26.8950   YY=            -21.9709   ZZ=            -25.0985
   XY=             -1.4085   XZ=             -0.5939   YZ=              0.0434

 Normal termination of Gaussian 09 at Wed Aug 26 13:23:17 2020.
