 Gaussian 09, Revision D.01,
 Gaussian 09:  ES64L-G09RevD.01 24-Apr-2013

 --------------------
 #p B2PLYPD3/Def2QZVP
 --------------------

 --------
 acrolein
 --------
 Symbolic Z-matrix:
 Charge =  0 Multiplicity = 1

                         Standard orientation:
 ---------------------------------------------------------------------
 Center     Atomic      Atomic             Coordinates (Angstroms)
 Number     Number       Type             X           Y           Z
 ---------------------------------------------------------------------
      1          6           0       -0.675424    0.361038   -0.009717
      2          8           0       -1.788664   -0.129361    0.010587
      3          6           0        0.557218   -0.439334   -0.026029
      4          6           0        1.761132    0.137418    0.005771
      5          1           0        0.423528   -1.538246    0.033998
      6          1           0        1.834234    1.180879    0.011686
      7          1           0        2.692658   -0.428766    0.039792
      8          1           0       -0.498664    1.466293    0.009679
 ---------------------------------------------------------------------

 SCF Done:  E(RB2PLYPD3) =  -191.614781749     A.U. after   12 cycles
 E2(B2PLYPD3) =    -0.2476433371D+00 E(B2PLYPD3) =    -0.19186242508587D+03

 The electronic state is 1-A.
 Alpha  occ. eigenvalues --  -19.72974 -10.71906 -10.65234 -10.64644  -1.19264
 Alpha  occ. eigenvalues --   -0.92951  -0.75612  -0.66768  -0.56601  -0.56308
 Alpha  occ. eigenvalues --   -0.50573  -0.46847  -0.46539  -0.34627  -0.33955
 Alpha virt. eigenvalues --   -0.01899   0.05760   0.07067   0.08110   0.09790
 Alpha virt. eigenvalues --    0.12563   0.13921   0.15341   0.17299   0.19931
 Alpha virt. eigenvalues --    0.19995   0.21671   0.25410   0.26451   0.28767

 Mulliken charges:
               1
     1  C    0.156236
     2  O   -0.350048
     3  C   -0.035269
     4  C   -0.133041
     5  H    0.103309
     6  H    0.084854
     7  H    0.103500
     8  H    0.070459
 Sum of Mulliken charges =   0.00000

 Dipole moment (field-independent basis, Debye):
    X=              3.4916    Y=              0.8075    Z=              0.0454  Tot=              3.5840
 Quadrupole moment (field-independent basis, Debye-Ang):
   XX=            -27.3807   YY=            -21.7939   ZZ=            -25.2489
   XY=             -0.9254   XZ=              0.1917   YZ=             -0.0686

 Normal termination of Gaussian 09 at Wed Aug 26 15:39:53 2020.
