 Gaussian 09, Revision D.01,
 Gaussian 09:  ES64L-G09RevD.01 24-Apr-2013

 --------------------
 #p B2PLYPD3/Def2QZVP
 --------------------

 --------
 acrolein
 --------
 Symbolic Z-matrix:
 Charge =  0 Multiplicity = 1

                         Standard orientation:
 ---------------------------------------------------------------------
 Center     Atomic      Atomic             Coordinates (Angstroms)
 Number     Number       Type             X           Y           Z
 ---------------------------------------------------------------------
      1          6           0       -0.671338    0.351099    0.006739
      2          8           0       -1.786540   -0.126109    0.000218
      3          6           0        0.559266   -0.442837   -0.012556
      4          6           0        1.750593    0.138498   -0.007940
      5          1           0        0.445881   -1.497742    0.015184
      6          1           0        1.805894    1.178986   -0.006932
      7          1           0        2.696063   -0.411177    0.061846
      8          1           0       -0.486644    1.458241    0.010700
 ---------------------------------------------------------------------

 SCF Done:  E(RB2PLYPD3) =  -191.615197672     A.U. after   12 cycles
 E2(B2PLYPD3) =    -0.2470175015D+00 E(B2PLYPD3) =    -0.19186221517375D+03

 The electronic state is 1-A.
 Alpha  occ. eigenvalues --  -19.72953 -10.71795 -10.65067 -10.63978  -1.19461
 Alpha  occ. eigenvalues --   -0.93417  -0.75608  -0.67313  -0.56665  -0.56522
 Alpha  occ. eigenvalues --   -0.50700  -0.47148  -0.46819  -0.34812  -0.33913
 Alpha virt. eigenvalues --   -0.01779   0.05783   0.07236   0.08231   0.09807
 Alpha virt. eigenvalues --    0.12647   0.13969   0.15351   0.17523   0.19881
 Alpha virt. eigenvalues --    0.20075   0.21588   0.25575   0.26422   0.28829

 Mulliken charges:
               1
     1  C    0.152878
     2  O   -0.348925
     3  C   -0.030102
     4  C   -0.131555
     5  H    0.105945
     6  H    0.084017
     7  H    0.100947
     8  H    0.066796
 Sum of Mulliken charges =   0.00000

 Dipole moment (field-independent basis, Debye):
    X=              3.4967    Y=              0.7574    Z=              0.0734  Tot=              3.5785
 Quadrupole moment (field-independent basis, Debye-Ang):
   XX=            -27.3342   YY=            -21.8703   ZZ=            -25.1351
   XY=             -0.9251   XZ=              0.1623   YZ=             -0.0653

 Normal termination of Gaussian 09 at Wed Aug 26 11:29:16 2020.
