 Gaussian 09, Revision D.01,
 Gaussian 09:  ES64L-G09RevD.01 24-Apr-2013

 --------------------
 #p B2PLYPD3/Def2QZVP
 --------------------

 --------
 acrolein
 --------
 Symbolic Z-matrix:
 Charge =  0 Multiplicity = 1

                         Standard orientation:
 ---------------------------------------------------------------------
 Center     Atomic      Atomic             Coordinates (Angstroms)
 Number     Number       Type             X           Y           Z
 ---------------------------------------------------------------------
      1          6           0       -0.646919    0.323155    0.022775
      2          8           0       -1.788622   -0.079263   -0.043591
      3          6           0        0.542095   -0.506627    0.035832
      4          6           0        1.768253    0.145698   -0.055031
      5          1           0        0.372844   -1.545148    0.109791
      6          1           0        1.964822    1.419360   -0.031423
      7          1           0        2.570567   -0.450247    0.030818
      8          1           0       -0.579834    1.436781    0.218088
 ---------------------------------------------------------------------

 SCF Done:  E(RB2PLYPD3) =  -191.578210586     A.U. after   13 cycles
 E2(B2PLYPD3) =    -0.2497222214D+00 E(B2PLYPD3) =    -0.19182793280765D+03

 The electronic state is 1-A.
 Alpha  occ. eigenvalues --  -19.72154 -10.71095 -10.67773 -10.65448  -1.19064
 Alpha  occ. eigenvalues --   -0.92221  -0.75711  -0.66240  -0.56592  -0.55046
 Alpha  occ. eigenvalues --   -0.49833  -0.46948  -0.46114  -0.33967  -0.33193
 Alpha virt. eigenvalues --   -0.02540   0.04820   0.06764   0.08184   0.09375
 Alpha virt. eigenvalues --    0.11763   0.13897   0.15307   0.17548   0.18314
 Alpha virt. eigenvalues --    0.20042   0.21830   0.24488   0.26404   0.28373

 Mulliken charges:
               1
     1  C    0.159063
     2  O   -0.353117
     3  C   -0.062102
     4  C   -0.125894
     5  H    0.116664
     6  H    0.095662
     7  H    0.107610
     8  H    0.062114
 Sum of Mulliken charges =   0.00000

 Dipole moment (field-independent basis, Debye):
    X=              3.6429    Y=              0.5486    Z=              0.2973  Tot=              3.6960
 Quadrupole moment (field-independent basis, Debye-Ang):
   XX=            -27.7364   YY=            -21.3280   ZZ=            -25.5211
   XY=             -0.4957   XZ=             -0.1793   YZ=             -0.1382

 Normal termination of Gaussian 09 at Wed Aug 26 14:19:40 2020.
