 Gaussian 09, Revision D.01,
 Gaussian 09:  ES64L-G09RevD.01 24-Apr-2013

 --------------------
 #p B2PLYPD3/Def2QZVP
 --------------------

 --------
 acrolein
 --------
 Symbolic Z-matrix:
 Charge =  0 Multiplicity = 1

                         Standard orientation:
 ---------------------------------------------------------------------
 Center     Atomic      Atomic             Coordinates (Angstroms)
 Number     Number       Type             X           Y           Z
 ---------------------------------------------------------------------
      1          6           0       -0.673935    0.343170    0.002921
      2          8           0       -1.791079   -0.112737   -0.001891
      3          6           0        0.573695   -0.463157   -0.011897
      4          6           0        1.750409    0.141372    0.008739
      5          1           0        0.452752   -1.494930    0.036368
      6          1           0        1.857241    1.271685   -0.015765
      7          1           0        2.633641   -0.409194   -0.017588
      8          1           0       -0.516015    1.406032    0.013531
 ---------------------------------------------------------------------

 SCF Done:  E(RB2PLYPD3) =  -191.612998983     A.U. after   12 cycles
 E2(B2PLYPD3) =    -0.2463237721D+00 E(B2PLYPD3) =    -0.19185932275490D+03

 The electronic state is 1-A.
 Alpha  occ. eigenvalues --  -19.72761 -10.71202 -10.65312 -10.63890  -1.19696
 Alpha  occ. eigenvalues --   -0.93150  -0.75459  -0.67654  -0.56933  -0.56278
 Alpha  occ. eigenvalues --   -0.51021  -0.47075  -0.46724  -0.34884  -0.33740
 Alpha virt. eigenvalues --   -0.01425   0.05736   0.07441   0.08136   0.09685
 Alpha virt. eigenvalues --    0.12593   0.14019   0.15349   0.17805   0.19462
 Alpha virt. eigenvalues --    0.19961   0.21755   0.25460   0.26679   0.28644

 Mulliken charges:
               1
     1  C    0.158342
     2  O   -0.348230
     3  C   -0.048776
     4  C   -0.126868
     5  H    0.108447
     6  H    0.080667
     7  H    0.101556
     8  H    0.074863
 Sum of Mulliken charges =   0.00000

 Dipole moment (field-independent basis, Debye):
    X=              3.4514    Y=              0.7323    Z=              0.0183  Tot=              3.5283
 Quadrupole moment (field-independent basis, Debye-Ang):
   XX=            -27.5201   YY=            -21.6659   ZZ=            -25.1188
   XY=             -0.8624   XZ=             -0.0557   YZ=             -0.0666

 Normal termination of Gaussian 09 at Wed Aug 26 16:20:14 2020.
