 Gaussian 09, Revision D.01,
 Gaussian 09:  ES64L-G09RevD.01 24-Apr-2013

 --------------------
 #p B2PLYPD3/Def2QZVP
 --------------------

 --------
 acrolein
 --------
 Symbolic Z-matrix:
 Charge =  0 Multiplicity = 1

                         Standard orientation:
 ---------------------------------------------------------------------
 Center     Atomic      Atomic             Coordinates (Angstroms)
 Number     Number       Type             X           Y           Z
 ---------------------------------------------------------------------
      1          6           0        0.663930    0.348403    0.017454
      2          8           0        1.783783   -0.131629   -0.022392
      3          6           0       -0.566454   -0.433695    0.034708
      4          6           0       -1.745451    0.139993   -0.012124
      5          1           0       -0.447146   -1.496252   -0.005081
      6          1           0       -1.756672    1.178540   -0.040454
      7          1           0       -2.691675   -0.420917   -0.054808
      8          1           0        0.513079    1.463454    0.039248
 ---------------------------------------------------------------------

 SCF Done:  E(RB2PLYPD3) =  -191.613979065     A.U. after   12 cycles
 E2(B2PLYPD3) =    -0.2471058471D+00 E(B2PLYPD3) =    -0.19186108491239D+03

 The electronic state is 1-A.
 Alpha  occ. eigenvalues --  -19.72905 -10.71818 -10.64927 -10.63842  -1.19083
 Alpha  occ. eigenvalues --   -0.93900  -0.75605  -0.67177  -0.56848  -0.56475
 Alpha  occ. eigenvalues --   -0.50576  -0.46975  -0.46673  -0.35063  -0.33923
 Alpha virt. eigenvalues --   -0.01741   0.05802   0.07103   0.08302   0.09862
 Alpha virt. eigenvalues --    0.12607   0.13837   0.15315   0.17446   0.19843
 Alpha virt. eigenvalues --    0.20181   0.21523   0.25670   0.26340   0.29091

 Mulliken charges:
               1
     1  C    0.151507
     2  O   -0.352685
     3  C   -0.025570
     4  C   -0.129915
     5  H    0.103417
     6  H    0.084124
     7  H    0.104622
     8  H    0.064500
 Sum of Mulliken charges =   0.00000

 Dipole moment (field-independent basis, Debye):
    X=             -3.5215    Y=              0.7551    Z=             -0.0062  Tot=              3.6016
 Quadrupole moment (field-independent basis, Debye-Ang):
   XX=            -27.3946   YY=            -21.8808   ZZ=            -25.1032
   XY=              1.0991   XZ=              0.3160   YZ=              0.0234

 Normal termination of Gaussian 09 at Wed Aug 26 15:29:15 2020.
