 Gaussian 09, Revision D.01,
 Gaussian 09:  ES64L-G09RevD.01 24-Apr-2013

 --------------------
 #p B2PLYPD3/Def2QZVP
 --------------------

 --------
 acrolein
 --------
 Symbolic Z-matrix:
 Charge =  0 Multiplicity = 1

                         Standard orientation:
 ---------------------------------------------------------------------
 Center     Atomic      Atomic             Coordinates (Angstroms)
 Number     Number       Type             X           Y           Z
 ---------------------------------------------------------------------
      1          6           0        0.679421    0.338722   -0.028002
      2          8           0        1.792650   -0.110975    0.025073
      3          6           0       -0.563699   -0.465578   -0.030602
      4          6           0       -1.764672    0.155260    0.021831
      5          1           0       -0.455323   -1.555963   -0.017793
      6          1           0       -1.834106    1.236290   -0.020613
      7          1           0       -2.664998   -0.414025    0.060951
      8          1           0        0.506920    1.451074   -0.002495
 ---------------------------------------------------------------------

 SCF Done:  E(RB2PLYPD3) =  -191.615669716     A.U. after   12 cycles
 E2(B2PLYPD3) =    -0.2473564084D+00 E(B2PLYPD3) =    -0.19186302612483D+03

 The electronic state is 1-A.
 Alpha  occ. eigenvalues --  -19.72870 -10.71729 -10.65631 -10.64917  -1.20063
 Alpha  occ. eigenvalues --   -0.92459  -0.75271  -0.66561  -0.56466  -0.56225
 Alpha  occ. eigenvalues --   -0.50524  -0.47359  -0.46976  -0.34414  -0.33708
 Alpha virt. eigenvalues --   -0.01788   0.05810   0.07092   0.08112   0.09720
 Alpha virt. eigenvalues --    0.12599   0.13974   0.15372   0.17358   0.19810
 Alpha virt. eigenvalues --    0.20015   0.21581   0.25108   0.26479   0.28648

 Mulliken charges:
               1
     1  C    0.157921
     2  O   -0.340804
     3  C   -0.041309
     4  C   -0.134545
     5  H    0.103227
     6  H    0.089040
     7  H    0.104629
     8  H    0.061840
 Sum of Mulliken charges =   0.00000

 Dipole moment (field-independent basis, Debye):
    X=             -3.4531    Y=              0.6859    Z=             -0.0660  Tot=              3.5212
 Quadrupole moment (field-independent basis, Debye-Ang):
   XX=            -27.4268   YY=            -21.7358   ZZ=            -25.3079
   XY=              0.8352   XZ=             -0.2318   YZ=             -0.0484

 Normal termination of Gaussian 09 at Wed Aug 26 15:53:42 2020.
