 Gaussian 09, Revision D.01,
 Gaussian 09:  ES64L-G09RevD.01 24-Apr-2013

 --------------------
 #p B2PLYPD3/Def2QZVP
 --------------------

 --------
 acrolein
 --------
 Symbolic Z-matrix:
 Charge =  0 Multiplicity = 1

                         Standard orientation:
 ---------------------------------------------------------------------
 Center     Atomic      Atomic             Coordinates (Angstroms)
 Number     Number       Type             X           Y           Z
 ---------------------------------------------------------------------
      1          6           0        0.677135    0.334274   -0.031078
      2          8           0        1.800357   -0.103550    0.021340
      3          6           0       -0.574424   -0.464946   -0.031361
      4          6           0       -1.765333    0.163197    0.019584
      5          1           0       -0.416320   -1.616583   -0.001159
      6          1           0       -1.835795    1.257927   -0.066401
      7          1           0       -2.685544   -0.434700    0.088464
      8          1           0        0.510529    1.426609    0.065509
 ---------------------------------------------------------------------

 SCF Done:  E(RB2PLYPD3) =  -191.609866070     A.U. after   13 cycles
 E2(B2PLYPD3) =    -0.2481442200D+00 E(B2PLYPD3) =    -0.19185801028978D+03

 The electronic state is 1-A.
 Alpha  occ. eigenvalues --  -19.72888 -10.71643 -10.66201 -10.65627  -1.19747
 Alpha  occ. eigenvalues --   -0.92373  -0.75010  -0.65954  -0.56114  -0.55950
 Alpha  occ. eigenvalues --   -0.50319  -0.46787  -0.46457  -0.34575  -0.33667
 Alpha virt. eigenvalues --   -0.01824   0.05714   0.06736   0.07953   0.09678
 Alpha virt. eigenvalues --    0.12489   0.13868   0.15305   0.17040   0.19534
 Alpha virt. eigenvalues --    0.20132   0.21476   0.24791   0.26768   0.28527

 Mulliken charges:
               1
     1  C    0.163538
     2  O   -0.343974
     3  C   -0.043146
     4  C   -0.134176
     5  H    0.098020
     6  H    0.092569
     7  H    0.106181
     8  H    0.060988
 Sum of Mulliken charges =   0.00000

 Dipole moment (field-independent basis, Debye):
    X=             -3.4695    Y=              0.6955    Z=             -0.0423  Tot=              3.5388
 Quadrupole moment (field-independent basis, Debye-Ang):
   XX=            -27.6104   YY=            -21.7025   ZZ=            -25.4029
   XY=              0.7404   XZ=             -0.2051   YZ=             -0.1272

 Normal termination of Gaussian 09 at Wed Aug 26 09:30:22 2020.
