 Gaussian 09, Revision D.01,
 Gaussian 09:  ES64L-G09RevD.01 24-Apr-2013

 --------------------
 #p B2PLYPD3/Def2QZVP
 --------------------

 --------
 acrolein
 --------
 Symbolic Z-matrix:
 Charge =  0 Multiplicity = 1

                         Standard orientation:
 ---------------------------------------------------------------------
 Center     Atomic      Atomic             Coordinates (Angstroms)
 Number     Number       Type             X           Y           Z
 ---------------------------------------------------------------------
      1          6           0       -0.654173    0.312133   -0.022914
      2          8           0       -1.830537   -0.096577    0.029749
      3          6           0        0.596007   -0.459567   -0.089519
      4          6           0        1.753257    0.145672   -0.003242
      5          1           0        0.424763   -1.454886    0.164042
      6          1           0        1.812134    1.175880    0.081655
      7          1           0        2.645492   -0.378819    0.186061
      8          1           0       -0.408637    1.441008    0.024302
 ---------------------------------------------------------------------

 SCF Done:  E(RB2PLYPD3) =  -191.599586691     A.U. after   13 cycles
 E2(B2PLYPD3) =    -0.2490628831D+00 E(B2PLYPD3) =    -0.19184864957421D+03

 The electronic state is 1-A.
 Alpha  occ. eigenvalues --  -19.73342 -10.72611 -10.64981 -10.64157  -1.17539
 Alpha  occ. eigenvalues --   -0.94587  -0.76584  -0.67223  -0.57500  -0.56046
 Alpha  occ. eigenvalues --   -0.50617  -0.47703  -0.45542  -0.35470  -0.33696
 Alpha virt. eigenvalues --   -0.02510   0.05728   0.07062   0.07814   0.09763
 Alpha virt. eigenvalues --    0.12976   0.13401   0.15034   0.17694   0.19579
 Alpha virt. eigenvalues --    0.19946   0.21955   0.24412   0.26873   0.28509

 Mulliken charges:
               1
     1  C    0.156957
     2  O   -0.362345
     3  C   -0.021815
     4  C   -0.103893
     5  H    0.101581
     6  H    0.083848
     7  H    0.098225
     8  H    0.047443
 Sum of Mulliken charges =   0.00000

 Dipole moment (field-independent basis, Debye):
    X=              3.8096    Y=              0.6225    Z=              0.2900  Tot=              3.8710
 Quadrupole moment (field-independent basis, Debye-Ang):
   XX=            -27.5948   YY=            -22.2529   ZZ=            -24.9927
   XY=             -0.4689   XZ=              0.8227   YZ=             -0.2514

 Normal termination of Gaussian 09 at Wed Aug 26 11:20:36 2020.
