 Gaussian 09, Revision D.01,
 Gaussian 09:  ES64L-G09RevD.01 24-Apr-2013

 --------------------
 #p B2PLYPD3/Def2QZVP
 --------------------

 --------
 acrolein
 --------
 Symbolic Z-matrix:
 Charge =  0 Multiplicity = 1

                         Standard orientation:
 ---------------------------------------------------------------------
 Center     Atomic      Atomic             Coordinates (Angstroms)
 Number     Number       Type             X           Y           Z
 ---------------------------------------------------------------------
      1          6           0       -0.694604    0.371227    0.010833
      2          8           0       -1.780312   -0.135050    0.001402
      3          6           0        0.572407   -0.440870    0.000195
      4          6           0        1.767446    0.154105   -0.023075
      5          1           0        0.420082   -1.542337   -0.083326
      6          1           0        1.803062    1.148141   -0.077699
      7          1           0        2.643377   -0.458470    0.189333
      8          1           0       -0.495519    1.426296    0.032764
 ---------------------------------------------------------------------

 SCF Done:  E(RB2PLYPD3) =  -191.605575388     A.U. after   13 cycles
 E2(B2PLYPD3) =    -0.2465213975D+00 E(B2PLYPD3) =    -0.19185209678576D+03

 The electronic state is 1-A.
 Alpha  occ. eigenvalues --  -19.73103 -10.71486 -10.64492 -10.64233  -1.20454
 Alpha  occ. eigenvalues --   -0.92671  -0.75393  -0.67446  -0.57324  -0.56071
 Alpha  occ. eigenvalues --   -0.50785  -0.47645  -0.46798  -0.34597  -0.33529
 Alpha virt. eigenvalues --   -0.01504   0.05928   0.07251   0.07909   0.09926
 Alpha virt. eigenvalues --    0.12648   0.13710   0.15438   0.17480   0.19486
 Alpha virt. eigenvalues --    0.20156   0.22037   0.25434   0.26702   0.28541

 Mulliken charges:
               1
     1  C    0.153762
     2  O   -0.339038
     3  C   -0.042359
     4  C   -0.143880
     5  H    0.102162
     6  H    0.086043
     7  H    0.104501
     8  H    0.078809
 Sum of Mulliken charges =   0.00000

 Dipole moment (field-independent basis, Debye):
    X=              3.2072    Y=              0.8731    Z=              0.0487  Tot=              3.3243
 Quadrupole moment (field-independent basis, Debye-Ang):
   XX=            -27.6756   YY=            -21.6720   ZZ=            -25.1101
   XY=             -0.9988   XZ=              0.3197   YZ=             -0.0812

 Normal termination of Gaussian 09 at Wed Aug 26 14:46:34 2020.
