 Gaussian 09, Revision D.01,
 Gaussian 09:  ES64L-G09RevD.01 24-Apr-2013

 --------------------
 #p B2PLYPD3/Def2QZVP
 --------------------

 --------
 acrolein
 --------
 Symbolic Z-matrix:
 Charge =  0 Multiplicity = 1

                         Standard orientation:
 ---------------------------------------------------------------------
 Center     Atomic      Atomic             Coordinates (Angstroms)
 Number     Number       Type             X           Y           Z
 ---------------------------------------------------------------------
      1          6           0       -0.676398    0.359260    0.043208
      2          8           0       -1.767800   -0.133748   -0.038653
      3          6           0        0.547267   -0.441142    0.017993
      4          6           0        1.744044    0.140861   -0.025277
      5          1           0        0.408254   -1.487860    0.088605
      6          1           0        1.792966    1.158612   -0.050214
      7          1           0        2.808331   -0.400310   -0.024142
      8          1           0       -0.556629    1.445670    0.079436
 ---------------------------------------------------------------------

 SCF Done:  E(RB2PLYPD3) =  -191.605928199     A.U. after   13 cycles
 E2(B2PLYPD3) =    -0.2466057528D+00 E(B2PLYPD3) =    -0.19185253395191D+03

 The electronic state is 1-A.
 Alpha  occ. eigenvalues --  -19.72698 -10.71248 -10.65744 -10.64009  -1.20213
 Alpha  occ. eigenvalues --   -0.93051  -0.75074  -0.67829  -0.57351  -0.55612
 Alpha  occ. eigenvalues --   -0.50613  -0.47199  -0.46437  -0.34638  -0.33873
 Alpha virt. eigenvalues --   -0.01536   0.05584   0.07256   0.08245   0.09729
 Alpha virt. eigenvalues --    0.12270   0.14142   0.15345   0.17704   0.19847
 Alpha virt. eigenvalues --    0.20118   0.21075   0.25582   0.26269   0.29222

 Mulliken charges:
               1
     1  C    0.149341
     2  O   -0.344768
     3  C   -0.036300
     4  C   -0.132828
     5  H    0.110708
     6  H    0.086665
     7  H    0.092762
     8  H    0.074421
 Sum of Mulliken charges =   0.00000

 Dipole moment (field-independent basis, Debye):
    X=              3.3498    Y=              0.8555    Z=              0.1782  Tot=              3.4619
 Quadrupole moment (field-independent basis, Debye-Ang):
   XX=            -27.1573   YY=            -21.8765   ZZ=            -25.1713
   XY=             -0.9602   XZ=             -0.2770   YZ=             -0.1375

 Normal termination of Gaussian 09 at Wed Aug 26 09:20:05 2020.
