 Gaussian 09, Revision D.01,
 Gaussian 09:  ES64L-G09RevD.01 24-Apr-2013

 --------------------
 #p B2PLYPD3/Def2QZVP
 --------------------

 --------
 acrolein
 --------
 Symbolic Z-matrix:
 Charge =  0 Multiplicity = 1

                         Standard orientation:
 ---------------------------------------------------------------------
 Center     Atomic      Atomic             Coordinates (Angstroms)
 Number     Number       Type             X           Y           Z
 ---------------------------------------------------------------------
      1          6           0       -0.695888    0.337614    0.043232
      2          8           0       -1.791677   -0.109572   -0.044763
      3          6           0        0.558864   -0.482654    0.072352
      4          6           0        1.755738    0.148853   -0.057696
      5          1           0        0.569990   -1.489541   -0.004829
      6          1           0        1.889538    1.369737    0.038609
      7          1           0        2.630251   -0.449661   -0.057080
      8          1           0       -0.468651    1.423161    0.034078
 ---------------------------------------------------------------------

 SCF Done:  E(RB2PLYPD3) =  -191.596223549     A.U. after   13 cycles
 E2(B2PLYPD3) =    -0.2474585103D+00 E(B2PLYPD3) =    -0.19184368205961D+03

 The electronic state is 1-A.
 Alpha  occ. eigenvalues --  -19.73007 -10.71727 -10.66684 -10.64037  -1.21081
 Alpha  occ. eigenvalues --   -0.92192  -0.74493  -0.67176  -0.56545  -0.55844
 Alpha  occ. eigenvalues --   -0.50590  -0.47486  -0.46408  -0.34401  -0.33713
 Alpha virt. eigenvalues --   -0.01503   0.05454   0.07229   0.07893   0.09519
 Alpha virt. eigenvalues --    0.12327   0.13867   0.15374   0.18223   0.18954
 Alpha virt. eigenvalues --    0.19805   0.21202   0.24513   0.26724   0.28199

 Mulliken charges:
               1
     1  C    0.162558
     2  O   -0.328005
     3  C   -0.059391
     4  C   -0.126057
     5  H    0.106155
     6  H    0.074300
     7  H    0.098675
     8  H    0.071764
 Sum of Mulliken charges =   0.00000

 Dipole moment (field-independent basis, Debye):
    X=              3.3040    Y=              0.6352    Z=              0.1302  Tot=              3.3670
 Quadrupole moment (field-independent basis, Debye-Ang):
   XX=            -27.5526   YY=            -21.6563   ZZ=            -25.3613
   XY=             -1.0063   XZ=             -0.3094   YZ=              0.1530

 Normal termination of Gaussian 09 at Wed Aug 26 11:06:24 2020.
