 Gaussian 09, Revision D.01,
 Gaussian 09:  ES64L-G09RevD.01 24-Apr-2013

 --------------------
 #p B2PLYPD3/Def2QZVP
 --------------------

 --------
 acrolein
 --------
 Symbolic Z-matrix:
 Charge =  0 Multiplicity = 1

                         Standard orientation:
 ---------------------------------------------------------------------
 Center     Atomic      Atomic             Coordinates (Angstroms)
 Number     Number       Type             X           Y           Z
 ---------------------------------------------------------------------
      1          6           0        0.652455    0.331173    0.091609
      2          8           0        1.804568   -0.093442   -0.054947
      3          6           0       -0.592817   -0.490505    0.007623
      4          6           0       -1.736958    0.166460   -0.049969
      5          1           0       -0.483416   -1.513078    0.034607
      6          1           0       -1.869212    1.263886   -0.147697
      7          1           0       -2.511080   -0.401445    0.148100
      8          1           0        0.491083    1.355410    0.108988
 ---------------------------------------------------------------------

 SCF Done:  E(RB2PLYPD3) =  -191.593270837     A.U. after   14 cycles
 E2(B2PLYPD3) =    -0.2475161699D+00 E(B2PLYPD3) =    -0.19184078700707D+03

 The electronic state is 1-A.
 Alpha  occ. eigenvalues --  -19.72673 -10.71075 -10.64378 -10.64020  -1.17763
 Alpha  occ. eigenvalues --   -0.93899  -0.76271  -0.68489  -0.57472  -0.56139
 Alpha  occ. eigenvalues --   -0.50625  -0.48328  -0.45533  -0.34854  -0.33443
 Alpha virt. eigenvalues --   -0.01956   0.05782   0.07322   0.07566   0.09751
 Alpha virt. eigenvalues --    0.12784   0.14186   0.15403   0.17653   0.19048
 Alpha virt. eigenvalues --    0.20174   0.22426   0.24864   0.26734   0.28486

 Mulliken charges:
               1
     1  C    0.151598
     2  O   -0.363737
     3  C   -0.045648
     4  C   -0.128023
     5  H    0.109733
     6  H    0.091936
     7  H    0.098056
     8  H    0.086085
 Sum of Mulliken charges =   0.00000

 Dipole moment (field-independent basis, Debye):
    X=             -3.6064    Y=              0.7347    Z=              0.3121  Tot=              3.6937
 Quadrupole moment (field-independent basis, Debye-Ang):
   XX=            -28.1919   YY=            -21.3062   ZZ=            -24.9811
   XY=              0.6201   XZ=              0.1153   YZ=             -0.2826

 Normal termination of Gaussian 09 at Wed Aug 26 13:51:25 2020.
