 Gaussian 09, Revision D.01,
 Gaussian 09:  ES64L-G09RevD.01 24-Apr-2013

 --------------------
 #p B2PLYPD3/Def2QZVP
 --------------------

 --------
 acrolein
 --------
 Symbolic Z-matrix:
 Charge =  0 Multiplicity = 1

                         Standard orientation:
 ---------------------------------------------------------------------
 Center     Atomic      Atomic             Coordinates (Angstroms)
 Number     Number       Type             X           Y           Z
 ---------------------------------------------------------------------
      1          6           0        0.676100    0.349097    0.004986
      2          8           0        1.789273   -0.117472   -0.004175
      3          6           0       -0.560019   -0.453877   -0.011667
      4          6           0       -1.755532    0.141101   -0.011246
      5          1           0       -0.483193   -1.519899    0.055008
      6          1           0       -1.866746    1.263980    0.004046
      7          1           0       -2.639482   -0.428723    0.039959
      8          1           0        0.511945    1.406490    0.041952
 ---------------------------------------------------------------------

 SCF Done:  E(RB2PLYPD3) =  -191.614599807     A.U. after   12 cycles
 E2(B2PLYPD3) =    -0.2467387447D+00 E(B2PLYPD3) =    -0.19186133855215D+03

 The electronic state is 1-A.
 Alpha  occ. eigenvalues --  -19.72734 -10.71204 -10.65544 -10.64232  -1.19681
 Alpha  occ. eigenvalues --   -0.92883  -0.75568  -0.67348  -0.56600  -0.56460
 Alpha  occ. eigenvalues --   -0.50748  -0.47005  -0.46625  -0.34616  -0.33884
 Alpha virt. eigenvalues --   -0.01651   0.05728   0.07235   0.08196   0.09658
 Alpha virt. eigenvalues --    0.12577   0.14129   0.15361   0.17722   0.19479
 Alpha virt. eigenvalues --    0.19974   0.21695   0.25400   0.26624   0.28615

 Mulliken charges:
               1
     1  C    0.155937
     2  O   -0.346990
     3  C   -0.044508
     4  C   -0.130613
     5  H    0.104461
     6  H    0.080413
     7  H    0.102530
     8  H    0.078771
 Sum of Mulliken charges =   0.00000

 Dipole moment (field-independent basis, Debye):
    X=             -3.4684    Y=              0.7664    Z=              0.1206  Tot=              3.5541
 Quadrupole moment (field-independent basis, Debye-Ang):
   XX=            -27.5196   YY=            -21.6403   ZZ=            -25.1867
   XY=              0.9658   XZ=             -0.1242   YZ=             -0.0867

 Normal termination of Gaussian 09 at Wed Aug 26 18:46:46 2020.
