 Gaussian 09, Revision D.01,
 Gaussian 09:  ES64L-G09RevD.01 24-Apr-2013

 --------------------
 #p B2PLYPD3/Def2QZVP
 --------------------

 --------
 acrolein
 --------
 Symbolic Z-matrix:
 Charge =  0 Multiplicity = 1

                         Standard orientation:
 ---------------------------------------------------------------------
 Center     Atomic      Atomic             Coordinates (Angstroms)
 Number     Number       Type             X           Y           Z
 ---------------------------------------------------------------------
      1          6           0       -0.685366    0.363738    0.016201
      2          8           0       -1.773282   -0.141371   -0.016212
      3          6           0        0.542404   -0.421601    0.045978
      4          6           0        1.767022    0.133548   -0.029991
      5          1           0        0.416451   -1.514200   -0.051922
      6          1           0        1.809430    1.203077    0.032690
      7          1           0        2.771313   -0.466312   -0.017164
      8          1           0       -0.555306    1.454290   -0.027029
 ---------------------------------------------------------------------

 SCF Done:  E(RB2PLYPD3) =  -191.609199786     A.U. after   13 cycles
 E2(B2PLYPD3) =    -0.2475029489D+00 E(B2PLYPD3) =    -0.19185670273443D+03

 The electronic state is 1-A.
 Alpha  occ. eigenvalues --  -19.72803 -10.71394 -10.66379 -10.64530  -1.20299
 Alpha  occ. eigenvalues --   -0.92497  -0.75079  -0.66840  -0.56687  -0.55685
 Alpha  occ. eigenvalues --   -0.50361  -0.47281  -0.45942  -0.34489  -0.33926
 Alpha virt. eigenvalues --   -0.01896   0.05562   0.07055   0.08239   0.09798
 Alpha virt. eigenvalues --    0.12213   0.13796   0.15288   0.17705   0.19689
 Alpha virt. eigenvalues --    0.19914   0.21105   0.25007   0.26607   0.29047

 Mulliken charges:
               1
     1  C    0.154132
     2  O   -0.341648
     3  C   -0.041362
     4  C   -0.130753
     5  H    0.104836
     6  H    0.081714
     7  H    0.102437
     8  H    0.070645
 Sum of Mulliken charges =   0.00000

 Dipole moment (field-independent basis, Debye):
    X=              3.3665    Y=              0.8411    Z=              0.0090  Tot=              3.4700
 Quadrupole moment (field-independent basis, Debye-Ang):
   XX=            -27.1789   YY=            -21.9001   ZZ=            -25.3183
   XY=             -1.2087   XZ=             -0.0968   YZ=              0.1441

 Normal termination of Gaussian 09 at Wed Aug 26 09:26:27 2020.
