 Gaussian 09, Revision D.01,
 Gaussian 09:  ES64L-G09RevD.01 24-Apr-2013

 --------------------
 #p B2PLYPD3/Def2QZVP
 --------------------

 --------
 acrolein
 --------
 Symbolic Z-matrix:
 Charge =  0 Multiplicity = 1

                         Standard orientation:
 ---------------------------------------------------------------------
 Center     Atomic      Atomic             Coordinates (Angstroms)
 Number     Number       Type             X           Y           Z
 ---------------------------------------------------------------------
      1          6           0        0.679138    0.352325   -0.002631
      2          8           0        1.788153   -0.114821   -0.008782
      3          6           0       -0.581081   -0.468087   -0.001900
      4          6           0       -1.756765    0.146277   -0.004128
      5          1           0       -0.458690   -1.536323    0.063403
      6          1           0       -1.816305    1.267814   -0.032079
      7          1           0       -2.577470   -0.394319   -0.003781
      8          1           0        0.499493    1.398310    0.094664
 ---------------------------------------------------------------------

 SCF Done:  E(RB2PLYPD3) =  -191.607217939     A.U. after   12 cycles
 E2(B2PLYPD3) =    -0.2462060400D+00 E(B2PLYPD3) =    -0.19185342397909D+03

 The electronic state is 1-A.
 Alpha  occ. eigenvalues --  -19.72891 -10.71290 -10.64419 -10.64193  -1.19947
 Alpha  occ. eigenvalues --   -0.92973  -0.75746  -0.67385  -0.57393  -0.56103
 Alpha  occ. eigenvalues --   -0.51182  -0.47356  -0.46699  -0.34764  -0.33730
 Alpha virt. eigenvalues --   -0.01243   0.05878   0.07339   0.07964   0.09736
 Alpha virt. eigenvalues --    0.12698   0.14143   0.15353   0.17542   0.19489
 Alpha virt. eigenvalues --    0.20046   0.22106   0.25322   0.26891   0.28590

 Mulliken charges:
               1
     1  C    0.159657
     2  O   -0.344003
     3  C   -0.051597
     4  C   -0.134884
     5  H    0.103283
     6  H    0.081949
     7  H    0.106409
     8  H    0.079187
 Sum of Mulliken charges =   0.00000

 Dipole moment (field-independent basis, Debye):
    X=             -3.3483    Y=              0.7615    Z=              0.0788  Tot=              3.4347
 Quadrupole moment (field-independent basis, Debye-Ang):
   XX=            -27.6617   YY=            -21.5519   ZZ=            -25.1083
   XY=              0.9201   XZ=              0.0719   YZ=             -0.0966

 Normal termination of Gaussian 09 at Wed Aug 26 08:58:44 2020.
