 Gaussian 09, Revision D.01,
 Gaussian 09:  ES64L-G09RevD.01 24-Apr-2013

 --------------------
 #p B2PLYPD3/Def2QZVP
 --------------------

 --------
 acrolein
 --------
 Symbolic Z-matrix:
 Charge =  0 Multiplicity = 1

                         Standard orientation:
 ---------------------------------------------------------------------
 Center     Atomic      Atomic             Coordinates (Angstroms)
 Number     Number       Type             X           Y           Z
 ---------------------------------------------------------------------
      1          6           0        0.652874    0.332014    0.024588
      2          8           0        1.798746   -0.102092   -0.026645
      3          6           0       -0.562356   -0.463735   -0.000534
      4          6           0       -1.737759    0.144276   -0.027516
      5          1           0       -0.487710   -1.553469    0.115134
      6          1           0       -1.865256    1.302383   -0.028150
      7          1           0       -2.633656   -0.418546    0.022000
      8          1           0        0.480109    1.411036    0.124956
 ---------------------------------------------------------------------

 SCF Done:  E(RB2PLYPD3) =  -191.609998796     A.U. after   13 cycles
 E2(B2PLYPD3) =    -0.2481223269D+00 E(B2PLYPD3) =    -0.19185812112341D+03

 The electronic state is 1-A.
 Alpha  occ. eigenvalues --  -19.72684 -10.71489 -10.66108 -10.64566  -1.18435
 Alpha  occ. eigenvalues --   -0.93574  -0.75702  -0.66584  -0.56649  -0.55957
 Alpha  occ. eigenvalues --   -0.50324  -0.46670  -0.45931  -0.34946  -0.33843
 Alpha virt. eigenvalues --   -0.01956   0.05563   0.06781   0.08167   0.09598
 Alpha virt. eigenvalues --    0.12483   0.14101   0.15162   0.17496   0.19258
 Alpha virt. eigenvalues --    0.20063   0.21626   0.25191   0.26727   0.28712

 Mulliken charges:
               1
     1  C    0.154723
     2  O   -0.356960
     3  C   -0.034004
     4  C   -0.122073
     5  H    0.102600
     6  H    0.081239
     7  H    0.102219
     8  H    0.072257
 Sum of Mulliken charges =   0.00000

 Dipole moment (field-independent basis, Debye):
    X=             -3.6808    Y=              0.6779    Z=              0.2345  Tot=              3.7501
 Quadrupole moment (field-independent basis, Debye-Ang):
   XX=            -27.7025   YY=            -21.6423   ZZ=            -25.2353
   XY=              0.8008   XZ=              0.0494   YZ=             -0.1672

 Normal termination of Gaussian 09 at Wed Aug 26 09:06:23 2020.
