 Gaussian 09, Revision D.01,
 Gaussian 09:  ES64L-G09RevD.01 24-Apr-2013

 --------------------
 #p B2PLYPD3/Def2QZVP
 --------------------

 --------
 acrolein
 --------
 Symbolic Z-matrix:
 Charge =  0 Multiplicity = 1

                         Standard orientation:
 ---------------------------------------------------------------------
 Center     Atomic      Atomic             Coordinates (Angstroms)
 Number     Number       Type             X           Y           Z
 ---------------------------------------------------------------------
      1          6           0        0.695742    0.373459   -0.043017
      2          8           0        1.736450   -0.165353    0.054712
      3          6           0       -0.549276   -0.421262   -0.035906
      4          6           0       -1.738932    0.166310    0.029669
      5          1           0       -0.431019   -1.482851   -0.070624
      6          1           0       -1.725572    1.095080    0.265468
      7          1           0       -2.866221   -0.464413   -0.075897
      8          1           0        0.686008    1.463970   -0.261123
 ---------------------------------------------------------------------

 SCF Done:  E(RB2PLYPD3) =  -191.575729525     A.U. after   14 cycles
 E2(B2PLYPD3) =    -0.2460635309D+00 E(B2PLYPD3) =    -0.19182179305557D+03

 The electronic state is 1-A.
 Alpha  occ. eigenvalues --  -19.72607 -10.71211 -10.65424 -10.63909  -1.21866
 Alpha  occ. eigenvalues --   -0.92888  -0.74318  -0.67672  -0.58202  -0.54960
 Alpha  occ. eigenvalues --   -0.50258  -0.47743  -0.46218  -0.34446  -0.33540
 Alpha virt. eigenvalues --   -0.01065   0.05282   0.07024   0.07968   0.09837
 Alpha virt. eigenvalues --    0.11826   0.14033   0.15521   0.17337   0.19222
 Alpha virt. eigenvalues --    0.20421   0.21013   0.25043   0.26241   0.28856

 Mulliken charges:
               1
     1  C    0.142865
     2  O   -0.325361
     3  C   -0.053993
     4  C   -0.146255
     5  H    0.113552
     6  H    0.100154
     7  H    0.089967
     8  H    0.079070
 Sum of Mulliken charges =   0.00000

 Dipole moment (field-independent basis, Debye):
    X=             -2.9605    Y=              0.8935    Z=             -0.1368  Tot=              3.0954
 Quadrupole moment (field-independent basis, Debye-Ang):
   XX=            -27.2361   YY=            -21.8759   ZZ=            -25.1174
   XY=              1.4893   XZ=             -0.4826   YZ=              0.3523

 Normal termination of Gaussian 09 at Wed Aug 26 14:58:59 2020.
