 Gaussian 09, Revision D.01,
 Gaussian 09:  ES64L-G09RevD.01 24-Apr-2013

 --------------------
 #p B2PLYPD3/Def2QZVP
 --------------------

 --------
 acrolein
 --------
 Symbolic Z-matrix:
 Charge =  0 Multiplicity = 1

                         Standard orientation:
 ---------------------------------------------------------------------
 Center     Atomic      Atomic             Coordinates (Angstroms)
 Number     Number       Type             X           Y           Z
 ---------------------------------------------------------------------
      1          6           0        0.703850    0.388078   -0.048890
      2          8           0        1.746089   -0.160922    0.035873
      3          6           0       -0.549631   -0.423545   -0.056405
      4          6           0       -1.739053    0.134875    0.029597
      5          1           0       -0.435404   -1.485414    0.025105
      6          1           0       -1.735340    1.070474   -0.056682
      7          1           0       -2.743594   -0.415125    0.109315
      8          1           0        0.454629    1.520993    0.089464
 ---------------------------------------------------------------------

 SCF Done:  E(RB2PLYPD3) =  -191.587586993     A.U. after   13 cycles
 E2(B2PLYPD3) =    -0.2460892218D+00 E(B2PLYPD3) =    -0.19183367621504D+03

 The electronic state is 1-A.
 Alpha  occ. eigenvalues --  -19.73479 -10.72354 -10.63587 -10.63402  -1.21936
 Alpha  occ. eigenvalues --   -0.93250  -0.74870  -0.67260  -0.57066  -0.56315
 Alpha  occ. eigenvalues --   -0.51084  -0.48126  -0.46786  -0.34757  -0.33732
 Alpha virt. eigenvalues --   -0.00909   0.05869   0.07106   0.07966   0.10038
 Alpha virt. eigenvalues --    0.12555   0.13800   0.15318   0.17500   0.19592
 Alpha virt. eigenvalues --    0.20395   0.22132   0.24900   0.26802   0.28719

 Mulliken charges:
               1
     1  C    0.154146
     2  O   -0.319773
     3  C   -0.037078
     4  C   -0.148979
     5  H    0.104727
     6  H    0.088436
     7  H    0.099258
     8  H    0.059263
 Sum of Mulliken charges =   0.00000

 Dipole moment (field-independent basis, Debye):
    X=             -3.0367    Y=              0.8467    Z=             -0.0400  Tot=              3.1528
 Quadrupole moment (field-independent basis, Debye-Ang):
   XX=            -26.9372   YY=            -22.0681   ZZ=            -25.0544
   XY=              1.1168   XZ=             -0.3776   YZ=             -0.1586

 Normal termination of Gaussian 09 at Wed Aug 26 10:55:32 2020.
