 Gaussian 09, Revision D.01,
 Gaussian 09:  ES64L-G09RevD.01 24-Apr-2013

 --------------------
 #p B2PLYPD3/Def2QZVP
 --------------------

 --------
 acrolein
 --------
 Symbolic Z-matrix:
 Charge =  0 Multiplicity = 1

                         Standard orientation:
 ---------------------------------------------------------------------
 Center     Atomic      Atomic             Coordinates (Angstroms)
 Number     Number       Type             X           Y           Z
 ---------------------------------------------------------------------
      1          6           0       -0.684534    0.340035    0.039992
      2          8           0       -1.785469   -0.108098   -0.036803
      3          6           0        0.556097   -0.452927    0.063857
      4          6           0        1.776332    0.156874   -0.033318
      5          1           0        0.403366   -1.568986   -0.043174
      6          1           0        1.865949    1.238086    0.001535
      7          1           0        2.698933   -0.444123   -0.077857
      8          1           0       -0.571871    1.375917   -0.009260
 ---------------------------------------------------------------------

 SCF Done:  E(RB2PLYPD3) =  -191.609358138     A.U. after   12 cycles
 E2(B2PLYPD3) =    -0.2469057909D+00 E(B2PLYPD3) =    -0.19185626392847D+03

 The electronic state is 1-A.
 Alpha  occ. eigenvalues --  -19.72488 -10.70519 -10.66306 -10.65303  -1.20580
 Alpha  occ. eigenvalues --   -0.91942  -0.75456  -0.67263  -0.56805  -0.55887
 Alpha  occ. eigenvalues --   -0.50444  -0.47274  -0.46695  -0.34243  -0.33608
 Alpha virt. eigenvalues --   -0.01895   0.05737   0.07156   0.08232   0.09698
 Alpha virt. eigenvalues --    0.12496   0.13888   0.15400   0.17597   0.19634
 Alpha virt. eigenvalues --    0.19931   0.21469   0.24699   0.26891   0.28731

 Mulliken charges:
               1
     1  C    0.160303
     2  O   -0.342011
     3  C   -0.048812
     4  C   -0.137135
     5  H    0.102512
     6  H    0.090716
     7  H    0.104755
     8  H    0.069673
 Sum of Mulliken charges =   0.00000

 Dipole moment (field-independent basis, Debye):
    X=              3.4051    Y=              0.7871    Z=              0.0146  Tot=              3.4949
 Quadrupole moment (field-independent basis, Debye-Ang):
   XX=            -27.3392   YY=            -21.6927   ZZ=            -25.3119
   XY=             -0.8501   XZ=             -0.4002   YZ=              0.1444

 Normal termination of Gaussian 09 at Wed Aug 26 10:20:10 2020.
