 Gaussian 09, Revision D.01,
 Gaussian 09:  ES64L-G09RevD.01 24-Apr-2013

 --------------------
 #p B2PLYPD3/Def2QZVP
 --------------------

 --------
 acrolein
 --------
 Symbolic Z-matrix:
 Charge =  0 Multiplicity = 1

                         Standard orientation:
 ---------------------------------------------------------------------
 Center     Atomic      Atomic             Coordinates (Angstroms)
 Number     Number       Type             X           Y           Z
 ---------------------------------------------------------------------
      1          6           0        0.665039    0.355229    0.020267
      2          8           0        1.786150   -0.130085   -0.011928
      3          6           0       -0.558135   -0.444143    0.014091
      4          6           0       -1.749226    0.142529   -0.011961
      5          1           0       -0.440736   -1.527158   -0.008652
      6          1           0       -1.791531    1.176781    0.009925
      7          1           0       -2.718144   -0.412641   -0.014201
      8          1           0        0.515147    1.482012   -0.026033
 ---------------------------------------------------------------------

 SCF Done:  E(RB2PLYPD3) =  -191.612924522     A.U. after   12 cycles
 E2(B2PLYPD3) =    -0.2478458468D+00 E(B2PLYPD3) =    -0.19186077036865D+03

 The electronic state is 1-A.
 Alpha  occ. eigenvalues --  -19.72882 -10.72028 -10.65316 -10.64435  -1.18905
 Alpha  occ. eigenvalues --   -0.93368  -0.75415  -0.66891  -0.56642  -0.56214
 Alpha  occ. eigenvalues --   -0.50251  -0.46933  -0.46538  -0.34777  -0.33903
 Alpha virt. eigenvalues --   -0.01904   0.05731   0.06992   0.08079   0.09798
 Alpha virt. eigenvalues --    0.12496   0.13967   0.15310   0.17281   0.19875
 Alpha virt. eigenvalues --    0.20229   0.21431   0.25461   0.26319   0.29051

 Mulliken charges:
               1
     1  C    0.152499
     2  O   -0.352914
     3  C   -0.030976
     4  C   -0.129865
     5  H    0.106371
     6  H    0.086264
     7  H    0.101374
     8  H    0.067247
 Sum of Mulliken charges =   0.00000

 Dipole moment (field-independent basis, Debye):
    X=             -3.5394    Y=              0.7767    Z=              0.0285  Tot=              3.6238
 Quadrupole moment (field-independent basis, Debye-Ang):
   XX=            -27.4037   YY=            -21.8004   ZZ=            -25.2325
   XY=              1.0008   XZ=              0.0733   YZ=              0.0259

 Normal termination of Gaussian 09 at Wed Aug 26 09:38:35 2020.
