 Gaussian 09, Revision D.01,
 Gaussian 09:  ES64L-G09RevD.01 24-Apr-2013

 --------------------
 #p B2PLYPD3/Def2QZVP
 --------------------

 --------
 acrolein
 --------
 Symbolic Z-matrix:
 Charge =  0 Multiplicity = 1

                         Standard orientation:
 ---------------------------------------------------------------------
 Center     Atomic      Atomic             Coordinates (Angstroms)
 Number     Number       Type             X           Y           Z
 ---------------------------------------------------------------------
      1          6           0        0.653619    0.294958   -0.065588
      2          8           0        1.794073   -0.073927    0.071774
      3          6           0       -0.543772   -0.458419   -0.050014
      4          6           0       -1.770108    0.147235    0.020909
      5          1           0       -0.348677   -1.593874   -0.015410
      6          1           0       -1.953689    1.206651    0.314879
      7          1           0       -2.650676   -0.363966   -0.021001
      8          1           0        0.562024    1.439963   -0.284499
 ---------------------------------------------------------------------

 SCF Done:  E(RB2PLYPD3) =  -191.595098287     A.U. after   14 cycles
 E2(B2PLYPD3) =    -0.2487925440D+00 E(B2PLYPD3) =    -0.19184389083073D+03

 The electronic state is 1-A.
 Alpha  occ. eigenvalues --  -19.72472 -10.71274 -10.66566 -10.65952  -1.19570
 Alpha  occ. eigenvalues --   -0.93021  -0.77232  -0.65027  -0.57639  -0.55707
 Alpha  occ. eigenvalues --   -0.50441  -0.46811  -0.46714  -0.34223  -0.33177
 Alpha virt. eigenvalues --   -0.03164   0.05639   0.06826   0.08446   0.09715
 Alpha virt. eigenvalues --    0.12567   0.14109   0.15459   0.16683   0.19217
 Alpha virt. eigenvalues --    0.20235   0.21667   0.24726   0.26375   0.28282

 Mulliken charges:
               1
     1  C    0.154992
     2  O   -0.345148
     3  C   -0.037462
     4  C   -0.109035
     5  H    0.099866
     6  H    0.092175
     7  H    0.104706
     8  H    0.039906
 Sum of Mulliken charges =   0.00000

 Dipole moment (field-independent basis, Debye):
    X=             -3.7644    Y=              0.4627    Z=             -0.0592  Tot=              3.7932
 Quadrupole moment (field-independent basis, Debye-Ang):
   XX=            -26.8988   YY=            -22.1767   ZZ=            -25.2413
   XY=              0.2887   XZ=             -0.8660   YZ=              0.3407

 Normal termination of Gaussian 09 at Wed Aug 26 11:22:49 2020.
