 Gaussian 09, Revision D.01,
 Gaussian 09:  ES64L-G09RevD.01 24-Apr-2013

 --------------------
 #p B2PLYPD3/Def2QZVP
 --------------------

 --------
 acrolein
 --------
 Symbolic Z-matrix:
 Charge =  0 Multiplicity = 1

                         Standard orientation:
 ---------------------------------------------------------------------
 Center     Atomic      Atomic             Coordinates (Angstroms)
 Number     Number       Type             X           Y           Z
 ---------------------------------------------------------------------
      1          6           0        0.665260    0.333356    0.022760
      2          8           0        1.810877   -0.104864   -0.025705
      3          6           0       -0.582684   -0.467840    0.000388
      4          6           0       -1.755759    0.137627   -0.037422
      5          1           0       -0.473807   -1.560866    0.104973
      6          1           0       -1.875682    1.308643   -0.041370
      7          1           0       -2.575735   -0.395024    0.081182
      8          1           0        0.477308    1.467307    0.146499
 ---------------------------------------------------------------------

 SCF Done:  E(RB2PLYPD3) =  -191.599591338     A.U. after   13 cycles
 E2(B2PLYPD3) =    -0.2485790805D+00 E(B2PLYPD3) =    -0.19184817041896D+03

 The electronic state is 1-A.
 Alpha  occ. eigenvalues --  -19.73137 -10.72458 -10.65287 -10.64882  -1.18595
 Alpha  occ. eigenvalues --   -0.93426  -0.75860  -0.65770  -0.57420  -0.55215
 Alpha  occ. eigenvalues --   -0.50698  -0.46676  -0.46011  -0.35073  -0.33791
 Alpha virt. eigenvalues --   -0.01921   0.05614   0.06777   0.08027   0.09602
 Alpha virt. eigenvalues --    0.12429   0.14059   0.15230   0.17095   0.19176
 Alpha virt. eigenvalues --    0.20009   0.22162   0.24910   0.26707   0.28473

 Mulliken charges:
               1
     1  C    0.162924
     2  O   -0.350086
     3  C   -0.041164
     4  C   -0.119278
     5  H    0.100108
     6  H    0.079371
     7  H    0.106860
     8  H    0.061264
 Sum of Mulliken charges =   0.00000

 Dipole moment (field-independent basis, Debye):
    X=             -3.5880    Y=              0.6233    Z=              0.2634  Tot=              3.6512
 Quadrupole moment (field-independent basis, Debye-Ang):
   XX=            -27.7369   YY=            -21.7125   ZZ=            -25.2701
   XY=              0.7386   XZ=             -0.0816   YZ=             -0.1898

 Normal termination of Gaussian 09 at Wed Aug 26 09:15:02 2020.
