 Gaussian 09, Revision D.01,
 Gaussian 09:  ES64L-G09RevD.01 24-Apr-2013

 --------------------
 #p B2PLYPD3/Def2QZVP
 --------------------

 --------
 acrolein
 --------
 Symbolic Z-matrix:
 Charge =  0 Multiplicity = 1

                         Standard orientation:
 ---------------------------------------------------------------------
 Center     Atomic      Atomic             Coordinates (Angstroms)
 Number     Number       Type             X           Y           Z
 ---------------------------------------------------------------------
      1          6           0        0.664774    0.338519    0.013607
      2          8           0        1.823146   -0.099769   -0.033171
      3          6           0       -0.580810   -0.469470    0.057886
      4          6           0       -1.751588    0.120793   -0.061709
      5          1           0       -0.460532   -1.602677    0.061758
      6          1           0       -2.009785    1.340150    0.048847
      7          1           0       -2.562046   -0.393249   -0.021833
      8          1           0        0.452943    1.514873    0.117894
 ---------------------------------------------------------------------

 SCF Done:  E(RB2PLYPD3) =  -191.576465023     A.U. after   13 cycles
 E2(B2PLYPD3) =    -0.2503510041D+00 E(B2PLYPD3) =    -0.19182681602661D+03

 The electronic state is 1-A.
 Alpha  occ. eigenvalues --  -19.73357 -10.73148 -10.65791 -10.65577  -1.18006
 Alpha  occ. eigenvalues --   -0.93480  -0.76097  -0.64809  -0.57673  -0.54311
 Alpha  occ. eigenvalues --   -0.50388  -0.46048  -0.45202  -0.35298  -0.33794
 Alpha virt. eigenvalues --   -0.02192   0.05089   0.06541   0.07821   0.09270
 Alpha virt. eigenvalues --    0.12138   0.13862   0.15130   0.16802   0.19266
 Alpha virt. eigenvalues --    0.19890   0.22359   0.24544   0.26291   0.27775

 Mulliken charges:
               1
     1  C    0.172123
     2  O   -0.352501
     3  C   -0.045682
     4  C   -0.108122
     5  H    0.099756
     6  H    0.071101
     7  H    0.106770
     8  H    0.056555
 Sum of Mulliken charges =   0.00000

 Dipole moment (field-independent basis, Debye):
    X=             -3.6964    Y=              0.5422    Z=              0.1994  Tot=              3.7413
 Quadrupole moment (field-independent basis, Debye-Ang):
   XX=            -27.6005   YY=            -21.7838   ZZ=            -25.4289
   XY=              0.5523   XZ=              0.0976   YZ=              0.0824

 Normal termination of Gaussian 09 at Wed Aug 26 13:54:39 2020.
