 Gaussian 09, Revision D.01,
 Gaussian 09:  ES64L-G09RevD.01 24-Apr-2013

 --------------------
 #p B2PLYPD3/Def2QZVP
 --------------------

 --------
 acrolein
 --------
 Symbolic Z-matrix:
 Charge =  0 Multiplicity = 1

                         Standard orientation:
 ---------------------------------------------------------------------
 Center     Atomic      Atomic             Coordinates (Angstroms)
 Number     Number       Type             X           Y           Z
 ---------------------------------------------------------------------
      1          6           0        0.668883    0.358112    0.018065
      2          8           0        1.782187   -0.124318   -0.018094
      3          6           0       -0.565587   -0.446139    0.033482
      4          6           0       -1.753255    0.140073   -0.018822
      5          1           0       -0.419230   -1.539092   -0.019510
      6          1           0       -1.831522    1.212290   -0.000314
      7          1           0       -2.623728   -0.429377   -0.034634
      8          1           0        0.516740    1.438444    0.002861
 ---------------------------------------------------------------------

 SCF Done:  E(RB2PLYPD3) =  -191.615544988     A.U. after   12 cycles
 E2(B2PLYPD3) =    -0.2468648616D+00 E(B2PLYPD3) =    -0.19186240984911D+03

 The electronic state is 1-A.
 Alpha  occ. eigenvalues --  -19.72779 -10.71435 -10.64780 -10.64403  -1.19304
 Alpha  occ. eigenvalues --   -0.93192  -0.75766  -0.67000  -0.56845  -0.56548
 Alpha  occ. eigenvalues --   -0.50694  -0.46964  -0.46621  -0.34773  -0.33848
 Alpha virt. eigenvalues --   -0.01627   0.05843   0.07173   0.08119   0.09809
 Alpha virt. eigenvalues --    0.12658   0.13961   0.15334   0.17355   0.19843
 Alpha virt. eigenvalues --    0.19955   0.21969   0.25418   0.26601   0.28724

 Mulliken charges:
               1
     1  C    0.156896
     2  O   -0.351816
     3  C   -0.039685
     4  C   -0.132620
     5  H    0.103285
     6  H    0.085078
     7  H    0.104878
     8  H    0.073983
 Sum of Mulliken charges =   0.00000

 Dipole moment (field-independent basis, Debye):
    X=             -3.4623    Y=              0.7988    Z=              0.0122  Tot=              3.5532
 Quadrupole moment (field-independent basis, Debye-Ang):
   XX=            -27.5401   YY=            -21.6380   ZZ=            -25.1556
   XY=              0.9379   XZ=              0.1867   YZ=              0.0705

 Normal termination of Gaussian 09 at Wed Aug 26 10:18:16 2020.
