 Gaussian 09, Revision D.01,
 Gaussian 09:  ES64L-G09RevD.01 24-Apr-2013

 --------------------
 #p B2PLYPD3/Def2QZVP
 --------------------

 --------
 acrolein
 --------
 Symbolic Z-matrix:
 Charge =  0 Multiplicity = 1

                         Standard orientation:
 ---------------------------------------------------------------------
 Center     Atomic      Atomic             Coordinates (Angstroms)
 Number     Number       Type             X           Y           Z
 ---------------------------------------------------------------------
      1          6           0       -0.650837    0.337689   -0.048377
      2          8           0       -1.801680   -0.094828    0.035837
      3          6           0        0.565385   -0.475383   -0.008123
      4          6           0        1.753874    0.161535    0.008724
      5          1           0        0.384588   -1.604235   -0.048028
      6          1           0        1.828553    1.272535    0.102426
      7          1           0        2.683651   -0.433487    0.021297
      8          1           0       -0.493889    1.380762   -0.075736
 ---------------------------------------------------------------------

 SCF Done:  E(RB2PLYPD3) =  -191.607721325     A.U. after   13 cycles
 E2(B2PLYPD3) =    -0.2489738565D+00 E(B2PLYPD3) =    -0.19185669518119D+03

 The electronic state is 1-A.
 Alpha  occ. eigenvalues --  -19.72558 -10.71082 -10.66649 -10.65486  -1.18018
 Alpha  occ. eigenvalues --   -0.92853  -0.75545  -0.66958  -0.56150  -0.55802
 Alpha  occ. eigenvalues --   -0.49916  -0.46629  -0.45951  -0.34499  -0.33807
 Alpha virt. eigenvalues --   -0.02230   0.05533   0.06832   0.07817   0.09645
 Alpha virt. eigenvalues --    0.12513   0.13842   0.15186   0.17184   0.19463
 Alpha virt. eigenvalues --    0.20095   0.21424   0.24961   0.26804   0.28806

 Mulliken charges:
               1
     1  C    0.160119
     2  O   -0.365920
     3  C   -0.036463
     4  C   -0.131646
     5  H    0.103966
     6  H    0.091677
     7  H    0.103290
     8  H    0.074976
 Sum of Mulliken charges =   0.00000

 Dipole moment (field-independent basis, Debye):
    X=              3.6684    Y=              0.7370    Z=             -0.1033  Tot=              3.7432
 Quadrupole moment (field-independent basis, Debye-Ang):
   XX=            -27.9134   YY=            -21.4790   ZZ=            -25.3797
   XY=             -0.6583   XZ=              0.3669   YZ=              0.1653

 Normal termination of Gaussian 09 at Wed Aug 26 09:40:27 2020.
