 Gaussian 09, Revision D.01,
 Gaussian 09:  ES64L-G09RevD.01 24-Apr-2013

 --------------------
 #p B2PLYPD3/Def2QZVP
 --------------------

 --------
 acrolein
 --------
 Symbolic Z-matrix:
 Charge =  0 Multiplicity = 1

                         Standard orientation:
 ---------------------------------------------------------------------
 Center     Atomic      Atomic             Coordinates (Angstroms)
 Number     Number       Type             X           Y           Z
 ---------------------------------------------------------------------
      1          6           0        0.670666    0.352704   -0.008466
      2          8           0        1.781686   -0.126966    0.003503
      3          6           0       -0.550436   -0.430490    0.006884
      4          6           0       -1.751728    0.135951   -0.007649
      5          1           0       -0.440583   -1.513024    0.004262
      6          1           0       -1.841621    1.191908    0.059533
      7          1           0       -2.703140   -0.437813   -0.017669
      8          1           0        0.520837    1.425665   -0.018764
 ---------------------------------------------------------------------

 SCF Done:  E(RB2PLYPD3) =  -191.615792000     A.U. after   12 cycles
 E2(B2PLYPD3) =    -0.2468231647D+00 E(B2PLYPD3) =    -0.19186261516472D+03

 The electronic state is 1-A.
 Alpha  occ. eigenvalues --  -19.72711 -10.71186 -10.65513 -10.64163  -1.19530
 Alpha  occ. eigenvalues --   -0.93283  -0.75774  -0.67321  -0.57020  -0.56221
 Alpha  occ. eigenvalues --   -0.50576  -0.46924  -0.46553  -0.34725  -0.33956
 Alpha virt. eigenvalues --   -0.01854   0.05707   0.07189   0.08395   0.09756
 Alpha virt. eigenvalues --    0.12558   0.14092   0.15357   0.17550   0.19814
 Alpha virt. eigenvalues --    0.20023   0.21504   0.25591   0.26471   0.28771

 Mulliken charges:
               1
     1  C    0.152646
     2  O   -0.350640
     3  C   -0.032265
     4  C   -0.131730
     5  H    0.103792
     6  H    0.083752
     7  H    0.100783
     8  H    0.073661
 Sum of Mulliken charges =   0.00000

 Dipole moment (field-independent basis, Debye):
    X=             -3.5092    Y=              0.8046    Z=              0.0150  Tot=              3.6003
 Quadrupole moment (field-independent basis, Debye-Ang):
   XX=            -27.3107   YY=            -21.8137   ZZ=            -25.1457
   XY=              0.9880   XZ=             -0.0693   YZ=              0.0747

 Normal termination of Gaussian 09 at Wed Aug 26 10:12:19 2020.
