 Gaussian 09, Revision D.01,
 Gaussian 09:  ES64L-G09RevD.01 24-Apr-2013

 --------------------
 #p B2PLYPD3/Def2QZVP
 --------------------

 --------
 acrolein
 --------
 Symbolic Z-matrix:
 Charge =  0 Multiplicity = 1

                         Standard orientation:
 ---------------------------------------------------------------------
 Center     Atomic      Atomic             Coordinates (Angstroms)
 Number     Number       Type             X           Y           Z
 ---------------------------------------------------------------------
      1          6           0        0.670819    0.357617    0.012929
      2          8           0        1.783800   -0.129509   -0.014756
      3          6           0       -0.553072   -0.447598    0.033631
      4          6           0       -1.745131    0.130887   -0.019088
      5          1           0       -0.451046   -1.467094   -0.024936
      6          1           0       -1.834715    1.209060    0.014913
      7          1           0       -2.707158   -0.419527   -0.032649
      8          1           0        0.486827    1.468202   -0.004108
 ---------------------------------------------------------------------

 SCF Done:  E(RB2PLYPD3) =  -191.613483854     A.U. after   13 cycles
 E2(B2PLYPD3) =    -0.2472584721D+00 E(B2PLYPD3) =    -0.19186074232661D+03

 The electronic state is 1-A.
 Alpha  occ. eigenvalues --  -19.72920 -10.71863 -10.65594 -10.63669  -1.19334
 Alpha  occ. eigenvalues --   -0.93322  -0.75259  -0.67568  -0.56548  -0.56315
 Alpha  occ. eigenvalues --   -0.50661  -0.46971  -0.46717  -0.34794  -0.33915
 Alpha virt. eigenvalues --   -0.01741   0.05684   0.07323   0.08074   0.09757
 Alpha virt. eigenvalues --    0.12495   0.13881   0.15315   0.17833   0.19849
 Alpha virt. eigenvalues --    0.19906   0.21342   0.25392   0.26486   0.28843

 Mulliken charges:
               1
     1  C    0.154462
     2  O   -0.350258
     3  C   -0.038851
     4  C   -0.125195
     5  H    0.112305
     6  H    0.079873
     7  H    0.097019
     8  H    0.070643
 Sum of Mulliken charges =   0.00000

 Dipole moment (field-independent basis, Debye):
    X=             -3.4989    Y=              0.7700    Z=              0.0054  Tot=              3.5826
 Quadrupole moment (field-independent basis, Debye-Ang):
   XX=            -27.3389   YY=            -21.8371   ZZ=            -25.1684
   XY=              0.9361   XZ=              0.1462   YZ=              0.0885

 Normal termination of Gaussian 09 at Wed Aug 26 18:56:59 2020.
