 Gaussian 09, Revision D.01,
 Gaussian 09:  ES64L-G09RevD.01 24-Apr-2013

 --------------------
 #p B2PLYPD3/Def2QZVP
 --------------------

 --------
 acrolein
 --------
 Symbolic Z-matrix:
 Charge =  0 Multiplicity = 1

                         Standard orientation:
 ---------------------------------------------------------------------
 Center     Atomic      Atomic             Coordinates (Angstroms)
 Number     Number       Type             X           Y           Z
 ---------------------------------------------------------------------
      1          6           0       -0.656708    0.333799    0.013073
      2          8           0       -1.777910   -0.117264    0.028450
      3          6           0        0.563334   -0.446862   -0.078327
      4          6           0        1.757625    0.118963    0.013020
      5          1           0        0.398916   -1.482666   -0.033328
      6          1           0        1.801577    1.232934   -0.021101
      7          1           0        2.505037   -0.399453    0.235639
      8          1           0       -0.467755    1.551891   -0.095411
 ---------------------------------------------------------------------

 SCF Done:  E(RB2PLYPD3) =  -191.585010415     A.U. after   13 cycles
 E2(B2PLYPD3) =    -0.2479181824D+00 E(B2PLYPD3) =    -0.19183292859766D+03

 The electronic state is 1-A.
 Alpha  occ. eigenvalues --  -19.73236 -10.72579 -10.64421 -10.63979  -1.19911
 Alpha  occ. eigenvalues --   -0.94121  -0.76938  -0.65754  -0.58719  -0.55327
 Alpha  occ. eigenvalues --   -0.51040  -0.47761  -0.46972  -0.34982  -0.33468
 Alpha virt. eigenvalues --   -0.02173   0.05887   0.06983   0.08221   0.09898
 Alpha virt. eigenvalues --    0.12565   0.13825   0.15226   0.17030   0.19551
 Alpha virt. eigenvalues --    0.19833   0.22562   0.24919   0.26298   0.28486

 Mulliken charges:
               1
     1  C    0.171760
     2  O   -0.340554
     3  C   -0.031894
     4  C   -0.122393
     5  H    0.099657
     6  H    0.085921
     7  H    0.112636
     8  H    0.024866
 Sum of Mulliken charges =   0.00000

 Dipole moment (field-independent basis, Debye):
    X=              3.4877    Y=              0.4892    Z=              0.1004  Tot=              3.5233
 Quadrupole moment (field-independent basis, Debye-Ang):
   XX=            -27.3805   YY=            -22.1121   ZZ=            -25.0267
   XY=             -0.7643   XZ=              0.6918   YZ=             -0.1969

 Normal termination of Gaussian 09 at Wed Aug 26 11:40:17 2020.
