 Gaussian 09, Revision D.01,
 Gaussian 09:  ES64L-G09RevD.01 24-Apr-2013

 --------------------
 #p B2PLYPD3/Def2QZVP
 --------------------

 --------
 acrolein
 --------
 Symbolic Z-matrix:
 Charge =  0 Multiplicity = 1

                         Standard orientation:
 ---------------------------------------------------------------------
 Center     Atomic      Atomic             Coordinates (Angstroms)
 Number     Number       Type             X           Y           Z
 ---------------------------------------------------------------------
      1          6           0       -0.682434    0.349191    0.017230
      2          8           0       -1.786627   -0.120843   -0.015140
      3          6           0        0.576825   -0.461201    0.011253
      4          6           0        1.766114    0.147972   -0.022766
      5          1           0        0.463419   -1.532198   -0.010900
      6          1           0        1.843238    1.208819   -0.078103
      7          1           0        2.579890   -0.379217    0.096704
      8          1           0       -0.556555    1.453556    0.079116
 ---------------------------------------------------------------------

 SCF Done:  E(RB2PLYPD3) =  -191.607704326     A.U. after   13 cycles
 E2(B2PLYPD3) =    -0.2461787769D+00 E(B2PLYPD3) =    -0.19185388310245D+03

 The electronic state is 1-A.
 Alpha  occ. eigenvalues --  -19.72832 -10.71640 -10.64509 -10.63951  -1.20140
 Alpha  occ. eigenvalues --   -0.92886  -0.75830  -0.67007  -0.57490  -0.56515
 Alpha  occ. eigenvalues --   -0.50971  -0.47886  -0.46886  -0.34573  -0.33610
 Alpha virt. eigenvalues --   -0.01493   0.05982   0.07332   0.08085   0.09782
 Alpha virt. eigenvalues --    0.12731   0.14155   0.15497   0.17333   0.19599
 Alpha virt. eigenvalues --    0.20091   0.22319   0.25293   0.26436   0.28652

 Mulliken charges:
               1
     1  C    0.154542
     2  O   -0.339691
     3  C   -0.048802
     4  C   -0.130906
     5  H    0.104527
     6  H    0.084636
     7  H    0.105029
     8  H    0.070664
 Sum of Mulliken charges =   0.00000

 Dipole moment (field-independent basis, Debye):
    X=              3.3615    Y=              0.7489    Z=              0.0870  Tot=              3.4450
 Quadrupole moment (field-independent basis, Debye-Ang):
   XX=            -27.4375   YY=            -21.6410   ZZ=            -25.1009
   XY=             -0.9261   XZ=              0.0299   YZ=             -0.0939

 Normal termination of Gaussian 09 at Wed Aug 26 09:55:59 2020.
