 Gaussian 09, Revision D.01,
 Gaussian 09:  ES64L-G09RevD.01 24-Apr-2013

 --------------------
 #p B2PLYPD3/Def2QZVP
 --------------------

 --------
 acrolein
 --------
 Symbolic Z-matrix:
 Charge =  0 Multiplicity = 1

                         Standard orientation:
 ---------------------------------------------------------------------
 Center     Atomic      Atomic             Coordinates (Angstroms)
 Number     Number       Type             X           Y           Z
 ---------------------------------------------------------------------
      1          6           0       -0.692091    0.356029    0.082213
      2          8           0       -1.749911   -0.145760   -0.055844
      3          6           0        0.518125   -0.373685    0.067851
      4          6           0        1.780437    0.117576   -0.047296
      5          1           0        0.410151   -1.532754   -0.014841
      6          1           0        1.679276    1.079652    0.024588
      7          1           0        2.754656   -0.416171   -0.082798
      8          1           0       -0.483618    1.435829   -0.096806
 ---------------------------------------------------------------------

 SCF Done:  E(RB2PLYPD3) =  -191.581356056     A.U. after   14 cycles
 E2(B2PLYPD3) =    -0.2475095841D+00 E(B2PLYPD3) =    -0.19182886564043D+03

 The electronic state is 1-A.
 Alpha  occ. eigenvalues --  -19.73094 -10.71134 -10.65004 -10.64608  -1.21885
 Alpha  occ. eigenvalues --   -0.93504  -0.76957  -0.66282  -0.57279  -0.56827
 Alpha  occ. eigenvalues --   -0.52253  -0.48418  -0.44086  -0.34704  -0.33723
 Alpha virt. eigenvalues --   -0.02450   0.05908   0.06932   0.08531   0.10065
 Alpha virt. eigenvalues --    0.12457   0.14142   0.15281   0.17282   0.19213
 Alpha virt. eigenvalues --    0.20410   0.21866   0.24780   0.26857   0.29276

 Mulliken charges:
               1
     1  C    0.154852
     2  O   -0.323544
     3  C   -0.015962
     4  C   -0.142304
     5  H    0.082432
     6  H    0.078387
     7  H    0.121476
     8  H    0.044663
 Sum of Mulliken charges =   0.00000

 Dipole moment (field-independent basis, Debye):
    X=              3.3373    Y=              0.7907    Z=              0.1114  Tot=              3.4315
 Quadrupole moment (field-independent basis, Debye-Ang):
   XX=            -26.3515   YY=            -22.5644   ZZ=            -25.0939
   XY=             -1.3678   XZ=             -0.4827   YZ=              0.1195

 Normal termination of Gaussian 09 at Wed Aug 26 14:56:31 2020.
