 Gaussian 09, Revision D.01,
 Gaussian 09:  ES64L-G09RevD.01 24-Apr-2013

 --------------------
 #p B2PLYPD3/Def2QZVP
 --------------------

 --------
 acrolein
 --------
 Symbolic Z-matrix:
 Charge =  0 Multiplicity = 1

                         Standard orientation:
 ---------------------------------------------------------------------
 Center     Atomic      Atomic             Coordinates (Angstroms)
 Number     Number       Type             X           Y           Z
 ---------------------------------------------------------------------
      1          6           0       -0.691985    0.384914   -0.038555
      2          8           0       -1.787311   -0.155856    0.041493
      3          6           0        0.571124   -0.440056   -0.048440
      4          6           0        1.776455    0.127156    0.035002
      5          1           0        0.428116   -1.501984   -0.070042
      6          1           0        1.840142    1.186438   -0.006789
      7          1           0        2.577726   -0.481955    0.096754
      8          1           0       -0.481054    1.612262   -0.039907
 ---------------------------------------------------------------------

 SCF Done:  E(RB2PLYPD3) =  -191.599245608     A.U. after   13 cycles
 E2(B2PLYPD3) =    -0.2490521889D+00 E(B2PLYPD3) =    -0.19184829779691D+03

 The electronic state is 1-A.
 Alpha  occ. eigenvalues --  -19.73664 -10.73645 -10.64526 -10.64223  -1.19250
 Alpha  occ. eigenvalues --   -0.92762  -0.75158  -0.65767  -0.57371  -0.55205
 Alpha  occ. eigenvalues --   -0.50614  -0.47596  -0.46474  -0.34560  -0.33820
 Alpha virt. eigenvalues --   -0.01737   0.05709   0.06912   0.07638   0.09890
 Alpha virt. eigenvalues --    0.12423   0.13259   0.15387   0.17038   0.19834
 Alpha virt. eigenvalues --    0.19926   0.22146   0.25181   0.26289   0.28450

 Mulliken charges:
               1
     1  C    0.168679
     2  O   -0.341714
     3  C   -0.043758
     4  C   -0.135215
     5  H    0.105116
     6  H    0.088883
     7  H    0.107092
     8  H    0.050918
 Sum of Mulliken charges =   0.00000

 Dipole moment (field-independent basis, Debye):
    X=              3.3291    Y=              0.7393    Z=             -0.1228  Tot=              3.4124
 Quadrupole moment (field-independent basis, Debye-Ang):
   XX=            -27.6046   YY=            -21.7304   ZZ=            -25.3574
   XY=             -1.0708   XZ=              0.3829   YZ=             -0.0184

 Normal termination of Gaussian 09 at Wed Aug 26 10:40:12 2020.
