 Gaussian 09, Revision D.01,
 Gaussian 09:  ES64L-G09RevD.01 24-Apr-2013

 --------------------
 #p B2PLYPD3/Def2QZVP
 --------------------

 --------
 acrolein
 --------
 Symbolic Z-matrix:
 Charge =  0 Multiplicity = 1

                         Standard orientation:
 ---------------------------------------------------------------------
 Center     Atomic      Atomic             Coordinates (Angstroms)
 Number     Number       Type             X           Y           Z
 ---------------------------------------------------------------------
      1          6           0       -0.691302    0.347102    0.006404
      2          8           0       -1.806399   -0.093611   -0.017621
      3          6           0        0.576249   -0.515451    0.005929
      4          6           0        1.761958    0.154890   -0.041092
      5          1           0        0.441628   -1.527479    0.105960
      6          1           0        2.006826    1.357985    0.027315
      7          1           0        2.603199   -0.433555    0.055456
      8          1           0       -0.481893    1.432691    0.124796
 ---------------------------------------------------------------------

 SCF Done:  E(RB2PLYPD3) =  -191.592045475     A.U. after   12 cycles
 E2(B2PLYPD3) =    -0.2481569475D+00 E(B2PLYPD3) =    -0.19184020242230D+03

 The electronic state is 1-A.
 Alpha  occ. eigenvalues --  -19.72974 -10.71806 -10.66499 -10.64896  -1.20194
 Alpha  occ. eigenvalues --   -0.91695  -0.74431  -0.67097  -0.56424  -0.55106
 Alpha  occ. eigenvalues --   -0.51098  -0.46766  -0.46539  -0.34258  -0.33377
 Alpha virt. eigenvalues --   -0.01439   0.05294   0.07022   0.07839   0.09347
 Alpha virt. eigenvalues --    0.12241   0.13922   0.15401   0.17851   0.18720
 Alpha virt. eigenvalues --    0.19969   0.21662   0.24567   0.26888   0.27722

 Mulliken charges:
               1
     1  C    0.165256
     2  O   -0.337500
     3  C   -0.075244
     4  C   -0.124703
     5  H    0.115810
     6  H    0.086421
     7  H    0.094861
     8  H    0.075099
 Sum of Mulliken charges =   0.00000

 Dipole moment (field-independent basis, Debye):
    X=              3.3618    Y=              0.6641    Z=              0.2643  Tot=              3.4369
 Quadrupole moment (field-independent basis, Debye-Ang):
   XX=            -27.7223   YY=            -21.4296   ZZ=            -25.4287
   XY=             -0.4035   XZ=              0.1688   YZ=             -0.1036

 Normal termination of Gaussian 09 at Wed Aug 26 11:40:52 2020.
