 Gaussian 09, Revision D.01,
 Gaussian 09:  ES64L-G09RevD.01 24-Apr-2013

 --------------------
 #p B2PLYPD3/Def2QZVP
 --------------------

 --------
 acrolein
 --------
 Symbolic Z-matrix:
 Charge =  0 Multiplicity = 1

                         Standard orientation:
 ---------------------------------------------------------------------
 Center     Atomic      Atomic             Coordinates (Angstroms)
 Number     Number       Type             X           Y           Z
 ---------------------------------------------------------------------
      1          6           0        0.668583    0.330345   -0.045059
      2          8           0        1.788305   -0.109418    0.035343
      3          6           0       -0.546133   -0.457009   -0.038810
      4          6           0       -1.739710    0.154834    0.000394
      5          1           0       -0.463473   -1.484769    0.016809
      6          1           0       -1.828977    1.232728    0.053669
      7          1           0       -2.779847   -0.454093    0.126581
      8          1           0        0.469421    1.412456    0.021054
 ---------------------------------------------------------------------

 SCF Done:  E(RB2PLYPD3) =  -191.604067002     A.U. after   13 cycles
 E2(B2PLYPD3) =    -0.2476948665D+00 E(B2PLYPD3) =    -0.19185176186821D+03

 The electronic state is 1-A.
 Alpha  occ. eigenvalues --  -19.72749 -10.71269 -10.67055 -10.63993  -1.19790
 Alpha  occ. eigenvalues --   -0.93248  -0.74962  -0.67748  -0.56724  -0.55606
 Alpha  occ. eigenvalues --   -0.50302  -0.47067  -0.46482  -0.34708  -0.33798
 Alpha virt. eigenvalues --   -0.01995   0.05341   0.07116   0.08245   0.09641
 Alpha virt. eigenvalues --    0.12356   0.13880   0.15294   0.18013   0.19666
 Alpha virt. eigenvalues --    0.19888   0.20903   0.25217   0.26471   0.28678

 Mulliken charges:
               1
     1  C    0.153670
     2  O   -0.348390
     3  C   -0.029595
     4  C   -0.127651
     5  H    0.111138
     6  H    0.088988
     7  H    0.089236
     8  H    0.062604
 Sum of Mulliken charges =   0.00000

 Dipole moment (field-independent basis, Debye):
    X=             -3.5243    Y=              0.6947    Z=              0.0425  Tot=              3.5924
 Quadrupole moment (field-independent basis, Debye-Ang):
   XX=            -27.4717   YY=            -21.8827   ZZ=            -25.2378
   XY=              0.7733   XZ=             -0.5710   YZ=             -0.0278

 Normal termination of Gaussian 09 at Wed Aug 26 09:38:01 2020.
