 Gaussian 09, Revision D.01,
 Gaussian 09:  ES64L-G09RevD.01 24-Apr-2013

 --------------------
 #p B2PLYPD3/Def2QZVP
 --------------------

 --------
 acrolein
 --------
 Symbolic Z-matrix:
 Charge =  0 Multiplicity = 1

                         Standard orientation:
 ---------------------------------------------------------------------
 Center     Atomic      Atomic             Coordinates (Angstroms)
 Number     Number       Type             X           Y           Z
 ---------------------------------------------------------------------
      1          6           0        0.697015    0.355531   -0.052786
      2          8           0        1.767351   -0.147537    0.063381
      3          6           0       -0.523632   -0.388350   -0.061966
      4          6           0       -1.789323    0.112982    0.047915
      5          1           0       -0.334190   -1.453696   -0.181508
      6          1           0       -1.822479    1.070385   -0.091814
      7          1           0       -2.765562   -0.474103    0.204581
      8          1           0        0.479065    1.556731   -0.037287
 ---------------------------------------------------------------------

 SCF Done:  E(RB2PLYPD3) =  -191.585782038     A.U. after   14 cycles
 E2(B2PLYPD3) =    -0.2483163188D+00 E(B2PLYPD3) =    -0.19183409835676D+03

 The electronic state is 1-A.
 Alpha  occ. eigenvalues --  -19.73429 -10.72299 -10.65725 -10.64506  -1.21451
 Alpha  occ. eigenvalues --   -0.92946  -0.76694  -0.65839  -0.56670  -0.56366
 Alpha  occ. eigenvalues --   -0.51149  -0.48465  -0.46219  -0.34116  -0.33704
 Alpha virt. eigenvalues --   -0.02581   0.05663   0.07001   0.08593   0.09975
 Alpha virt. eigenvalues --    0.12168   0.13510   0.15214   0.17343   0.19635
 Alpha virt. eigenvalues --    0.20400   0.21683   0.25109   0.26223   0.28809

 Mulliken charges:
               1
     1  C    0.164659
     2  O   -0.327404
     3  C   -0.015848
     4  C   -0.146943
     5  H    0.093124
     6  H    0.093955
     7  H    0.113570
     8  H    0.024886
 Sum of Mulliken charges =   0.00000

 Dipole moment (field-independent basis, Debye):
    X=             -3.3998    Y=              0.6391    Z=             -0.2453  Tot=              3.4681
 Quadrupole moment (field-independent basis, Debye-Ang):
   XX=            -26.4283   YY=            -22.6318   ZZ=            -25.1930
   XY=              0.9384   XZ=             -0.6146   YZ=             -0.0313

 Normal termination of Gaussian 09 at Wed Aug 26 14:11:17 2020.
