 Gaussian 09, Revision D.01,
 Gaussian 09:  ES64L-G09RevD.01 24-Apr-2013

 --------------------
 #p B2PLYPD3/Def2QZVP
 --------------------

 --------
 acrolein
 --------
 Symbolic Z-matrix:
 Charge =  0 Multiplicity = 1

                         Standard orientation:
 ---------------------------------------------------------------------
 Center     Atomic      Atomic             Coordinates (Angstroms)
 Number     Number       Type             X           Y           Z
 ---------------------------------------------------------------------
      1          6           0       -0.680758    0.354468    0.013714
      2          8           0       -1.772228   -0.128667   -0.036821
      3          6           0        0.539844   -0.452250    0.029857
      4          6           0        1.753551    0.152800   -0.014822
      5          1           0        0.408150   -1.511159    0.096199
      6          1           0        1.811205    1.173843   -0.109813
      7          1           0        2.811221   -0.443313   -0.052528
      8          1           0       -0.528575    1.479856    0.188214
 ---------------------------------------------------------------------

 SCF Done:  E(RB2PLYPD3) =  -191.601722371     A.U. after   13 cycles
 E2(B2PLYPD3) =    -0.2477012265D+00 E(B2PLYPD3) =    -0.19184942359780D+03

 The electronic state is 1-A.
 Alpha  occ. eigenvalues --  -19.72863 -10.71755 -10.66489 -10.64584  -1.20642
 Alpha  occ. eigenvalues --   -0.92435  -0.74756  -0.66921  -0.56841  -0.55434
 Alpha  occ. eigenvalues --   -0.50266  -0.47288  -0.46696  -0.34361  -0.33685
 Alpha virt. eigenvalues --   -0.01797   0.05495   0.06932   0.08076   0.09719
 Alpha virt. eigenvalues --    0.12200   0.13900   0.15332   0.17573   0.19468
 Alpha virt. eigenvalues --    0.20337   0.20881   0.25017   0.26396   0.28844

 Mulliken charges:
               1
     1  C    0.154051
     2  O   -0.337446
     3  C   -0.042641
     4  C   -0.134636
     5  H    0.112782
     6  H    0.092798
     7  H    0.092552
     8  H    0.062540
 Sum of Mulliken charges =   0.00000

 Dipole moment (field-independent basis, Debye):
    X=              3.3312    Y=              0.7458    Z=              0.0965  Tot=              3.4150
 Quadrupole moment (field-independent basis, Debye-Ang):
   XX=            -27.2452   YY=            -21.9091   ZZ=            -25.3347
   XY=             -0.8784   XZ=             -0.4532   YZ=             -0.1658

 Normal termination of Gaussian 09 at Wed Aug 26 21:05:48 2020.
