 Gaussian 09, Revision D.01,
 Gaussian 09:  ES64L-G09RevD.01 24-Apr-2013

 --------------------
 #p B2PLYPD3/Def2QZVP
 --------------------

 --------
 acrolein
 --------
 Symbolic Z-matrix:
 Charge =  0 Multiplicity = 1

                         Standard orientation:
 ---------------------------------------------------------------------
 Center     Atomic      Atomic             Coordinates (Angstroms)
 Number     Number       Type             X           Y           Z
 ---------------------------------------------------------------------
      1          6           0        0.662951    0.367058    0.057519
      2          8           0        1.817969   -0.133261   -0.066212
      3          6           0       -0.568644   -0.411578    0.067537
      4          6           0       -1.764668    0.126378   -0.080531
      5          1           0       -0.364078   -1.602662    0.095690
      6          1           0       -1.762980    1.136722   -0.121297
      7          1           0       -2.775085   -0.455159    0.056002
      8          1           0        0.380555    1.496047    0.232151
 ---------------------------------------------------------------------

 SCF Done:  E(RB2PLYPD3) =  -191.581742842     A.U. after   13 cycles
 E2(B2PLYPD3) =    -0.2521461252D+00 E(B2PLYPD3) =    -0.19183388896698D+03

 The electronic state is 1-A.
 Alpha  occ. eigenvalues --  -19.73771 -10.73476 -10.65925 -10.65617  -1.16895
 Alpha  occ. eigenvalues --   -0.93891  -0.76075  -0.65456  -0.55853  -0.55618
 Alpha  occ. eigenvalues --   -0.50281  -0.45666  -0.44643  -0.35058  -0.34348
 Alpha virt. eigenvalues --   -0.03039   0.05451   0.06165   0.07778   0.09847
 Alpha virt. eigenvalues --    0.12345   0.13297   0.15152   0.16380   0.19065
 Alpha virt. eigenvalues --    0.20125   0.21512   0.24982   0.26297   0.28885

 Mulliken charges:
               1
     1  C    0.163846
     2  O   -0.364956
     3  C   -0.019273
     4  C   -0.121552
     5  H    0.091180
     6  H    0.081745
     7  H    0.109192
     8  H    0.059819
 Sum of Mulliken charges =   0.00000

 Dipole moment (field-independent basis, Debye):
    X=             -3.7129    Y=              0.8172    Z=              0.3113  Tot=              3.8145
 Quadrupole moment (field-independent basis, Debye-Ang):
   XX=            -27.5927   YY=            -22.1426   ZZ=            -25.4578
   XY=              0.8089   XZ=              0.2721   YZ=             -0.1324

 Normal termination of Gaussian 09 at Wed Aug 26 11:26:55 2020.
