 Gaussian 09, Revision D.01,
 Gaussian 09:  ES64L-G09RevD.01 24-Apr-2013

 --------------------
 #p B2PLYPD3/Def2QZVP
 --------------------

 --------
 acrolein
 --------
 Symbolic Z-matrix:
 Charge =  0 Multiplicity = 1

                         Standard orientation:
 ---------------------------------------------------------------------
 Center     Atomic      Atomic             Coordinates (Angstroms)
 Number     Number       Type             X           Y           Z
 ---------------------------------------------------------------------
      1          6           0        0.656642    0.362617    0.076605
      2          8           0        1.795175   -0.140301   -0.074916
      3          6           0       -0.537557   -0.443194    0.031113
      4          6           0       -1.752776    0.106829   -0.057527
      5          1           0       -0.533029   -1.422265    0.221136
      6          1           0       -1.821458    1.306283   -0.125911
      7          1           0       -2.676764   -0.441877   -0.019745
      8          1           0        0.471997    1.522751    0.222700
 ---------------------------------------------------------------------

 SCF Done:  E(RB2PLYPD3) =  -191.590285749     A.U. after   13 cycles
 E2(B2PLYPD3) =    -0.2507620612D+00 E(B2PLYPD3) =    -0.19184104781016D+03

 The electronic state is 1-A.
 Alpha  occ. eigenvalues --  -19.73171 -10.73021 -10.66790 -10.63703  -1.17283
 Alpha  occ. eigenvalues --   -0.93614  -0.75489  -0.66995  -0.56858  -0.55433
 Alpha  occ. eigenvalues --   -0.50161  -0.46460  -0.45075  -0.34560  -0.34222
 Alpha virt. eigenvalues --   -0.02619   0.05373   0.06671   0.07751   0.09585
 Alpha virt. eigenvalues --    0.12000   0.13704   0.14981   0.18003   0.18750
 Alpha virt. eigenvalues --    0.20010   0.21155   0.24769   0.26520   0.29369

 Mulliken charges:
               1
     1  C    0.156987
     2  O   -0.361110
     3  C   -0.029816
     4  C   -0.118029
     5  H    0.109132
     6  H    0.063557
     7  H    0.105133
     8  H    0.074145
 Sum of Mulliken charges =   0.00000

 Dipole moment (field-independent basis, Debye):
    X=             -3.6943    Y=              0.7289    Z=              0.4300  Tot=              3.7900
 Quadrupole moment (field-independent basis, Debye-Ang):
   XX=            -27.6056   YY=            -21.8595   ZZ=            -25.3288
   XY=              1.3270   XZ=              0.3990   YZ=             -0.2964

 Normal termination of Gaussian 09 at Wed Aug 26 14:07:31 2020.
