 Gaussian 09, Revision D.01,
 Gaussian 09:  ES64L-G09RevD.01 24-Apr-2013

 --------------------
 #p B2PLYPD3/Def2QZVP
 --------------------

 --------
 acrolein
 --------
 Symbolic Z-matrix:
 Charge =  0 Multiplicity = 1

                         Standard orientation:
 ---------------------------------------------------------------------
 Center     Atomic      Atomic             Coordinates (Angstroms)
 Number     Number       Type             X           Y           Z
 ---------------------------------------------------------------------
      1          6           0       -0.681176    0.370888    0.005992
      2          8           0       -1.775253   -0.141497   -0.005852
      3          6           0        0.552337   -0.433997   -0.018202
      4          6           0        1.758418    0.129006   -0.020118
      5          1           0        0.420641   -1.556049    0.084416
      6          1           0        1.818849    1.195471   -0.001196
      7          1           0        2.656657   -0.453582    0.081494
      8          1           0       -0.471597    1.550756    0.076069
 ---------------------------------------------------------------------

 SCF Done:  E(RB2PLYPD3) =  -191.608509018     A.U. after   13 cycles
 E2(B2PLYPD3) =    -0.2482408165D+00 E(B2PLYPD3) =    -0.19185674983465D+03

 The electronic state is 1-A.
 Alpha  occ. eigenvalues --  -19.73322 -10.72717 -10.65088 -10.64753  -1.20048
 Alpha  occ. eigenvalues --   -0.92813  -0.75128  -0.65454  -0.56594  -0.55886
 Alpha  occ. eigenvalues --   -0.50680  -0.47220  -0.46118  -0.34687  -0.33905
 Alpha virt. eigenvalues --   -0.01735   0.05754   0.06658   0.08145   0.09858
 Alpha virt. eigenvalues --    0.12482   0.13655   0.15305   0.17002   0.19750
 Alpha virt. eigenvalues --    0.19967   0.21853   0.25329   0.26414   0.28646

 Mulliken charges:
               1
     1  C    0.162075
     2  O   -0.337122
     3  C   -0.035451
     4  C   -0.130314
     5  H    0.099070
     6  H    0.082116
     7  H    0.105881
     8  H    0.053744
 Sum of Mulliken charges =   0.00000

 Dipole moment (field-independent basis, Debye):
    X=              3.3540    Y=              0.7385    Z=              0.1879  Tot=              3.4395
 Quadrupole moment (field-independent basis, Debye-Ang):
   XX=            -27.3690   YY=            -21.8917   ZZ=            -25.3285
   XY=             -0.9898   XZ=              0.2346   YZ=             -0.1488

 Normal termination of Gaussian 09 at Wed Aug 26 10:14:46 2020.
