 Gaussian 09, Revision D.01,
 Gaussian 09:  ES64L-G09RevD.01 24-Apr-2013

 --------------------
 #p B2PLYPD3/Def2QZVP
 --------------------

 --------
 acrolein
 --------
 Symbolic Z-matrix:
 Charge =  0 Multiplicity = 1

                         Standard orientation:
 ---------------------------------------------------------------------
 Center     Atomic      Atomic             Coordinates (Angstroms)
 Number     Number       Type             X           Y           Z
 ---------------------------------------------------------------------
      1          6           0        0.662078   -0.328604    0.102747
      2          8           0        1.786427    0.079084   -0.060471
      3          6           0       -0.585113    0.492805   -0.001924
      4          6           0       -1.752983   -0.172646   -0.034013
      5          1           0       -0.345317    1.661839    0.046326
      6          1           0       -1.890657   -1.346012   -0.165908
      7          1           0       -2.649014    0.393588    0.102368
      8          1           0        0.649686   -1.291421    0.100121
 ---------------------------------------------------------------------

 SCF Done:  E(RB2PLYPD3) =  -191.574612757     A.U. after   14 cycles
 E2(B2PLYPD3) =    -0.2479250031D+00 E(B2PLYPD3) =    -0.19182253775980D+03

 The electronic state is 1-A.
 Alpha  occ. eigenvalues --  -19.72125 -10.69624 -10.66615 -10.66137  -1.19539
 Alpha  occ. eigenvalues --   -0.92051  -0.75170  -0.67854  -0.56263  -0.55450
 Alpha  occ. eigenvalues --   -0.50176  -0.46415  -0.45765  -0.34505  -0.33153
 Alpha virt. eigenvalues --   -0.01681   0.05406   0.06764   0.07678   0.09559
 Alpha virt. eigenvalues --    0.12258   0.14027   0.15311   0.17281   0.18791
 Alpha virt. eigenvalues --    0.19962   0.21426   0.24908   0.26539   0.29123

 Mulliken charges:
               1
     1  C    0.175263
     2  O   -0.353628
     3  C   -0.058311
     4  C   -0.130276
     5  H    0.102775
     6  H    0.091781
     7  H    0.101616
     8  H    0.070779
 Sum of Mulliken charges =   0.00000

 Dipole moment (field-independent basis, Debye):
    X=             -3.4162    Y=             -0.7619    Z=              0.2897  Tot=              3.5121
 Quadrupole moment (field-independent basis, Debye-Ang):
   XX=            -27.8528   YY=            -21.2746   ZZ=            -25.3285
   XY=             -0.5334   XZ=              0.3034   YZ=              0.3369

 Normal termination of Gaussian 09 at Wed Aug 26 13:42:25 2020.
