 Gaussian 09, Revision D.01,
 Gaussian 09:  ES64L-G09RevD.01 24-Apr-2013

 --------------------
 #p B2PLYPD3/Def2QZVP
 --------------------

 --------
 acrolein
 --------
 Symbolic Z-matrix:
 Charge =  0 Multiplicity = 1

                         Standard orientation:
 ---------------------------------------------------------------------
 Center     Atomic      Atomic             Coordinates (Angstroms)
 Number     Number       Type             X           Y           Z
 ---------------------------------------------------------------------
      1          6           0       -0.675924    0.355113   -0.002728
      2          8           0       -1.775641   -0.134924   -0.015978
      3          6           0        0.546459   -0.427587    0.019161
      4          6           0        1.761290    0.116444   -0.033128
      5          1           0        0.421639   -1.471631    0.077237
      6          1           0        1.827091    1.222813    0.001426
      7          1           0        2.641289   -0.453062    0.027307
      8          1           0       -0.475838    1.517454    0.122022
 ---------------------------------------------------------------------

 SCF Done:  E(RB2PLYPD3) =  -191.610355882     A.U. after   12 cycles
 E2(B2PLYPD3) =    -0.2475058606D+00 E(B2PLYPD3) =    -0.19185786174244D+03

 The electronic state is 1-A.
 Alpha  occ. eigenvalues --  -19.73190 -10.72218 -10.65397 -10.63852  -1.20223
 Alpha  occ. eigenvalues --   -0.93239  -0.75757  -0.66250  -0.57193  -0.55789
 Alpha  occ. eigenvalues --   -0.51032  -0.47468  -0.46541  -0.34769  -0.33848
 Alpha virt. eigenvalues --   -0.01942   0.05783   0.07012   0.08468   0.09871
 Alpha virt. eigenvalues --    0.12475   0.13717   0.15365   0.17529   0.19457
 Alpha virt. eigenvalues --    0.19951   0.21787   0.25492   0.26441   0.28707

 Mulliken charges:
               1
     1  C    0.165010
     2  O   -0.339573
     3  C   -0.035200
     4  C   -0.126851
     5  H    0.103769
     6  H    0.078309
     7  H    0.106771
     8  H    0.047765
 Sum of Mulliken charges =   0.00000

 Dipole moment (field-independent basis, Debye):
    X=              3.4192    Y=              0.6463    Z=              0.1582  Tot=              3.4834
 Quadrupole moment (field-independent basis, Debye-Ang):
   XX=            -27.2033   YY=            -22.0439   ZZ=            -25.1900
   XY=             -1.0109   XZ=              0.0404   YZ=             -0.0562

 Normal termination of Gaussian 09 at Wed Aug 26 09:27:49 2020.
