 Gaussian 09, Revision D.01,
 Gaussian 09:  ES64L-G09RevD.01 24-Apr-2013

 --------------------
 #p B2PLYPD3/Def2QZVP
 --------------------

 --------
 acrolein
 --------
 Symbolic Z-matrix:
 Charge =  0 Multiplicity = 1

                         Standard orientation:
 ---------------------------------------------------------------------
 Center     Atomic      Atomic             Coordinates (Angstroms)
 Number     Number       Type             X           Y           Z
 ---------------------------------------------------------------------
      1          6           0        0.684385    0.386748    0.005321
      2          8           0        1.780553   -0.160190   -0.008999
      3          6           0       -0.583801   -0.427672    0.023025
      4          6           0       -1.752715    0.135345   -0.025437
      5          1           0       -0.463764   -1.483446   -0.049854
      6          1           0       -1.789770    1.201463   -0.063189
      7          1           0       -2.645966   -0.471466    0.097048
      8          1           0        0.567862    1.468444    0.070535
 ---------------------------------------------------------------------

 SCF Done:  E(RB2PLYPD3) =  -191.611496971     A.U. after   13 cycles
 E2(B2PLYPD3) =    -0.2470363418D+00 E(B2PLYPD3) =    -0.19185853331311D+03

 The electronic state is 1-A.
 Alpha  occ. eigenvalues --  -19.73075 -10.72055 -10.64345 -10.63648  -1.18840
 Alpha  occ. eigenvalues --   -0.93378  -0.74866  -0.67409  -0.57085  -0.55977
 Alpha  occ. eigenvalues --   -0.50680  -0.46888  -0.46118  -0.35064  -0.33904
 Alpha virt. eigenvalues --   -0.01314   0.05818   0.07233   0.07776   0.09886
 Alpha virt. eigenvalues --    0.12429   0.13617   0.15351   0.17755   0.19293
 Alpha virt. eigenvalues --    0.20021   0.21910   0.25758   0.26427   0.28927

 Mulliken charges:
               1
     1  C    0.153449
     2  O   -0.351614
     3  C   -0.048785
     4  C   -0.127131
     5  H    0.107461
     6  H    0.077915
     7  H    0.102074
     8  H    0.086631
 Sum of Mulliken charges =   0.00000

 Dipole moment (field-independent basis, Debye):
    X=             -3.2951    Y=              0.9436    Z=              0.0407  Tot=              3.4278
 Quadrupole moment (field-independent basis, Debye-Ang):
   XX=            -27.7902   YY=            -21.5472   ZZ=            -25.1199
   XY=              1.4056   XZ=             -0.0672   YZ=             -0.0156

 Normal termination of Gaussian 09 at Wed Aug 26 10:45:35 2020.
