 Gaussian 09, Revision D.01,
 Gaussian 09:  ES64L-G09RevD.01 24-Apr-2013

 --------------------
 #p B2PLYPD3/Def2QZVP
 --------------------

 --------
 acrolein
 --------
 Symbolic Z-matrix:
 Charge =  0 Multiplicity = 1

                         Standard orientation:
 ---------------------------------------------------------------------
 Center     Atomic      Atomic             Coordinates (Angstroms)
 Number     Number       Type             X           Y           Z
 ---------------------------------------------------------------------
      1          6           0        0.679952    0.347249   -0.044126
      2          8           0        1.790992   -0.109973    0.031299
      3          6           0       -0.565920   -0.469411   -0.014187
      4          6           0       -1.768718    0.160771    0.005966
      5          1           0       -0.443849   -1.587374   -0.017844
      6          1           0       -1.881647    1.268483    0.083515
      7          1           0       -2.660262   -0.427252    0.031696
      8          1           0        0.585931    1.394278   -0.033680
 ---------------------------------------------------------------------

 SCF Done:  E(RB2PLYPD3) =  -191.610546243     A.U. after   12 cycles
 E2(B2PLYPD3) =    -0.2472485944D+00 E(B2PLYPD3) =    -0.19185779483721D+03

 The electronic state is 1-A.
 Alpha  occ. eigenvalues --  -19.72503 -10.70917 -10.65961 -10.65379  -1.19787
 Alpha  occ. eigenvalues --   -0.91974  -0.75166  -0.67163  -0.56550  -0.55987
 Alpha  occ. eigenvalues --   -0.50289  -0.46915  -0.46689  -0.34251  -0.33653
 Alpha virt. eigenvalues --   -0.01710   0.05718   0.07096   0.07964   0.09610
 Alpha virt. eigenvalues --    0.12479   0.14147   0.15386   0.17439   0.19482
 Alpha virt. eigenvalues --    0.20000   0.21617   0.25108   0.26396   0.28697

 Mulliken charges:
               1
     1  C    0.159971
     2  O   -0.346331
     3  C   -0.054099
     4  C   -0.134019
     5  H    0.104204
     6  H    0.089037
     7  H    0.102513
     8  H    0.078724
 Sum of Mulliken charges =   0.00000

 Dipole moment (field-independent basis, Debye):
    X=             -3.4222    Y=              0.7890    Z=             -0.0494  Tot=              3.5123
 Quadrupole moment (field-independent basis, Debye-Ang):
   XX=            -27.6117   YY=            -21.4485   ZZ=            -25.3465
   XY=              0.8960   XZ=             -0.3610   YZ=              0.1032

 Normal termination of Gaussian 09 at Wed Aug 26 08:54:23 2020.
