 Gaussian 09, Revision D.01,
 Gaussian 09:  ES64L-G09RevD.01 24-Apr-2013

 --------------------
 #p B2PLYPD3/Def2QZVP
 --------------------

 --------
 acrolein
 --------
 Symbolic Z-matrix:
 Charge =  0 Multiplicity = 1

                         Standard orientation:
 ---------------------------------------------------------------------
 Center     Atomic      Atomic             Coordinates (Angstroms)
 Number     Number       Type             X           Y           Z
 ---------------------------------------------------------------------
      1          6           0        0.664174    0.339386    0.017920
      2          8           0        1.796872   -0.104365   -0.020789
      3          6           0       -0.566955   -0.466525    0.009257
      4          6           0       -1.750986    0.150050   -0.022228
      5          1           0       -0.423942   -1.566427    0.055989
      6          1           0       -1.833412    1.235941   -0.036071
      7          1           0       -2.670140   -0.397655    0.023035
      8          1           0        0.475116    1.425595    0.093659
 ---------------------------------------------------------------------

 SCF Done:  E(RB2PLYPD3) =  -191.615485110     A.U. after   12 cycles
 E2(B2PLYPD3) =    -0.2477030162D+00 E(B2PLYPD3) =    -0.19186318812642D+03

 The electronic state is 1-A.
 Alpha  occ. eigenvalues --  -19.72838 -10.71611 -10.65610 -10.64865  -1.19075
 Alpha  occ. eigenvalues --   -0.93048  -0.75565  -0.66728  -0.56562  -0.56124
 Alpha  occ. eigenvalues --   -0.50550  -0.46955  -0.46444  -0.34731  -0.33804
 Alpha virt. eigenvalues --   -0.01863   0.05735   0.07016   0.08099   0.09707
 Alpha virt. eigenvalues --    0.12646   0.14032   0.15293   0.17230   0.19660
 Alpha virt. eigenvalues --    0.20084   0.21653   0.25255   0.26657   0.28668

 Mulliken charges:
               1
     1  C    0.157925
     2  O   -0.352587
     3  C   -0.035588
     4  C   -0.129840
     5  H    0.103378
     6  H    0.086126
     7  H    0.102838
     8  H    0.067748
 Sum of Mulliken charges =   0.00000

 Dipole moment (field-independent basis, Debye):
    X=             -3.5658    Y=              0.7084    Z=              0.1382  Tot=              3.6381
 Quadrupole moment (field-independent basis, Debye-Ang):
   XX=            -27.5559   YY=            -21.7164   ZZ=            -25.2562
   XY=              0.6803   XZ=              0.0733   YZ=             -0.0986

 Normal termination of Gaussian 09 at Wed Aug 26 16:39:20 2020.
