 Gaussian 09, Revision D.01,
 Gaussian 09:  ES64L-G09RevD.01 24-Apr-2013

 --------------------
 #p B2PLYPD3/Def2QZVP
 --------------------

 --------
 acrolein
 --------
 Symbolic Z-matrix:
 Charge =  0 Multiplicity = 1

                         Standard orientation:
 ---------------------------------------------------------------------
 Center     Atomic      Atomic             Coordinates (Angstroms)
 Number     Number       Type             X           Y           Z
 ---------------------------------------------------------------------
      1          6           0       -0.678227    0.365308   -0.017582
      2          8           0       -1.786182   -0.137745    0.021709
      3          6           0        0.562522   -0.453353   -0.035209
      4          6           0        1.754619    0.135956    0.006561
      5          1           0        0.454089   -1.478168    0.019863
      6          1           0        1.817222    1.219314    0.052904
      7          1           0        2.693043   -0.431613    0.062158
      8          1           0       -0.508383    1.504961   -0.031217
 ---------------------------------------------------------------------

 SCF Done:  E(RB2PLYPD3) =  -191.612759296     A.U. after   12 cycles
 E2(B2PLYPD3) =    -0.2477350576D+00 E(B2PLYPD3) =    -0.19186049435368D+03

 The electronic state is 1-A.
 Alpha  occ. eigenvalues --  -19.73075 -10.72378 -10.65478 -10.63951  -1.19291
 Alpha  occ. eigenvalues --   -0.92927  -0.74815  -0.67158  -0.56428  -0.56032
 Alpha  occ. eigenvalues --   -0.50573  -0.47178  -0.46591  -0.34676  -0.33872
 Alpha virt. eigenvalues --   -0.01644   0.05700   0.07214   0.07860   0.09786
 Alpha virt. eigenvalues --    0.12413   0.13714   0.15376   0.17694   0.19705
 Alpha virt. eigenvalues --    0.19951   0.21388   0.25404   0.26314   0.28870

 Mulliken charges:
               1
     1  C    0.157431
     2  O   -0.347805
     3  C   -0.045815
     4  C   -0.126596
     5  H    0.112460
     6  H    0.081621
     7  H    0.099430
     8  H    0.069274
 Sum of Mulliken charges =   0.00000

 Dipole moment (field-independent basis, Debye):
    X=              3.4229    Y=              0.7777    Z=              0.0417  Tot=              3.5104
 Quadrupole moment (field-independent basis, Debye-Ang):
   XX=            -27.4831   YY=            -21.7483   ZZ=            -25.2620
   XY=             -1.0548   XZ=              0.3620   YZ=             -0.0289

 Normal termination of Gaussian 09 at Wed Aug 26 10:07:00 2020.
