 Gaussian 09, Revision D.01,
 Gaussian 09:  ES64L-G09RevD.01 24-Apr-2013

 --------------------
 #p B2PLYPD3/Def2QZVP
 --------------------

 --------
 acrolein
 --------
 Symbolic Z-matrix:
 Charge =  0 Multiplicity = 1

                         Standard orientation:
 ---------------------------------------------------------------------
 Center     Atomic      Atomic             Coordinates (Angstroms)
 Number     Number       Type             X           Y           Z
 ---------------------------------------------------------------------
      1          6           0       -0.666731    0.346718    0.026573
      2          8           0       -1.776937   -0.108973   -0.031071
      3          6           0        0.557284   -0.458149    0.005844
      4          6           0        1.756446    0.149849   -0.007522
      5          1           0        0.362672   -1.571192    0.088343
      6          1           0        1.848970    1.211566   -0.085068
      7          1           0        2.722614   -0.384679   -0.027919
      8          1           0       -0.600749    1.385583    0.123838
 ---------------------------------------------------------------------

 SCF Done:  E(RB2PLYPD3) =  -191.610591464     A.U. after   12 cycles
 E2(B2PLYPD3) =    -0.2466645543D+00 E(B2PLYPD3) =    -0.19185725601836D+03

 The electronic state is 1-A.
 Alpha  occ. eigenvalues --  -19.72322 -10.70489 -10.65825 -10.65165  -1.19904
 Alpha  occ. eigenvalues --   -0.92558  -0.75483  -0.67471  -0.57219  -0.55871
 Alpha  occ. eigenvalues --   -0.50515  -0.46956  -0.46336  -0.34502  -0.33660
 Alpha virt. eigenvalues --   -0.01691   0.05741   0.07166   0.08234   0.09662
 Alpha virt. eigenvalues --    0.12511   0.14235   0.15293   0.17326   0.19604
 Alpha virt. eigenvalues --    0.20143   0.21402   0.25163   0.26738   0.29032

 Mulliken charges:
               1
     1  C    0.157072
     2  O   -0.349887
     3  C   -0.044289
     4  C   -0.129427
     5  H    0.105717
     6  H    0.087151
     7  H    0.099039
     8  H    0.074625
 Sum of Mulliken charges =   0.00000

 Dipole moment (field-independent basis, Debye):
    X=              3.4453    Y=              0.8134    Z=              0.1269  Tot=              3.5422
 Quadrupole moment (field-independent basis, Debye-Ang):
   XX=            -27.3056   YY=            -21.6821   ZZ=            -25.2155
   XY=             -0.7565   XZ=             -0.3449   YZ=             -0.1810

 Normal termination of Gaussian 09 at Wed Aug 26 10:06:15 2020.
