 Gaussian 09, Revision D.01,
 Gaussian 09:  ES64L-G09RevD.01 24-Apr-2013

 --------------------
 #p B2PLYPD3/Def2QZVP
 --------------------

 --------
 acrolein
 --------
 Symbolic Z-matrix:
 Charge =  0 Multiplicity = 1

                         Standard orientation:
 ---------------------------------------------------------------------
 Center     Atomic      Atomic             Coordinates (Angstroms)
 Number     Number       Type             X           Y           Z
 ---------------------------------------------------------------------
      1          6           0       -0.684677    0.373898   -0.024587
      2          8           0       -1.791430   -0.133869    0.043708
      3          6           0        0.584945   -0.431999   -0.088964
      4          6           0        1.780797    0.121933    0.018130
      5          1           0        0.426286   -1.587455    0.049821
      6          1           0        1.783253    1.218987    0.103144
      7          1           0        2.512745   -0.388657    0.157893
      8          1           0       -0.477234    1.445078   -0.087999
 ---------------------------------------------------------------------

 SCF Done:  E(RB2PLYPD3) =  -191.577526188     A.U. after   13 cycles
 E2(B2PLYPD3) =    -0.2478199848D+00 E(B2PLYPD3) =    -0.19182534617314D+03

 The electronic state is 1-A.
 Alpha  occ. eigenvalues --  -19.73400 -10.72245 -10.65054 -10.63408  -1.19290
 Alpha  occ. eigenvalues --   -0.93378  -0.76870  -0.66244  -0.58741  -0.55687
 Alpha  occ. eigenvalues --   -0.51756  -0.46591  -0.45476  -0.34857  -0.34136
 Alpha virt. eigenvalues --   -0.01789   0.05889   0.07056   0.07763   0.09791
 Alpha virt. eigenvalues --    0.12593   0.13991   0.15361   0.17080   0.19268
 Alpha virt. eigenvalues --    0.19979   0.22969   0.24769   0.26435   0.28562

 Mulliken charges:
               1
     1  C    0.163645
     2  O   -0.345819
     3  C   -0.037755
     4  C   -0.142810
     5  H    0.086768
     6  H    0.075279
     7  H    0.123913
     8  H    0.076779
 Sum of Mulliken charges =   0.00000

 Dipole moment (field-independent basis, Debye):
    X=              3.3187    Y=              0.8821    Z=              0.1278  Tot=              3.4363
 Quadrupole moment (field-independent basis, Debye-Ang):
   XX=            -27.7238   YY=            -21.7561   ZZ=            -25.1135
   XY=             -1.0545   XZ=              0.8246   YZ=             -0.1458

 Normal termination of Gaussian 09 at Wed Aug 26 10:53:23 2020.
