 Gaussian 09, Revision D.01,
 Gaussian 09:  ES64L-G09RevD.01 24-Apr-2013

 --------------------
 #p B2PLYPD3/Def2QZVP
 --------------------

 --------
 acrolein
 --------
 Symbolic Z-matrix:
 Charge =  0 Multiplicity = 1

                         Standard orientation:
 ---------------------------------------------------------------------
 Center     Atomic      Atomic             Coordinates (Angstroms)
 Number     Number       Type             X           Y           Z
 ---------------------------------------------------------------------
      1          6           0       -0.672416    0.343047    0.012310
      2          8           0       -1.783534   -0.118206   -0.011062
      3          6           0        0.545414   -0.446544    0.006403
      4          6           0        1.759150    0.144543   -0.020045
      5          1           0        0.431962   -1.514198    0.005437
      6          1           0        1.837750    1.212244   -0.044216
      7          1           0        2.714440   -0.444026    0.071415
      8          1           0       -0.508770    1.445345    0.063850
 ---------------------------------------------------------------------

 SCF Done:  E(RB2PLYPD3) =  -191.614642843     A.U. after   13 cycles
 E2(B2PLYPD3) =    -0.2473238567D+00 E(B2PLYPD3) =    -0.19186196669968D+03

 The electronic state is 1-A.
 Alpha  occ. eigenvalues --  -19.72723 -10.71367 -10.66174 -10.64422  -1.19948
 Alpha  occ. eigenvalues --   -0.92815  -0.75435  -0.67014  -0.56648  -0.56050
 Alpha  occ. eigenvalues --   -0.50348  -0.47136  -0.47023  -0.34435  -0.33802
 Alpha virt. eigenvalues --   -0.02035   0.05672   0.07137   0.08383   0.09757
 Alpha virt. eigenvalues --    0.12470   0.13906   0.15387   0.17599   0.19624
 Alpha virt. eigenvalues --    0.20015   0.21405   0.25422   0.26399   0.28801

 Mulliken charges:
               1
     1  C    0.153946
     2  O   -0.345793
     3  C   -0.034243
     4  C   -0.133166
     5  H    0.106709
     6  H    0.088030
     7  H    0.101138
     8  H    0.063380
 Sum of Mulliken charges =   0.00000

 Dipole moment (field-independent basis, Debye):
    X=              3.4992    Y=              0.7209    Z=              0.0871  Tot=              3.5737
 Quadrupole moment (field-independent basis, Debye-Ang):
   XX=            -27.3197   YY=            -21.8328   ZZ=            -25.2549
   XY=             -0.8842   XZ=              0.0582   YZ=             -0.0773

 Normal termination of Gaussian 09 at Wed Aug 26 08:57:02 2020.
