 Gaussian 09, Revision D.01,
 Gaussian 09:  ES64L-G09RevD.01 24-Apr-2013

 --------------------
 #p B2PLYPD3/Def2QZVP
 --------------------

 --------
 acrolein
 --------
 Symbolic Z-matrix:
 Charge =  0 Multiplicity = 1

                         Standard orientation:
 ---------------------------------------------------------------------
 Center     Atomic      Atomic             Coordinates (Angstroms)
 Number     Number       Type             X           Y           Z
 ---------------------------------------------------------------------
      1          6           0       -0.686106    0.327045    0.052827
      2          8           0       -1.794000   -0.103796   -0.059493
      3          6           0        0.625245   -0.480256   -0.000641
      4          6           0        1.755013    0.152117   -0.001726
      5          1           0        0.446392   -1.502537    0.213842
      6          1           0        1.877645    1.307184   -0.143519
      7          1           0        2.477289   -0.353593   -0.122461
      8          1           0       -0.614233    1.385880    0.225328
 ---------------------------------------------------------------------

 SCF Done:  E(RB2PLYPD3) =  -191.565887286     A.U. after   13 cycles
 E2(B2PLYPD3) =    -0.2454069291D+00 E(B2PLYPD3) =    -0.19181129421533D+03

 The electronic state is 1-A.
 Alpha  occ. eigenvalues --  -19.72829 -10.71149 -10.64191 -10.63210  -1.20500
 Alpha  occ. eigenvalues --   -0.93861  -0.76013  -0.67141  -0.58308  -0.56008
 Alpha  occ. eigenvalues --   -0.51658  -0.47589  -0.46338  -0.35603  -0.33062
 Alpha virt. eigenvalues --   -0.00670   0.05992   0.07422   0.07685   0.09563
 Alpha virt. eigenvalues --    0.12741   0.13887   0.15019   0.17807   0.19319
 Alpha virt. eigenvalues --    0.19787   0.22676   0.24503   0.26904   0.28187

 Mulliken charges:
               1
     1  C    0.152510
     2  O   -0.333403
     3  C   -0.056538
     4  C   -0.144773
     5  H    0.103864
     6  H    0.078627
     7  H    0.125764
     8  H    0.073948
 Sum of Mulliken charges =   0.00000

 Dipole moment (field-independent basis, Debye):
    X=              3.2300    Y=              0.6752    Z=              0.2375  Tot=              3.3083
 Quadrupole moment (field-independent basis, Debye-Ang):
   XX=            -27.6743   YY=            -21.6232   ZZ=            -24.8530
   XY=             -0.7830   XZ=             -0.7277   YZ=             -0.3782

 Normal termination of Gaussian 09 at Wed Aug 26 10:48:34 2020.
