 Gaussian 09, Revision D.01,
 Gaussian 09:  ES64L-G09RevD.01 24-Apr-2013

 --------------------
 #p B2PLYPD3/Def2QZVP
 --------------------

 --------
 acrolein
 --------
 Symbolic Z-matrix:
 Charge =  0 Multiplicity = 1

                         Standard orientation:
 ---------------------------------------------------------------------
 Center     Atomic      Atomic             Coordinates (Angstroms)
 Number     Number       Type             X           Y           Z
 ---------------------------------------------------------------------
      1          6           0        0.677391    0.379178    0.062729
      2          8           0        1.784810   -0.151577   -0.055740
      3          6           0       -0.518551   -0.414847    0.004063
      4          6           0       -1.765938    0.103458   -0.044295
      5          1           0       -0.553259   -1.408477    0.214615
      6          1           0       -1.849314    1.275468   -0.083205
      7          1           0       -2.703657   -0.493554    0.011135
      8          1           0        0.470348    1.432444    0.168388
 ---------------------------------------------------------------------

 SCF Done:  E(RB2PLYPD3) =  -191.595737851     A.U. after   13 cycles
 E2(B2PLYPD3) =    -0.2494097548D+00 E(B2PLYPD3) =    -0.19184514760588D+03

 The electronic state is 1-A.
 Alpha  occ. eigenvalues --  -19.73030 -10.71836 -10.66920 -10.63498  -1.18418
 Alpha  occ. eigenvalues --   -0.93081  -0.75909  -0.67616  -0.56602  -0.56161
 Alpha  occ. eigenvalues --   -0.50536  -0.46713  -0.44920  -0.34442  -0.34160
 Alpha virt. eigenvalues --   -0.02563   0.05416   0.06966   0.07921   0.09603
 Alpha virt. eigenvalues --    0.12129   0.13931   0.15049   0.18441   0.18805
 Alpha virt. eigenvalues --    0.19924   0.21129   0.24807   0.26734   0.29128

 Mulliken charges:
               1
     1  C    0.152192
     2  O   -0.353643
     3  C   -0.030484
     4  C   -0.125534
     5  H    0.102676
     6  H    0.060744
     7  H    0.103844
     8  H    0.090204
 Sum of Mulliken charges =   0.00000

 Dipole moment (field-independent basis, Debye):
    X=             -3.5621    Y=              0.8752    Z=              0.4147  Tot=              3.6914
 Quadrupole moment (field-independent basis, Debye-Ang):
   XX=            -27.4570   YY=            -21.8800   ZZ=            -25.2608
   XY=              1.5285   XZ=              0.1712   YZ=             -0.2848

 Normal termination of Gaussian 09 at Wed Aug 26 13:03:02 2020.
