 Gaussian 09, Revision D.01,
 Gaussian 09:  ES64L-G09RevD.01 24-Apr-2013

 --------------------
 #p B2PLYPD3/Def2QZVP
 --------------------

 --------
 acrolein
 --------
 Symbolic Z-matrix:
 Charge =  0 Multiplicity = 1

                         Standard orientation:
 ---------------------------------------------------------------------
 Center     Atomic      Atomic             Coordinates (Angstroms)
 Number     Number       Type             X           Y           Z
 ---------------------------------------------------------------------
      1          6           0        0.677879    0.346857   -0.021129
      2          8           0        1.789241   -0.117720    0.024753
      3          6           0       -0.549733   -0.456219   -0.027428
      4          6           0       -1.765466    0.144462    0.006311
      5          1           0       -0.427451   -1.548300   -0.035281
      6          1           0       -1.837631    1.244909    0.003121
      7          1           0       -2.748977   -0.422679    0.106093
      8          1           0        0.524053    1.457234   -0.018482
 ---------------------------------------------------------------------

 SCF Done:  E(RB2PLYPD3) =  -191.612626971     A.U. after   13 cycles
 E2(B2PLYPD3) =    -0.2480572246D+00 E(B2PLYPD3) =    -0.19186068419583D+03

 The electronic state is 1-A.
 Alpha  occ. eigenvalues --  -19.72799 -10.71669 -10.66724 -10.65006  -1.19863
 Alpha  occ. eigenvalues --   -0.92284  -0.74893  -0.66545  -0.56291  -0.55755
 Alpha  occ. eigenvalues --   -0.50271  -0.46998  -0.46471  -0.34337  -0.33826
 Alpha virt. eigenvalues --   -0.01982   0.05569   0.07016   0.08160   0.09661
 Alpha virt. eigenvalues --    0.12273   0.13965   0.15372   0.17449   0.19698
 Alpha virt. eigenvalues --    0.19865   0.21154   0.25240   0.26348   0.28904

 Mulliken charges:
               1
     1  C    0.157903
     2  O   -0.344580
     3  C   -0.040900
     4  C   -0.130233
     5  H    0.106440
     6  H    0.084530
     7  H    0.101461
     8  H    0.065378
 Sum of Mulliken charges =   0.00000

 Dipole moment (field-independent basis, Debye):
    X=             -3.4748    Y=              0.7347    Z=             -0.0198  Tot=              3.5517
 Quadrupole moment (field-independent basis, Debye-Ang):
   XX=            -27.3351   YY=            -21.8077   ZZ=            -25.4000
   XY=              0.8866   XZ=             -0.3812   YZ=             -0.0196

 Normal termination of Gaussian 09 at Wed Aug 26 16:10:06 2020.
