 Gaussian 09, Revision D.01,
 Gaussian 09:  ES64L-G09RevD.01 24-Apr-2013

 --------------------
 #p B2PLYPD3/Def2QZVP
 --------------------

 --------
 acrolein
 --------
 Symbolic Z-matrix:
 Charge =  0 Multiplicity = 1

                         Standard orientation:
 ---------------------------------------------------------------------
 Center     Atomic      Atomic             Coordinates (Angstroms)
 Number     Number       Type             X           Y           Z
 ---------------------------------------------------------------------
      1          6           0       -0.683265    0.354849    0.017309
      2          8           0       -1.779655   -0.136810   -0.023943
      3          6           0        0.534458   -0.451136    0.055246
      4          6           0        1.762668    0.131479   -0.031387
      5          1           0        0.522199   -1.436695   -0.034489
      6          1           0        1.825933    1.219586    0.026993
      7          1           0        2.731086   -0.410188   -0.052701
      8          1           0       -0.525143    1.510626    0.004737
 ---------------------------------------------------------------------

 SCF Done:  E(RB2PLYPD3) =  -191.603888523     A.U. after   13 cycles
 E2(B2PLYPD3) =    -0.2477735029D+00 E(B2PLYPD3) =    -0.19185166202585D+03

 The electronic state is 1-A.
 Alpha  occ. eigenvalues --  -19.72896 -10.72179 -10.66178 -10.63753  -1.20188
 Alpha  occ. eigenvalues --   -0.92670  -0.74967  -0.67592  -0.56617  -0.56214
 Alpha  occ. eigenvalues --   -0.50305  -0.47300  -0.47093  -0.34264  -0.33846
 Alpha virt. eigenvalues --   -0.02026   0.05693   0.07291   0.08032   0.09697
 Alpha virt. eigenvalues --    0.12327   0.13887   0.15305   0.18118   0.19811
 Alpha virt. eigenvalues --    0.19877   0.20990   0.24903   0.26200   0.29027

 Mulliken charges:
               1
     1  C    0.153216
     2  O   -0.337556
     3  C   -0.044634
     4  C   -0.123618
     5  H    0.113411
     6  H    0.076543
     7  H    0.097883
     8  H    0.064755
 Sum of Mulliken charges =   0.00000

 Dipole moment (field-independent basis, Debye):
    X=              3.4578    Y=              0.7316    Z=              0.0077  Tot=              3.5343
 Quadrupole moment (field-independent basis, Debye-Ang):
   XX=            -27.0509   YY=            -21.9486   ZZ=            -25.2804
   XY=             -1.1709   XZ=             -0.2494   YZ=              0.1415

 Normal termination of Gaussian 09 at Wed Aug 26 09:32:00 2020.
