 Gaussian 09, Revision D.01,
 Gaussian 09:  ES64L-G09RevD.01 24-Apr-2013

 --------------------
 #p B2PLYPD3/Def2QZVP
 --------------------

 --------
 acrolein
 --------
 Symbolic Z-matrix:
 Charge =  0 Multiplicity = 1

                         Standard orientation:
 ---------------------------------------------------------------------
 Center     Atomic      Atomic             Coordinates (Angstroms)
 Number     Number       Type             X           Y           Z
 ---------------------------------------------------------------------
      1          6           0       -0.674839    0.353785    0.020357
      2          8           0       -1.780051   -0.128228   -0.020170
      3          6           0        0.563004   -0.447758    0.002179
      4          6           0        1.753846    0.142850   -0.002044
      5          1           0        0.449510   -1.497796    0.064237
      6          1           0        1.830978    1.191285   -0.053106
      7          1           0        2.645917   -0.418683   -0.033798
      8          1           0       -0.538059    1.457757    0.061074
 ---------------------------------------------------------------------

 SCF Done:  E(RB2PLYPD3) =  -191.616294097     A.U. after   12 cycles
 E2(B2PLYPD3) =    -0.2463805344D+00 E(B2PLYPD3) =    -0.19186267463125D+03

 The electronic state is 1-A.
 Alpha  occ. eigenvalues --  -19.72786 -10.71567 -10.64659 -10.64023  -1.19786
 Alpha  occ. eigenvalues --   -0.93152  -0.75578  -0.67334  -0.56946  -0.56635
 Alpha  occ. eigenvalues --   -0.50727  -0.47573  -0.46819  -0.34703  -0.33778
 Alpha virt. eigenvalues --   -0.01555   0.05880   0.07316   0.08167   0.09804
 Alpha virt. eigenvalues --    0.12681   0.14014   0.15321   0.17605   0.19835
 Alpha virt. eigenvalues --    0.20068   0.21806   0.25453   0.26442   0.28785

 Mulliken charges:
               1
     1  C    0.152841
     2  O   -0.345670
     3  C   -0.040621
     4  C   -0.131519
     5  H    0.107500
     6  H    0.085358
     7  H    0.101008
     8  H    0.071103
 Sum of Mulliken charges =   0.00000

 Dipole moment (field-independent basis, Debye):
    X=              3.4219    Y=              0.7733    Z=              0.0715  Tot=              3.5089
 Quadrupole moment (field-independent basis, Debye-Ang):
   XX=            -27.3823   YY=            -21.7211   ZZ=            -25.1081
   XY=             -0.9888   XZ=             -0.2310   YZ=             -0.1166

 Normal termination of Gaussian 09 at Wed Aug 26 16:33:05 2020.
