 Gaussian 09, Revision D.01,
 Gaussian 09:  ES64L-G09RevD.01 24-Apr-2013

 --------------------
 #p B2PLYPD3/Def2QZVP
 --------------------

 --------
 acrolein
 --------
 Symbolic Z-matrix:
 Charge =  0 Multiplicity = 1

                         Standard orientation:
 ---------------------------------------------------------------------
 Center     Atomic      Atomic             Coordinates (Angstroms)
 Number     Number       Type             X           Y           Z
 ---------------------------------------------------------------------
      1          6           0        0.666949    0.338847    0.013342
      2          8           0        1.794805   -0.115804   -0.020613
      3          6           0       -0.578880   -0.453033    0.017390
      4          6           0       -1.748738    0.147900   -0.011754
      5          1           0       -0.467068   -1.516840    0.035070
      6          1           0       -1.828477    1.241578   -0.057381
      7          1           0       -2.615244   -0.424953   -0.017005
      8          1           0        0.516367    1.424363    0.090349
 ---------------------------------------------------------------------

 SCF Done:  E(RB2PLYPD3) =  -191.615364375     A.U. after   12 cycles
 E2(B2PLYPD3) =    -0.2467687003D+00 E(B2PLYPD3) =    -0.19186213307572D+03

 The electronic state is 1-A.
 Alpha  occ. eigenvalues --  -19.72819 -10.71537 -10.64887 -10.64084  -1.19111
 Alpha  occ. eigenvalues --   -0.93573  -0.75680  -0.67116  -0.57023  -0.56362
 Alpha  occ. eigenvalues --   -0.50701  -0.47252  -0.46510  -0.35039  -0.33769
 Alpha virt. eigenvalues --   -0.01580   0.05822   0.07192   0.08191   0.09745
 Alpha virt. eigenvalues --    0.12698   0.13966   0.15319   0.17515   0.19537
 Alpha virt. eigenvalues --    0.20084   0.21883   0.25482   0.26572   0.28654

 Mulliken charges:
               1
     1  C    0.156036
     2  O   -0.351926
     3  C   -0.038460
     4  C   -0.129035
     5  H    0.103381
     6  H    0.086408
     7  H    0.103655
     8  H    0.069941
 Sum of Mulliken charges =   0.00000

 Dipole moment (field-independent basis, Debye):
    X=             -3.5221    Y=              0.7197    Z=              0.0596  Tot=              3.5954
 Quadrupole moment (field-independent basis, Debye-Ang):
   XX=            -27.6256   YY=            -21.6721   ZZ=            -25.1117
   XY=              0.9263   XZ=              0.2229   YZ=             -0.0690

 Normal termination of Gaussian 09 at Wed Aug 26 15:34:05 2020.
