 Gaussian 09, Revision D.01,
 Gaussian 09:  ES64L-G09RevD.01 24-Apr-2013

 --------------------
 #p B2PLYPD3/Def2QZVP
 --------------------

 --------
 acrolein
 --------
 Symbolic Z-matrix:
 Charge =  0 Multiplicity = 1

                         Standard orientation:
 ---------------------------------------------------------------------
 Center     Atomic      Atomic             Coordinates (Angstroms)
 Number     Number       Type             X           Y           Z
 ---------------------------------------------------------------------
      1          6           0       -0.661862    0.352413   -0.011389
      2          8           0       -1.778782   -0.132168    0.021642
      3          6           0        0.561156   -0.429202   -0.047409
      4          6           0        1.750098    0.143653    0.004109
      5          1           0        0.431263   -1.459933    0.027336
      6          1           0        1.708543    1.129867    0.029571
      7          1           0        2.691316   -0.424987    0.114687
      8          1           0       -0.497221    1.411215   -0.016599
 ---------------------------------------------------------------------

 SCF Done:  E(RB2PLYPD3) =  -191.605280238     A.U. after   12 cycles
 E2(B2PLYPD3) =    -0.2465939255D+00 E(B2PLYPD3) =    -0.19185187416315D+03

 The electronic state is 1-A.
 Alpha  occ. eigenvalues --  -19.72777 -10.71159 -10.64521 -10.63391  -1.19084
 Alpha  occ. eigenvalues --   -0.94179  -0.76190  -0.68461  -0.57583  -0.56341
 Alpha  occ. eigenvalues --   -0.50705  -0.47619  -0.46662  -0.34846  -0.34017
 Alpha virt. eigenvalues --   -0.01866   0.05857   0.07337   0.08288   0.09932
 Alpha virt. eigenvalues --    0.12780   0.13782   0.15299   0.17728   0.19773
 Alpha virt. eigenvalues --    0.20445   0.21667   0.25485   0.26578   0.29198

 Mulliken charges:
               1
     1  C    0.143927
     2  O   -0.356794
     3  C   -0.018960
     4  C   -0.139045
     5  H    0.104248
     6  H    0.086225
     7  H    0.106916
     8  H    0.073484
 Sum of Mulliken charges =   0.00000

 Dipole moment (field-independent basis, Debye):
    X=              3.5152    Y=              0.8050    Z=              0.0879  Tot=              3.6072
 Quadrupole moment (field-independent basis, Debye-Ang):
   XX=            -27.4094   YY=            -21.8685   ZZ=            -24.9626
   XY=             -1.1786   XZ=              0.4707   YZ=             -0.0995

 Normal termination of Gaussian 09 at Wed Aug 26 09:41:33 2020.
