 Gaussian 09, Revision D.01,
 Gaussian 09:  ES64L-G09RevD.01 24-Apr-2013

 --------------------
 #p B2PLYPD3/Def2QZVP
 --------------------

 --------
 acrolein
 --------
 Symbolic Z-matrix:
 Charge =  0 Multiplicity = 1

                         Standard orientation:
 ---------------------------------------------------------------------
 Center     Atomic      Atomic             Coordinates (Angstroms)
 Number     Number       Type             X           Y           Z
 ---------------------------------------------------------------------
      1          6           0        0.675126    0.352975   -0.021341
      2          8           0        1.781375   -0.126530    0.012415
      3          6           0       -0.559231   -0.440633   -0.017013
      4          6           0       -1.751208    0.151627    0.010467
      5          1           0       -0.455707   -1.551040    0.014375
      6          1           0       -1.786188    1.161475   -0.016997
      7          1           0       -2.703929   -0.417368    0.030268
      8          1           0        0.506705    1.435364    0.040362
 ---------------------------------------------------------------------

 SCF Done:  E(RB2PLYPD3) =  -191.611872119     A.U. after   12 cycles
 E2(B2PLYPD3) =    -0.2468122959D+00 E(B2PLYPD3) =    -0.19185868441507D+03

 The electronic state is 1-A.
 Alpha  occ. eigenvalues --  -19.72849 -10.71487 -10.64876 -10.64495  -1.19833
 Alpha  occ. eigenvalues --   -0.93192  -0.75583  -0.67157  -0.57132  -0.56180
 Alpha  occ. eigenvalues --   -0.50546  -0.47024  -0.46820  -0.34699  -0.33899
 Alpha virt. eigenvalues --   -0.01667   0.05827   0.07040   0.08210   0.09810
 Alpha virt. eigenvalues --    0.12679   0.14077   0.15343   0.17286   0.19852
 Alpha virt. eigenvalues --    0.20297   0.21625   0.25457   0.26524   0.28852

 Mulliken charges:
               1
     1  C    0.150146
     2  O   -0.345060
     3  C   -0.029445
     4  C   -0.137711
     5  H    0.100215
     6  H    0.087524
     7  H    0.102899
     8  H    0.071431
 Sum of Mulliken charges =   0.00000

 Dipole moment (field-independent basis, Debye):
    X=             -3.4353    Y=              0.8011    Z=             -0.0143  Tot=              3.5275
 Quadrupole moment (field-independent basis, Debye-Ang):
   XX=            -27.3650   YY=            -21.7848   ZZ=            -25.1664
   XY=              1.0043   XZ=             -0.1095   YZ=             -0.0508

 Normal termination of Gaussian 09 at Wed Aug 26 16:14:42 2020.
