 Gaussian 09, Revision D.01,
 Gaussian 09:  ES64L-G09RevD.01 24-Apr-2013

 --------------------
 #p B2PLYPD3/Def2QZVP
 --------------------

 --------
 acrolein
 --------
 Symbolic Z-matrix:
 Charge =  0 Multiplicity = 1

                         Standard orientation:
 ---------------------------------------------------------------------
 Center     Atomic      Atomic             Coordinates (Angstroms)
 Number     Number       Type             X           Y           Z
 ---------------------------------------------------------------------
      1          6           0        0.660749    0.337533    0.017105
      2          8           0        1.793199   -0.111076   -0.015207
      3          6           0       -0.562369   -0.462686   -0.004300
      4          6           0       -1.745392    0.144022   -0.003392
      5          1           0       -0.459233   -1.518518    0.052063
      6          1           0       -1.854324    1.279126   -0.054348
      7          1           0       -2.652952   -0.432992    0.003327
      8          1           0        0.502985    1.447774    0.064139
 ---------------------------------------------------------------------

 SCF Done:  E(RB2PLYPD3) =  -191.613682378     A.U. after   13 cycles
 E2(B2PLYPD3) =    -0.2477331365D+00 E(B2PLYPD3) =    -0.19186141551430D+03

 The electronic state is 1-A.
 Alpha  occ. eigenvalues --  -19.72728 -10.71667 -10.66077 -10.64294  -1.18964
 Alpha  occ. eigenvalues --   -0.93286  -0.75307  -0.66796  -0.56547  -0.56016
 Alpha  occ. eigenvalues --   -0.50351  -0.46900  -0.46488  -0.34831  -0.33755
 Alpha virt. eigenvalues --   -0.01835   0.05619   0.07065   0.08129   0.09670
 Alpha virt. eigenvalues --    0.12450   0.13904   0.15254   0.17590   0.19415
 Alpha virt. eigenvalues --    0.20011   0.21552   0.25298   0.26521   0.28755

 Mulliken charges:
               1
     1  C    0.157176
     2  O   -0.352973
     3  C   -0.040030
     4  C   -0.124545
     5  H    0.107852
     6  H    0.085013
     7  H    0.101446
     8  H    0.066061
 Sum of Mulliken charges =   0.00000

 Dipole moment (field-independent basis, Debye):
    X=             -3.5897    Y=              0.6782    Z=              0.0810  Tot=              3.6541
 Quadrupole moment (field-independent basis, Debye-Ang):
   XX=            -27.5983   YY=            -21.6770   ZZ=            -25.2506
   XY=              0.8534   XZ=              0.1205   YZ=             -0.1285

 Normal termination of Gaussian 09 at Wed Aug 26 19:17:56 2020.
