 Gaussian 09, Revision D.01,
 Gaussian 09:  ES64L-G09RevD.01 24-Apr-2013

 --------------------
 #p B2PLYPD3/Def2QZVP
 --------------------

 --------
 acrolein
 --------
 Symbolic Z-matrix:
 Charge =  0 Multiplicity = 1

                         Standard orientation:
 ---------------------------------------------------------------------
 Center     Atomic      Atomic             Coordinates (Angstroms)
 Number     Number       Type             X           Y           Z
 ---------------------------------------------------------------------
      1          6           0       -0.683941    0.352237    0.022348
      2          8           0       -1.782333   -0.131151   -0.020936
      3          6           0        0.557568   -0.447419    0.013389
      4          6           0        1.759012    0.138586   -0.017259
      5          1           0        0.448975   -1.493869    0.055368
      6          1           0        1.817251    1.223624    0.005572
      7          1           0        2.714493   -0.431537   -0.032999
      8          1           0       -0.517889    1.490570    0.028681
 ---------------------------------------------------------------------

 SCF Done:  E(RB2PLYPD3) =  -191.614599180     A.U. after   13 cycles
 E2(B2PLYPD3) =    -0.2471623911D+00 E(B2PLYPD3) =    -0.19186176157130D+03

 The electronic state is 1-A.
 Alpha  occ. eigenvalues --  -19.73024 -10.72024 -10.65776 -10.64138  -1.20289
 Alpha  occ. eigenvalues --   -0.92722  -0.74850  -0.66781  -0.56333  -0.56221
 Alpha  occ. eigenvalues --   -0.50675  -0.47288  -0.46830  -0.34612  -0.33805
 Alpha virt. eigenvalues --   -0.01609   0.05724   0.07165   0.08204   0.09769
 Alpha virt. eigenvalues --    0.12389   0.13819   0.15393   0.17641   0.19794
 Alpha virt. eigenvalues --    0.19912   0.21288   0.25524   0.26280   0.28884

 Mulliken charges:
               1
     1  C    0.157766
     2  O   -0.338797
     3  C   -0.040958
     4  C   -0.131133
     5  H    0.107627
     6  H    0.083264
     7  H    0.101758
     8  H    0.060472
 Sum of Mulliken charges =   0.00000

 Dipole moment (field-independent basis, Debye):
    X=              3.3766    Y=              0.7204    Z=              0.1057  Tot=              3.4542
 Quadrupole moment (field-independent basis, Debye-Ang):
   XX=            -27.2653   YY=            -21.8870   ZZ=            -25.2711
   XY=             -1.0148   XZ=             -0.1394   YZ=             -0.0380

 Normal termination of Gaussian 09 at Wed Aug 26 16:39:52 2020.
