 Gaussian 09, Revision D.01,
 Gaussian 09:  ES64L-G09RevD.01 24-Apr-2013

 --------------------
 #p B2PLYPD3/Def2QZVP
 --------------------

 --------
 acrolein
 --------
 Symbolic Z-matrix:
 Charge =  0 Multiplicity = 1

                         Standard orientation:
 ---------------------------------------------------------------------
 Center     Atomic      Atomic             Coordinates (Angstroms)
 Number     Number       Type             X           Y           Z
 ---------------------------------------------------------------------
      1          6           0        0.660143    0.373753    0.093649
      2          8           0        1.796990   -0.148240   -0.070267
      3          6           0       -0.573665   -0.441571    0.073088
      4          6           0       -1.740001    0.163864   -0.061691
      5          1           0       -0.491564   -1.549191    0.030631
      6          1           0       -1.776702    1.195022   -0.026946
      7          1           0       -2.805252   -0.469306   -0.075456
      8          1           0        0.618727    1.433121    0.003629
 ---------------------------------------------------------------------

 SCF Done:  E(RB2PLYPD3) =  -191.590510051     A.U. after   13 cycles
 E2(B2PLYPD3) =    -0.2502811794D+00 E(B2PLYPD3) =    -0.19184079123065D+03

 The electronic state is 1-A.
 Alpha  occ. eigenvalues --  -19.72769 -10.72070 -10.66268 -10.65048  -1.16657
 Alpha  occ. eigenvalues --   -0.93336  -0.74824  -0.67709  -0.57373  -0.54584
 Alpha  occ. eigenvalues --   -0.49266  -0.45904  -0.45298  -0.34854  -0.33932
 Alpha virt. eigenvalues --   -0.02248   0.05216   0.06735   0.07187   0.09710
 Alpha virt. eigenvalues --    0.12007   0.13883   0.15197   0.17544   0.19624
 Alpha virt. eigenvalues --    0.20098   0.20844   0.24561   0.26431   0.29345

 Mulliken charges:
               1
     1  C    0.146329
     2  O   -0.371733
     3  C   -0.036378
     4  C   -0.125629
     5  H    0.112753
     6  H    0.090234
     7  H    0.090634
     8  H    0.093791
 Sum of Mulliken charges =   0.00000

 Dipole moment (field-independent basis, Debye):
    X=             -3.5665    Y=              0.9703    Z=              0.2128  Tot=              3.7023
 Quadrupole moment (field-independent basis, Debye-Ang):
   XX=            -28.0191   YY=            -21.4305   ZZ=            -25.4126
   XY=              1.4160   XZ=              0.4834   YZ=              0.0040

 Normal termination of Gaussian 09 at Wed Aug 26 12:12:16 2020.
