 Gaussian 09, Revision D.01,
 Gaussian 09:  ES64L-G09RevD.01 24-Apr-2013

 --------------------
 #p B2PLYPD3/Def2QZVP
 --------------------

 --------
 acrolein
 --------
 Symbolic Z-matrix:
 Charge =  0 Multiplicity = 1

                         Standard orientation:
 ---------------------------------------------------------------------
 Center     Atomic      Atomic             Coordinates (Angstroms)
 Number     Number       Type             X           Y           Z
 ---------------------------------------------------------------------
      1          6           0       -0.663174    0.368436   -0.044866
      2          8           0       -1.796449   -0.146298    0.046714
      3          6           0        0.564795   -0.427544   -0.040488
      4          6           0        1.749921    0.125823    0.007559
      5          1           0        0.431819   -1.471441   -0.123475
      6          1           0        1.727678    1.147166   -0.027350
      7          1           0        2.703692   -0.456295    0.241263
      8          1           0       -0.400855    1.550662    0.002620
 ---------------------------------------------------------------------

 SCF Done:  E(RB2PLYPD3) =  -191.594829622     A.U. after   13 cycles
 E2(B2PLYPD3) =    -0.2501307913D+00 E(B2PLYPD3) =    -0.19184496041371D+03

 The electronic state is 1-A.
 Alpha  occ. eigenvalues --  -19.73585 -10.73390 -10.65207 -10.63855  -1.17789
 Alpha  occ. eigenvalues --   -0.94211  -0.75414  -0.66836  -0.56351  -0.55523
 Alpha  occ. eigenvalues --   -0.50194  -0.47274  -0.45829  -0.35007  -0.34096
 Alpha virt. eigenvalues --   -0.02336   0.05570   0.06790   0.07694   0.09949
 Alpha virt. eigenvalues --    0.12389   0.13159   0.15073   0.17440   0.19354
 Alpha virt. eigenvalues --    0.20286   0.21601   0.25233   0.26525   0.28984

 Mulliken charges:
               1
     1  C    0.160139
     2  O   -0.358834
     3  C   -0.015420
     4  C   -0.128054
     5  H    0.104189
     6  H    0.081668
     7  H    0.107140
     8  H    0.049173
 Sum of Mulliken charges =   0.00000

 Dipole moment (field-independent basis, Debye):
    X=              3.5960    Y=              0.7198    Z=             -0.0703  Tot=              3.6680
 Quadrupole moment (field-independent basis, Debye-Ang):
   XX=            -27.6260   YY=            -22.0631   ZZ=            -25.1887
   XY=             -1.0903   XZ=              0.7197   YZ=             -0.0275

 Normal termination of Gaussian 09 at Wed Aug 26 13:14:47 2020.
