 Gaussian 09, Revision D.01,
 Gaussian 09:  ES64L-G09RevD.01 24-Apr-2013

 --------------------
 #p B2PLYPD3/Def2QZVP
 --------------------

 --------
 acrolein
 --------
 Symbolic Z-matrix:
 Charge =  0 Multiplicity = 1

                         Standard orientation:
 ---------------------------------------------------------------------
 Center     Atomic      Atomic             Coordinates (Angstroms)
 Number     Number       Type             X           Y           Z
 ---------------------------------------------------------------------
      1          6           0        0.669231    0.381342    0.083287
      2          8           0        1.767536   -0.155620   -0.054788
      3          6           0       -0.554305   -0.436343    0.057454
      4          6           0       -1.735332    0.123312   -0.043105
      5          1           0       -0.416169   -1.486020   -0.001276
      6          1           0       -1.839767    1.279790   -0.013863
      7          1           0       -2.730843   -0.498713   -0.070256
      8          1           0        0.568921    1.540038   -0.062113
 ---------------------------------------------------------------------

 SCF Done:  E(RB2PLYPD3) =  -191.598783327     A.U. after   13 cycles
 E2(B2PLYPD3) =    -0.2492960160D+00 E(B2PLYPD3) =    -0.19184807934274D+03

 The electronic state is 1-A.
 Alpha  occ. eigenvalues --  -19.73024 -10.72583 -10.66650 -10.64081  -1.18641
 Alpha  occ. eigenvalues --   -0.93093  -0.74045  -0.66191  -0.55709  -0.55650
 Alpha  occ. eigenvalues --   -0.50010  -0.46436  -0.45411  -0.35050  -0.33774
 Alpha virt. eigenvalues --   -0.01728   0.05346   0.06753   0.07526   0.09723
 Alpha virt. eigenvalues --    0.11831   0.13652   0.15292   0.17788   0.19177
 Alpha virt. eigenvalues --    0.19717   0.21164   0.24998   0.26651   0.29161

 Mulliken charges:
               1
     1  C    0.166673
     2  O   -0.353072
     3  C   -0.054321
     4  C   -0.116138
     5  H    0.117204
     6  H    0.077131
     7  H    0.095168
     8  H    0.067357
 Sum of Mulliken charges =   0.00000

 Dipole moment (field-independent basis, Debye):
    X=             -3.3663    Y=              0.8213    Z=              0.1192  Tot=              3.4671
 Quadrupole moment (field-independent basis, Debye-Ang):
   XX=            -27.6368   YY=            -21.6702   ZZ=            -25.4027
   XY=              1.2652   XZ=              0.4060   YZ=              0.0112

 Normal termination of Gaussian 09 at Wed Aug 26 14:12:32 2020.
