 Gaussian 09, Revision D.01,
 Gaussian 09:  ES64L-G09RevD.01 24-Apr-2013

 --------------------
 #p B2PLYPD3/Def2QZVP
 --------------------

 --------
 acrolein
 --------
 Symbolic Z-matrix:
 Charge =  0 Multiplicity = 1

                         Standard orientation:
 ---------------------------------------------------------------------
 Center     Atomic      Atomic             Coordinates (Angstroms)
 Number     Number       Type             X           Y           Z
 ---------------------------------------------------------------------
      1          6           0        0.657289    0.330796    0.020458
      2          8           0        1.793278   -0.103027   -0.020084
      3          6           0       -0.564105   -0.458576    0.003125
      4          6           0       -1.747166    0.151329   -0.019320
      5          1           0       -0.441262   -1.546256    0.074950
      6          1           0       -1.843417    1.238567   -0.006611
      7          1           0       -2.673366   -0.398231   -0.000195
      8          1           0        0.535714    1.388842    0.066952
 ---------------------------------------------------------------------

 SCF Done:  E(RB2PLYPD3) =  -191.615157055     A.U. after   12 cycles
 E2(B2PLYPD3) =    -0.2470672211D+00 E(B2PLYPD3) =    -0.19186222427646D+03

 The electronic state is 1-A.
 Alpha  occ. eigenvalues --  -19.72483 -10.70901 -10.65716 -10.64621  -1.18952
 Alpha  occ. eigenvalues --   -0.93355  -0.75852  -0.67337  -0.56861  -0.56423
 Alpha  occ. eigenvalues --   -0.50398  -0.47040  -0.46361  -0.34791  -0.33746
 Alpha virt. eigenvalues --   -0.01905   0.05712   0.07105   0.08321   0.09665
 Alpha virt. eigenvalues --    0.12628   0.14179   0.15261   0.17468   0.19741
 Alpha virt. eigenvalues --    0.20033   0.21584   0.25383   0.26557   0.28869

 Mulliken charges:
               1
     1  C    0.152757
     2  O   -0.356186
     3  C   -0.032757
     4  C   -0.127836
     5  H    0.103994
     6  H    0.086653
     7  H    0.101435
     8  H    0.071940
 Sum of Mulliken charges =   0.00000

 Dipole moment (field-independent basis, Debye):
    X=             -3.6269    Y=              0.7308    Z=              0.1546  Tot=              3.7030
 Quadrupole moment (field-independent basis, Debye-Ang):
   XX=            -27.4955   YY=            -21.6890   ZZ=            -25.1621
   XY=              0.7845   XZ=              0.0711   YZ=             -0.0936

 Normal termination of Gaussian 09 at Wed Aug 26 16:19:16 2020.
