 Gaussian 09, Revision D.01,
 Gaussian 09:  ES64L-G09RevD.01 24-Apr-2013

 --------------------
 #p B2PLYPD3/Def2QZVP
 --------------------

 --------
 acrolein
 --------
 Symbolic Z-matrix:
 Charge =  0 Multiplicity = 1

                         Standard orientation:
 ---------------------------------------------------------------------
 Center     Atomic      Atomic             Coordinates (Angstroms)
 Number     Number       Type             X           Y           Z
 ---------------------------------------------------------------------
      1          6           0       -0.670139    0.367379   -0.029884
      2          8           0       -1.776958   -0.137963    0.021890
      3          6           0        0.561603   -0.438797   -0.020954
      4          6           0        1.755876    0.145535   -0.002144
      5          1           0        0.423304   -1.505106    0.003996
      6          1           0        1.727912    1.144214    0.048006
      7          1           0        2.694359   -0.422195    0.076747
      8          1           0       -0.513954    1.442094    0.014025
 ---------------------------------------------------------------------

 SCF Done:  E(RB2PLYPD3) =  -191.609579694     A.U. after   12 cycles
 E2(B2PLYPD3) =    -0.2470710773D+00 E(B2PLYPD3) =    -0.19185665077120D+03

 The electronic state is 1-A.
 Alpha  occ. eigenvalues --  -19.72872 -10.71560 -10.64563 -10.64049  -1.19172
 Alpha  occ. eigenvalues --   -0.93430  -0.75639  -0.67816  -0.57268  -0.56169
 Alpha  occ. eigenvalues --   -0.50577  -0.47366  -0.46584  -0.34631  -0.33992
 Alpha virt. eigenvalues --   -0.01745   0.05861   0.07222   0.08008   0.09921
 Alpha virt. eigenvalues --    0.12676   0.13879   0.15345   0.17458   0.19834
 Alpha virt. eigenvalues --    0.20320   0.21678   0.25528   0.26477   0.29189

 Mulliken charges:
               1
     1  C    0.149414
     2  O   -0.353362
     3  C   -0.030344
     4  C   -0.139640
     5  H    0.105543
     6  H    0.085573
     7  H    0.105509
     8  H    0.077307
 Sum of Mulliken charges =   0.00000

 Dipole moment (field-independent basis, Debye):
    X=              3.4175    Y=              0.8453    Z=              0.0372  Tot=              3.5207
 Quadrupole moment (field-independent basis, Debye-Ang):
   XX=            -27.5024   YY=            -21.7271   ZZ=            -25.1146
   XY=             -1.1907   XZ=              0.3728   YZ=              0.0049

 Normal termination of Gaussian 09 at Wed Aug 26 08:57:31 2020.
