 Gaussian 09, Revision D.01,
 Gaussian 09:  ES64L-G09RevD.01 24-Apr-2013

 --------------------
 #p B2PLYPD3/Def2QZVP
 --------------------

 --------
 acrolein
 --------
 Symbolic Z-matrix:
 Charge =  0 Multiplicity = 1

                         Standard orientation:
 ---------------------------------------------------------------------
 Center     Atomic      Atomic             Coordinates (Angstroms)
 Number     Number       Type             X           Y           Z
 ---------------------------------------------------------------------
      1          6           0       -0.668165   -0.341938    0.043794
      2          8           0       -1.815566    0.106027   -0.059696
      3          6           0        0.611199    0.435808    0.089214
      4          6           0        1.764303   -0.162362   -0.032626
      5          1           0        0.379864    1.682692    0.000825
      6          1           0        1.819193   -1.204627   -0.110628
      7          1           0        2.589635    0.444444   -0.154922
      8          1           0       -0.508191   -1.359770    0.140008
 ---------------------------------------------------------------------

 SCF Done:  E(RB2PLYPD3) =  -191.587430263     A.U. after   13 cycles
 E2(B2PLYPD3) =    -0.2486065401D+00 E(B2PLYPD3) =    -0.19183603680340D+03

 The electronic state is 1-A.
 Alpha  occ. eigenvalues --  -19.73113 -10.71523 -10.66012 -10.64427  -1.18042
 Alpha  occ. eigenvalues --   -0.93790  -0.76495  -0.66307  -0.57269  -0.56485
 Alpha  occ. eigenvalues --   -0.50725  -0.45913  -0.44871  -0.35375  -0.33919
 Alpha virt. eigenvalues --   -0.01861   0.05830   0.06325   0.07887   0.09620
 Alpha virt. eigenvalues --    0.12766   0.13596   0.15285   0.16649   0.19347
 Alpha virt. eigenvalues --    0.20117   0.22120   0.24808   0.26739   0.28329

 Mulliken charges:
               1
     1  C    0.167077
     2  O   -0.361468
     3  C   -0.043139
     4  C   -0.124260
     5  H    0.084616
     6  H    0.088118
     7  H    0.110779
     8  H    0.078277
 Sum of Mulliken charges =   0.00000

 Dipole moment (field-independent basis, Debye):
    X=              3.5568    Y=             -0.8783    Z=              0.0043  Tot=              3.6636
 Quadrupole moment (field-independent basis, Debye-Ang):
   XX=            -27.9575   YY=            -21.6690   ZZ=            -25.2081
   XY=              0.6927   XZ=             -0.8745   YZ=             -0.0778

 Normal termination of Gaussian 09 at Wed Aug 26 14:06:19 2020.
