 Gaussian 09, Revision D.01,
 Gaussian 09:  ES64L-G09RevD.01 24-Apr-2013

 --------------------
 #p B2PLYPD3/Def2QZVP
 --------------------

 --------
 acrolein
 --------
 Symbolic Z-matrix:
 Charge =  0 Multiplicity = 1

                         Standard orientation:
 ---------------------------------------------------------------------
 Center     Atomic      Atomic             Coordinates (Angstroms)
 Number     Number       Type             X           Y           Z
 ---------------------------------------------------------------------
      1          6           0       -0.662089    0.343076   -0.046429
      2          8           0       -1.804245   -0.106635    0.038193
      3          6           0        0.587976   -0.475980   -0.049723
      4          6           0        1.748114    0.151044    0.009079
      5          1           0        0.479201   -1.483292    0.029537
      6          1           0        1.909223    1.271189    0.055218
      7          1           0        2.552565   -0.409382    0.128964
      8          1           0       -0.551038    1.365729    0.003177
 ---------------------------------------------------------------------

 SCF Done:  E(RB2PLYPD3) =  -191.598401890     A.U. after   12 cycles
 E2(B2PLYPD3) =    -0.2468522393D+00 E(B2PLYPD3) =    -0.19184525412972D+03

 The electronic state is 1-A.
 Alpha  occ. eigenvalues --  -19.72546 -10.70959 -10.64710 -10.63941  -1.18124
 Alpha  occ. eigenvalues --   -0.93632  -0.76164  -0.68634  -0.57460  -0.56465
 Alpha  occ. eigenvalues --   -0.50649  -0.47664  -0.45837  -0.34911  -0.33693
 Alpha virt. eigenvalues --   -0.01613   0.05724   0.07478   0.07786   0.09613
 Alpha virt. eigenvalues --    0.12738   0.14116   0.15309   0.17931   0.19425
 Alpha virt. eigenvalues --    0.19979   0.22166   0.24933   0.26913   0.28394

 Mulliken charges:
               1
     1  C    0.155648
     2  O   -0.363881
     3  C   -0.056440
     4  C   -0.120922
     5  H    0.113110
     6  H    0.086425
     7  H    0.097912
     8  H    0.088147
 Sum of Mulliken charges =   0.00000

 Dipole moment (field-independent basis, Debye):
    X=              3.6072    Y=              0.7839    Z=              0.0496  Tot=              3.6917
 Quadrupole moment (field-independent basis, Debye-Ang):
   XX=            -27.8528   YY=            -21.3935   ZZ=            -25.0213
   XY=             -0.8072   XZ=              0.6092   YZ=             -0.0658

 Normal termination of Gaussian 09 at Wed Aug 26 08:35:57 2020.
