 Gaussian 09, Revision D.01,
 Gaussian 09:  ES64L-G09RevD.01 24-Apr-2013

 --------------------
 #p B2PLYPD3/Def2QZVP
 --------------------

 --------
 acrolein
 --------
 Symbolic Z-matrix:
 Charge =  0 Multiplicity = 1

                         Standard orientation:
 ---------------------------------------------------------------------
 Center     Atomic      Atomic             Coordinates (Angstroms)
 Number     Number       Type             X           Y           Z
 ---------------------------------------------------------------------
      1          6           0       -0.692680    0.358137    0.045013
      2          8           0       -1.780293   -0.132296   -0.036218
      3          6           0        0.540070   -0.438570    0.041370
      4          6           0        1.764554    0.117816   -0.032434
      5          1           0        0.483169   -1.481335    0.028428
      6          1           0        1.865701    1.254688    0.028157
      7          1           0        2.691562   -0.426666   -0.072192
      8          1           0       -0.469748    1.487387   -0.018344
 ---------------------------------------------------------------------

 SCF Done:  E(RB2PLYPD3) =  -191.609913765     A.U. after   13 cycles
 E2(B2PLYPD3) =    -0.2474646046D+00 E(B2PLYPD3) =    -0.19185737836965D+03

 The electronic state is 1-A.
 Alpha  occ. eigenvalues --  -19.73185 -10.72107 -10.66059 -10.64020  -1.20725
 Alpha  occ. eigenvalues --   -0.92500  -0.75155  -0.66640  -0.56799  -0.55884
 Alpha  occ. eigenvalues --   -0.51024  -0.47495  -0.46175  -0.34460  -0.33931
 Alpha virt. eigenvalues --   -0.01810   0.05680   0.07270   0.08150   0.09702
 Alpha virt. eigenvalues --    0.12355   0.13987   0.15431   0.17827   0.19486
 Alpha virt. eigenvalues --    0.19926   0.21304   0.25200   0.26499   0.28651

 Mulliken charges:
               1
     1  C    0.162060
     2  O   -0.332811
     3  C   -0.041849
     4  C   -0.129264
     5  H    0.105928
     6  H    0.070442
     7  H    0.104211
     8  H    0.061284
 Sum of Mulliken charges =   0.00000

 Dipole moment (field-independent basis, Debye):
    X=              3.3658    Y=              0.6933    Z=              0.1060  Tot=              3.4381
 Quadrupole moment (field-independent basis, Debye-Ang):
   XX=            -27.0741   YY=            -22.0124   ZZ=            -25.2867
   XY=             -1.0484   XZ=             -0.2999   YZ=              0.0520

 Normal termination of Gaussian 09 at Wed Aug 26 09:14:30 2020.
