 Gaussian 09, Revision D.01,
 Gaussian 09:  ES64L-G09RevD.01 24-Apr-2013

 --------------------
 #p B2PLYPD3/Def2QZVP
 --------------------

 --------
 acrolein
 --------
 Symbolic Z-matrix:
 Charge =  0 Multiplicity = 1

                         Standard orientation:
 ---------------------------------------------------------------------
 Center     Atomic      Atomic             Coordinates (Angstroms)
 Number     Number       Type             X           Y           Z
 ---------------------------------------------------------------------
      1          6           0       -0.689677    0.359048    0.036127
      2          8           0       -1.780263   -0.148120   -0.044058
      3          6           0        0.548203   -0.400324    0.049067
      4          6           0        1.775891    0.126605   -0.052796
      5          1           0        0.428521   -1.389080    0.134046
      6          1           0        1.708532    1.023384    0.131286
      7          1           0        2.764142   -0.410459   -0.126481
      8          1           0       -0.465590    1.449140    0.019223
 ---------------------------------------------------------------------

 SCF Done:  E(RB2PLYPD3) =  -191.573993765     A.U. after   14 cycles
 E2(B2PLYPD3) =    -0.2469707842D+00 E(B2PLYPD3) =    -0.19182096454934D+03

 The electronic state is 1-A.
 Alpha  occ. eigenvalues --  -19.73271 -10.71749 -10.64148 -10.63097  -1.20183
 Alpha  occ. eigenvalues --   -0.94226  -0.76872  -0.68624  -0.57355  -0.56498
 Alpha  occ. eigenvalues --   -0.51513  -0.48273  -0.46647  -0.34420  -0.34029
 Alpha virt. eigenvalues --   -0.02238   0.05865   0.07539   0.08304   0.09947
 Alpha virt. eigenvalues --    0.12557   0.13815   0.15268   0.17733   0.19666
 Alpha virt. eigenvalues --    0.20627   0.22081   0.24840   0.26503   0.29048

 Mulliken charges:
               1
     1  C    0.146513
     2  O   -0.341791
     3  C   -0.010018
     4  C   -0.165832
     5  H    0.100668
     6  H    0.097321
     7  H    0.110660
     8  H    0.062479
 Sum of Mulliken charges =   0.00000

 Dipole moment (field-independent basis, Debye):
    X=              3.4248    Y=              0.7758    Z=              0.2606  Tot=              3.5212
 Quadrupole moment (field-independent basis, Debye-Ang):
   XX=            -26.7894   YY=            -22.3465   ZZ=            -24.8904
   XY=             -1.2653   XZ=             -0.2806   YZ=              0.0968

 Normal termination of Gaussian 09 at Wed Aug 26 14:43:18 2020.
