 Gaussian 09, Revision D.01,
 Gaussian 09:  ES64L-G09RevD.01 24-Apr-2013

 --------------------
 #p B2PLYPD3/Def2QZVP
 --------------------

 --------
 acrolein
 --------
 Symbolic Z-matrix:
 Charge =  0 Multiplicity = 1

                         Standard orientation:
 ---------------------------------------------------------------------
 Center     Atomic      Atomic             Coordinates (Angstroms)
 Number     Number       Type             X           Y           Z
 ---------------------------------------------------------------------
      1          6           0        0.668124    0.347657    0.008449
      2          8           0        1.795343   -0.116062   -0.006749
      3          6           0       -0.578670   -0.463024   -0.009798
      4          6           0       -1.751646    0.152874    0.003984
      5          1           0       -0.462636   -1.552613    0.040409
      6          1           0       -1.842945    1.230807   -0.035293
      7          1           0       -2.615445   -0.405963   -0.002222
      8          1           0        0.531435    1.431230    0.035291
 ---------------------------------------------------------------------

 SCF Done:  E(RB2PLYPD3) =  -191.614359527     A.U. after   12 cycles
 E2(B2PLYPD3) =    -0.2470580854D+00 E(B2PLYPD3) =    -0.19186141761195D+03

 The electronic state is 1-A.
 Alpha  occ. eigenvalues --  -19.72758 -10.71598 -10.64747 -10.64588  -1.18935
 Alpha  occ. eigenvalues --   -0.93188  -0.75597  -0.67047  -0.56883  -0.56448
 Alpha  occ. eigenvalues --   -0.50516  -0.47272  -0.46348  -0.34830  -0.33759
 Alpha virt. eigenvalues --   -0.01579   0.05839   0.07147   0.07959   0.09715
 Alpha virt. eigenvalues --    0.12696   0.14093   0.15290   0.17342   0.19811
 Alpha virt. eigenvalues --    0.20019   0.21940   0.25320   0.26503   0.28618

 Mulliken charges:
               1
     1  C    0.154968
     2  O   -0.352539
     3  C   -0.042652
     4  C   -0.129380
     5  H    0.104144
     6  H    0.086924
     7  H    0.102387
     8  H    0.076148
 Sum of Mulliken charges =   0.00000

 Dipole moment (field-independent basis, Debye):
    X=             -3.5148    Y=              0.7675    Z=              0.0424  Tot=              3.5979
 Quadrupole moment (field-independent basis, Debye-Ang):
   XX=            -27.6638   YY=            -21.5488   ZZ=            -25.1761
   XY=              0.8932   XZ=              0.0725   YZ=             -0.0961

 Normal termination of Gaussian 09 at Wed Aug 26 19:12:21 2020.
