 Gaussian 09, Revision D.01,
 Gaussian 09:  ES64L-G09RevD.01 24-Apr-2013

 --------------------
 #p B2PLYPD3/Def2QZVP
 --------------------

 --------
 acrolein
 --------
 Symbolic Z-matrix:
 Charge =  0 Multiplicity = 1

                         Standard orientation:
 ---------------------------------------------------------------------
 Center     Atomic      Atomic             Coordinates (Angstroms)
 Number     Number       Type             X           Y           Z
 ---------------------------------------------------------------------
      1          6           0        0.652674    0.332431    0.080737
      2          8           0        1.811261   -0.093603   -0.047270
      3          6           0       -0.592335   -0.519541   -0.005464
      4          6           0       -1.726340    0.169881   -0.043203
      5          1           0       -0.501255   -1.613540    0.045525
      6          1           0       -1.844532    1.407301   -0.160922
      7          1           0       -2.635406   -0.396836    0.166157
      8          1           0        0.487110    1.455271    0.134977
 ---------------------------------------------------------------------

 SCF Done:  E(RB2PLYPD3) =  -191.589080741     A.U. after   13 cycles
 E2(B2PLYPD3) =    -0.2505904312D+00 E(B2PLYPD3) =    -0.19183967117235D+03

 The electronic state is 1-A.
 Alpha  occ. eigenvalues --  -19.72875 -10.72521 -10.67033 -10.65371  -1.17616
 Alpha  occ. eigenvalues --   -0.92809  -0.73841  -0.65922  -0.55920  -0.54619
 Alpha  occ. eigenvalues --   -0.50006  -0.46183  -0.45215  -0.34773  -0.33476
 Alpha virt. eigenvalues --   -0.01841   0.04995   0.06597   0.07134   0.09469
 Alpha virt. eigenvalues --    0.11945   0.14012   0.15277   0.16966   0.18568
 Alpha virt. eigenvalues --    0.20011   0.21513   0.24484   0.26432   0.28614

 Mulliken charges:
               1
     1  C    0.162732
     2  O   -0.357050
     3  C   -0.054370
     4  C   -0.117765
     5  H    0.111118
     6  H    0.085343
     7  H    0.096132
     8  H    0.073859
 Sum of Mulliken charges =   0.00000

 Dipole moment (field-independent basis, Debye):
    X=             -3.5847    Y=              0.6464    Z=              0.3055  Tot=              3.6553
 Quadrupole moment (field-independent basis, Debye-Ang):
   XX=            -28.4258   YY=            -21.2076   ZZ=            -25.5104
   XY=              0.6814   XZ=              0.0231   YZ=             -0.3305

 Normal termination of Gaussian 09 at Wed Aug 26 14:02:55 2020.
