 Gaussian 09, Revision D.01,
 Gaussian 09:  ES64L-G09RevD.01 24-Apr-2013

 --------------------
 #p B2PLYPD3/Def2QZVP
 --------------------

 --------
 acrolein
 --------
 Symbolic Z-matrix:
 Charge =  0 Multiplicity = 1

                         Standard orientation:
 ---------------------------------------------------------------------
 Center     Atomic      Atomic             Coordinates (Angstroms)
 Number     Number       Type             X           Y           Z
 ---------------------------------------------------------------------
      1          6           0        0.678339    0.344321   -0.015403
      2          8           0        1.791950   -0.113246    0.008258
      3          6           0       -0.572956   -0.467287   -0.011255
      4          6           0       -1.759067    0.155137    0.009400
      5          1           0       -0.458800   -1.551913    0.004378
      6          1           0       -1.846507    1.228934   -0.030396
      7          1           0       -2.634857   -0.400013    0.026171
      8          1           0        0.526664    1.435943    0.037337
 ---------------------------------------------------------------------

 SCF Done:  E(RB2PLYPD3) =  -191.615540885     A.U. after   12 cycles
 E2(B2PLYPD3) =    -0.2467324040D+00 E(B2PLYPD3) =    -0.19186227328919D+03

 The electronic state is 1-A.
 Alpha  occ. eigenvalues --  -19.72804 -10.71559 -10.64943 -10.64704  -1.19872
 Alpha  occ. eigenvalues --   -0.92694  -0.75400  -0.66953  -0.56721  -0.56448
 Alpha  occ. eigenvalues --   -0.50692  -0.47439  -0.46824  -0.34586  -0.33684
 Alpha virt. eigenvalues --   -0.01533   0.05867   0.07218   0.08030   0.09716
 Alpha virt. eigenvalues --    0.12696   0.14119   0.15373   0.17381   0.19773
 Alpha virt. eigenvalues --    0.20067   0.21825   0.25246   0.26523   0.28559

 Mulliken charges:
               1
     1  C    0.156737
     2  O   -0.343366
     3  C   -0.046155
     4  C   -0.132888
     5  H    0.104526
     6  H    0.087754
     7  H    0.102771
     8  H    0.070621
 Sum of Mulliken charges =   0.00000

 Dipole moment (field-independent basis, Debye):
    X=             -3.4312    Y=              0.7335    Z=             -0.0223  Tot=              3.5088
 Quadrupole moment (field-independent basis, Debye-Ang):
   XX=            -27.4961   YY=            -21.6310   ZZ=            -25.2137
   XY=              0.8414   XZ=             -0.0516   YZ=             -0.0492

 Normal termination of Gaussian 09 at Wed Aug 26 09:25:31 2020.
