 Gaussian 09, Revision D.01,
 Gaussian 09:  ES64L-G09RevD.01 24-Apr-2013

 --------------------
 #p B2PLYPD3/Def2QZVP
 --------------------

 --------
 acrolein
 --------
 Symbolic Z-matrix:
 Charge =  0 Multiplicity = 1

                         Standard orientation:
 ---------------------------------------------------------------------
 Center     Atomic      Atomic             Coordinates (Angstroms)
 Number     Number       Type             X           Y           Z
 ---------------------------------------------------------------------
      1          6           0       -0.654723    0.313424   -0.055631
      2          8           0       -1.805207   -0.101676    0.067254
      3          6           0        0.588830   -0.447575   -0.048019
      4          6           0        1.735123    0.173517    0.023406
      5          1           0        0.526387   -1.514561   -0.193474
      6          1           0        1.824008    1.282717    0.004610
      7          1           0        2.652236   -0.476504    0.262771
      8          1           0       -0.576353    1.285560   -0.130472
 ---------------------------------------------------------------------

 SCF Done:  E(RB2PLYPD3) =  -191.594793692     A.U. after   14 cycles
 E2(B2PLYPD3) =    -0.2472720848D+00 E(B2PLYPD3) =    -0.19184206577657D+03

 The electronic state is 1-A.
 Alpha  occ. eigenvalues --  -19.72365 -10.70109 -10.66259 -10.64164  -1.18163
 Alpha  occ. eigenvalues --   -0.94104  -0.75955  -0.68328  -0.57587  -0.55589
 Alpha  occ. eigenvalues --   -0.50194  -0.47248  -0.45453  -0.35148  -0.33628
 Alpha virt. eigenvalues --   -0.01801   0.05458   0.06886   0.08198   0.09555
 Alpha virt. eigenvalues --    0.12481   0.13684   0.15116   0.17931   0.19281
 Alpha virt. eigenvalues --    0.19812   0.21664   0.25208   0.26939   0.28863

 Mulliken charges:
               1
     1  C    0.149415
     2  O   -0.364074
     3  C   -0.024684
     4  C   -0.126487
     5  H    0.102103
     6  H    0.088866
     7  H    0.096057
     8  H    0.078803
 Sum of Mulliken charges =   0.00000

 Dipole moment (field-independent basis, Debye):
    X=              3.6558    Y=              0.7623    Z=             -0.2252  Tot=              3.7412
 Quadrupole moment (field-independent basis, Debye-Ang):
   XX=            -28.1166   YY=            -21.5489   ZZ=            -24.9889
   XY=             -1.0102   XZ=              0.8638   YZ=              0.0561

 Normal termination of Gaussian 09 at Wed Aug 26 10:51:15 2020.
