 Gaussian 09, Revision D.01,
 Gaussian 09:  ES64L-G09RevD.01 24-Apr-2013

 --------------------
 #p B2PLYPD3/Def2QZVP
 --------------------

 --------
 acrolein
 --------
 Symbolic Z-matrix:
 Charge =  0 Multiplicity = 1

                         Standard orientation:
 ---------------------------------------------------------------------
 Center     Atomic      Atomic             Coordinates (Angstroms)
 Number     Number       Type             X           Y           Z
 ---------------------------------------------------------------------
      1          6           0       -0.668271    0.358532   -0.018591
      2          8           0       -1.784948   -0.131029    0.015558
      3          6           0        0.560763   -0.444409   -0.028115
      4          6           0        1.742292    0.145213    0.003863
      5          1           0        0.459113   -1.523668    0.026448
      6          1           0        1.807116    1.181774    0.005289
      7          1           0        2.716393   -0.422253    0.071789
      8          1           0       -0.511742    1.456365    0.029066
 ---------------------------------------------------------------------

 SCF Done:  E(RB2PLYPD3) =  -191.613440481     A.U. after   12 cycles
 E2(B2PLYPD3) =    -0.2473990975D+00 E(B2PLYPD3) =    -0.19186083957823D+03

 The electronic state is 1-A.
 Alpha  occ. eigenvalues --  -19.72855 -10.71803 -10.65245 -10.64238  -1.19018
 Alpha  occ. eigenvalues --   -0.93385  -0.75261  -0.67271  -0.56878  -0.56026
 Alpha  occ. eigenvalues --   -0.50350  -0.46806  -0.46520  -0.34852  -0.33935
 Alpha virt. eigenvalues --   -0.01691   0.05707   0.07047   0.08053   0.09770
 Alpha virt. eigenvalues --    0.12536   0.14009   0.15312   0.17452   0.19870
 Alpha virt. eigenvalues --    0.20144   0.21418   0.25430   0.26470   0.28877

 Mulliken charges:
               1
     1  C    0.150677
     2  O   -0.352537
     3  C   -0.033329
     4  C   -0.129959
     5  H    0.107148
     6  H    0.085604
     7  H    0.097470
     8  H    0.074927
 Sum of Mulliken charges =   0.00000

 Dipole moment (field-independent basis, Debye):
    X=              3.4966    Y=              0.8200    Z=              0.0449  Tot=              3.5918
 Quadrupole moment (field-independent basis, Debye-Ang):
   XX=            -27.4967   YY=            -21.7307   ZZ=            -25.1891
   XY=             -1.0003   XZ=              0.2735   YZ=             -0.0711

 Normal termination of Gaussian 09 at Wed Aug 26 16:25:00 2020.
