 Gaussian 09, Revision D.01,
 Gaussian 09:  ES64L-G09RevD.01 24-Apr-2013

 --------------------
 #p B2PLYPD3/Def2QZVP
 --------------------

 --------
 acrolein
 --------
 Symbolic Z-matrix:
 Charge =  0 Multiplicity = 1

                         Standard orientation:
 ---------------------------------------------------------------------
 Center     Atomic      Atomic             Coordinates (Angstroms)
 Number     Number       Type             X           Y           Z
 ---------------------------------------------------------------------
      1          6           0       -0.665843    0.363047   -0.054945
      2          8           0       -1.783377   -0.142256    0.042630
      3          6           0        0.555404   -0.437368   -0.025603
      4          6           0        1.746978    0.138192    0.011388
      5          1           0        0.460492   -1.531326   -0.033698
      6          1           0        1.751033    1.179609    0.133756
      7          1           0        2.709249   -0.442193    0.038836
      8          1           0       -0.472997    1.548734   -0.064981
 ---------------------------------------------------------------------

 SCF Done:  E(RB2PLYPD3) =  -191.605642198     A.U. after   13 cycles
 E2(B2PLYPD3) =    -0.2492185815D+00 E(B2PLYPD3) =    -0.19185486077983D+03

 The electronic state is 1-A.
 Alpha  occ. eigenvalues --  -19.73247 -10.72927 -10.65408 -10.64442  -1.18656
 Alpha  occ. eigenvalues --   -0.93481  -0.75098  -0.66132  -0.56307  -0.55809
 Alpha  occ. eigenvalues --   -0.50072  -0.46684  -0.46447  -0.34823  -0.33987
 Alpha virt. eigenvalues --   -0.02064   0.05662   0.06646   0.07920   0.09862
 Alpha virt. eigenvalues --    0.12419   0.13589   0.15283   0.17065   0.19729
 Alpha virt. eigenvalues --    0.20279   0.21331   0.25367   0.26124   0.29056

 Mulliken charges:
               1
     1  C    0.159286
     2  O   -0.350743
     3  C   -0.028084
     4  C   -0.126671
     5  H    0.103123
     6  H    0.083431
     7  H    0.103712
     8  H    0.055946
 Sum of Mulliken charges =   0.00000

 Dipole moment (field-independent basis, Debye):
    X=              3.5152    Y=              0.7274    Z=             -0.0561  Tot=              3.5901
 Quadrupole moment (field-independent basis, Debye-Ang):
   XX=            -27.5043   YY=            -21.8731   ZZ=            -25.3185
   XY=             -1.1616   XZ=              0.4670   YZ=              0.1490

 Normal termination of Gaussian 09 at Wed Aug 26 09:31:53 2020.
