 Gaussian 09, Revision D.01,
 Gaussian 09:  ES64L-G09RevD.01 24-Apr-2013

 --------------------
 #p B2PLYPD3/Def2QZVP
 --------------------

 --------
 acrolein
 --------
 Symbolic Z-matrix:
 Charge =  0 Multiplicity = 1

                         Standard orientation:
 ---------------------------------------------------------------------
 Center     Atomic      Atomic             Coordinates (Angstroms)
 Number     Number       Type             X           Y           Z
 ---------------------------------------------------------------------
      1          6           0        0.663934    0.358522    0.036879
      2          8           0        1.794566   -0.132270   -0.036353
      3          6           0       -0.565870   -0.450484    0.033335
      4          6           0       -1.733939    0.137764   -0.046091
      5          1           0       -0.503260   -1.507251    0.033251
      6          1           0       -1.786395    1.216732   -0.087671
      7          1           0       -2.668527   -0.434883    0.069622
      8          1           0        0.416905    1.508750    0.130881
 ---------------------------------------------------------------------

 SCF Done:  E(RB2PLYPD3) =  -191.608079821     A.U. after   13 cycles
 E2(B2PLYPD3) =    -0.2488860352D+00 E(B2PLYPD3) =    -0.19185696585644D+03

 The electronic state is 1-A.
 Alpha  occ. eigenvalues --  -19.73332 -10.72914 -10.65231 -10.63888  -1.18360
 Alpha  occ. eigenvalues --   -0.93798  -0.75028  -0.66762  -0.56441  -0.55676
 Alpha  occ. eigenvalues --   -0.50323  -0.46945  -0.46217  -0.35069  -0.34003
 Alpha virt. eigenvalues --   -0.01911   0.05674   0.06830   0.07887   0.09825
 Alpha virt. eigenvalues --    0.12590   0.13563   0.15290   0.17424   0.19325
 Alpha virt. eigenvalues --    0.20106   0.21511   0.25361   0.26499   0.28701

 Mulliken charges:
               1
     1  C    0.156015
     2  O   -0.352689
     3  C   -0.028845
     4  C   -0.120581
     5  H    0.105843
     6  H    0.078624
     7  H    0.098610
     8  H    0.063023
 Sum of Mulliken charges =   0.00000

 Dipole moment (field-independent basis, Debye):
    X=             -3.5509    Y=              0.7159    Z=              0.1824  Tot=              3.6270
 Quadrupole moment (field-independent basis, Debye-Ang):
   XX=            -27.7205   YY=            -21.7957   ZZ=            -25.2363
   XY=              0.9880   XZ=              0.0959   YZ=             -0.1076

 Normal termination of Gaussian 09 at Wed Aug 26 08:46:54 2020.
