 Gaussian 09, Revision D.01,
 Gaussian 09:  ES64L-G09RevD.01 24-Apr-2013

 --------------------
 #p B2PLYPD3/Def2QZVP
 --------------------

 --------
 acrolein
 --------
 Symbolic Z-matrix:
 Charge =  0 Multiplicity = 1

                         Standard orientation:
 ---------------------------------------------------------------------
 Center     Atomic      Atomic             Coordinates (Angstroms)
 Number     Number       Type             X           Y           Z
 ---------------------------------------------------------------------
      1          6           0        0.662845    0.332139    0.024201
      2          8           0        1.817697   -0.101711   -0.023243
      3          6           0       -0.582048   -0.493227    0.042443
      4          6           0       -1.733661    0.138740   -0.043045
      5          1           0       -0.575380   -1.438606    0.075277
      6          1           0       -1.929214    1.402197    0.171777
      7          1           0       -2.584294   -0.426080   -0.134830
      8          1           0        0.464491    1.410272   -0.067877
 ---------------------------------------------------------------------

 SCF Done:  E(RB2PLYPD3) =  -191.571091593     A.U. after   13 cycles
 E2(B2PLYPD3) =    -0.2488008336D+00 E(B2PLYPD3) =    -0.19181989242655D+03

 The electronic state is 1-A.
 Alpha  occ. eigenvalues --  -19.72895 -10.72070 -10.66549 -10.63358  -1.18014
 Alpha  occ. eigenvalues --   -0.94019  -0.75148  -0.68287  -0.57361  -0.55341
 Alpha  occ. eigenvalues --   -0.50504  -0.46502  -0.45473  -0.34986  -0.33843
 Alpha virt. eigenvalues --   -0.01770   0.04834   0.07099   0.07597   0.09357
 Alpha virt. eigenvalues --    0.12195   0.13973   0.15216   0.18115   0.18717
 Alpha virt. eigenvalues --    0.20117   0.21383   0.24072   0.26849   0.28200

 Mulliken charges:
               1
     1  C    0.165117
     2  O   -0.358174
     3  C   -0.064929
     4  C   -0.110588
     5  H    0.112678
     6  H    0.077673
     7  H    0.095735
     8  H    0.082489
 Sum of Mulliken charges =   0.00000

 Dipole moment (field-independent basis, Debye):
    X=             -3.6662    Y=              0.6102    Z=              0.1437  Tot=              3.7194
 Quadrupole moment (field-independent basis, Debye-Ang):
   XX=            -27.9619   YY=            -21.5476   ZZ=            -25.1734
   XY=              0.9363   XZ=              0.0966   YZ=              0.1957

 Normal termination of Gaussian 09 at Wed Aug 26 13:52:36 2020.
