 Gaussian 09, Revision D.01,
 Gaussian 09:  ES64L-G09RevD.01 24-Apr-2013

 --------------------
 #p B2PLYPD3/Def2QZVP
 --------------------

 --------
 acrolein
 --------
 Symbolic Z-matrix:
 Charge =  0 Multiplicity = 1

                         Standard orientation:
 ---------------------------------------------------------------------
 Center     Atomic      Atomic             Coordinates (Angstroms)
 Number     Number       Type             X           Y           Z
 ---------------------------------------------------------------------
      1          6           0        0.661633    0.355523   -0.000316
      2          8           0        1.786435   -0.114609   -0.017528
      3          6           0       -0.564971   -0.459954    0.003761
      4          6           0       -1.746379    0.142475   -0.010480
      5          1           0       -0.410229   -1.568415    0.076583
      6          1           0       -1.800963    1.274279   -0.082923
      7          1           0       -2.689560   -0.410683    0.018471
      8          1           0        0.507570    1.393428    0.170306
 ---------------------------------------------------------------------

 SCF Done:  E(RB2PLYPD3) =  -191.611160780     A.U. after   12 cycles
 E2(B2PLYPD3) =    -0.2477586223D+00 E(B2PLYPD3) =    -0.19185891940263D+03

 The electronic state is 1-A.
 Alpha  occ. eigenvalues --  -19.72725 -10.71220 -10.66019 -10.64733  -1.18953
 Alpha  occ. eigenvalues --   -0.92985  -0.75242  -0.66933  -0.56319  -0.55992
 Alpha  occ. eigenvalues --   -0.50603  -0.46489  -0.45954  -0.34803  -0.33872
 Alpha virt. eigenvalues --   -0.01676   0.05634   0.06931   0.07854   0.09689
 Alpha virt. eigenvalues --    0.12474   0.14043   0.15252   0.17343   0.19140
 Alpha virt. eigenvalues --    0.20179   0.21448   0.25129   0.27060   0.28940

 Mulliken charges:
               1
     1  C    0.161737
     2  O   -0.355473
     3  C   -0.047657
     4  C   -0.127280
     5  H    0.105731
     6  H    0.079140
     7  H    0.104262
     8  H    0.079540
 Sum of Mulliken charges =   0.00000

 Dipole moment (field-independent basis, Debye):
    X=             -3.4909    Y=              0.7814    Z=              0.1199  Tot=              3.5793
 Quadrupole moment (field-independent basis, Debye-Ang):
   XX=            -27.6820   YY=            -21.6241   ZZ=            -25.2596
   XY=              0.9076   XZ=              0.1490   YZ=             -0.1545

 Normal termination of Gaussian 09 at Wed Aug 26 08:42:04 2020.
