 Gaussian 09, Revision D.01,
 Gaussian 09:  ES64L-G09RevD.01 24-Apr-2013

 --------------------
 #p B2PLYPD3/Def2QZVP
 --------------------

 --------
 acrolein
 --------
 Symbolic Z-matrix:
 Charge =  0 Multiplicity = 1

                         Standard orientation:
 ---------------------------------------------------------------------
 Center     Atomic      Atomic             Coordinates (Angstroms)
 Number     Number       Type             X           Y           Z
 ---------------------------------------------------------------------
      1          6           0        0.686725    0.363546   -0.032677
      2          8           0        1.767868   -0.143209    0.024574
      3          6           0       -0.552297   -0.429117   -0.033345
      4          6           0       -1.748283    0.148299    0.001055
      5          1           0       -0.438747   -1.508925    0.021857
      6          1           0       -1.752723    1.125603    0.022053
      7          1           0       -2.760731   -0.449862    0.103779
      8          1           0        0.492387    1.482489    0.045520
 ---------------------------------------------------------------------

 SCF Done:  E(RB2PLYPD3) =  -191.600048274     A.U. after   12 cycles
 E2(B2PLYPD3) =    -0.2468382935D+00 E(B2PLYPD3) =    -0.19184688656766D+03

 The electronic state is 1-A.
 Alpha  occ. eigenvalues --  -19.73117 -10.71911 -10.64966 -10.64028  -1.20731
 Alpha  occ. eigenvalues --   -0.93212  -0.75104  -0.67176  -0.57104  -0.55816
 Alpha  occ. eigenvalues --   -0.50431  -0.47527  -0.46775  -0.34720  -0.33882
 Alpha virt. eigenvalues --   -0.01470   0.05701   0.06975   0.08232   0.09902
 Alpha virt. eigenvalues --    0.12447   0.13794   0.15382   0.17443   0.19744
 Alpha virt. eigenvalues --    0.20345   0.21495   0.25468   0.26407   0.28883

 Mulliken charges:
               1
     1  C    0.150946
     2  O   -0.335817
     3  C   -0.028587
     4  C   -0.142309
     5  H    0.103615
     6  H    0.089765
     7  H    0.100461
     8  H    0.061926
 Sum of Mulliken charges =   0.00000

 Dipole moment (field-independent basis, Debye):
    X=             -3.2687    Y=              0.7974    Z=              0.0523  Tot=              3.3650
 Quadrupole moment (field-independent basis, Debye-Ang):
   XX=            -27.2322   YY=            -21.9518   ZZ=            -25.1736
   XY=              1.1099   XZ=             -0.4241   YZ=             -0.0615

 Normal termination of Gaussian 09 at Wed Aug 26 10:01:52 2020.
