 Gaussian 09, Revision D.01,
 Gaussian 09:  ES64L-G09RevD.01 24-Apr-2013

 --------------------
 #p B2PLYPD3/Def2QZVP
 --------------------

 --------
 acrolein
 --------
 Symbolic Z-matrix:
 Charge =  0 Multiplicity = 1

                         Standard orientation:
 ---------------------------------------------------------------------
 Center     Atomic      Atomic             Coordinates (Angstroms)
 Number     Number       Type             X           Y           Z
 ---------------------------------------------------------------------
      1          6           0       -0.680824    0.358844    0.023206
      2          8           0       -1.764766   -0.134762   -0.023211
      3          6           0        0.550092   -0.442403    0.041753
      4          6           0        1.753525    0.150601   -0.029561
      5          1           0        0.439192   -1.506692   -0.034761
      6          1           0        1.755442    1.146665   -0.023423
      7          1           0        2.758110   -0.396563    0.004407
      8          1           0       -0.571376    1.432434    0.027076
 ---------------------------------------------------------------------

 SCF Done:  E(RB2PLYPD3) =  -191.607221604     A.U. after   12 cycles
 E2(B2PLYPD3) =    -0.2460612508D+00 E(B2PLYPD3) =    -0.19185328285508D+03

 The electronic state is 1-A.
 Alpha  occ. eigenvalues --  -19.72598 -10.71016 -10.65080 -10.64154  -1.20670
 Alpha  occ. eigenvalues --   -0.92854  -0.75256  -0.67920  -0.57532  -0.55902
 Alpha  occ. eigenvalues --   -0.50510  -0.47491  -0.47094  -0.34457  -0.33770
 Alpha virt. eigenvalues --   -0.01515   0.05812   0.07316   0.08239   0.09830
 Alpha virt. eigenvalues --    0.12495   0.14039   0.15391   0.17670   0.19788
 Alpha virt. eigenvalues --    0.20280   0.21399   0.25398   0.26328   0.29296

 Mulliken charges:
               1
     1  C    0.145286
     2  O   -0.339490
     3  C   -0.039788
     4  C   -0.135498
     5  H    0.108196
     6  H    0.085886
     7  H    0.099854
     8  H    0.075553
 Sum of Mulliken charges =   0.00000

 Dipole moment (field-independent basis, Debye):
    X=              3.3113    Y=              0.8483    Z=              0.0375  Tot=              3.4184
 Quadrupole moment (field-independent basis, Debye-Ang):
   XX=            -27.1440   YY=            -21.8068   ZZ=            -25.1383
   XY=             -1.1453   XZ=             -0.1585   YZ=              0.0533

 Normal termination of Gaussian 09 at Wed Aug 26 09:13:10 2020.
