 Gaussian 09, Revision D.01,
 Gaussian 09:  ES64L-G09RevD.01 24-Apr-2013

 --------------------
 #p B2PLYPD3/Def2QZVP
 --------------------

 --------
 acrolein
 --------
 Symbolic Z-matrix:
 Charge =  0 Multiplicity = 1

                         Standard orientation:
 ---------------------------------------------------------------------
 Center     Atomic      Atomic             Coordinates (Angstroms)
 Number     Number       Type             X           Y           Z
 ---------------------------------------------------------------------
      1          6           0        0.679866    0.370418    0.019152
      2          8           0        1.789096   -0.139819   -0.030874
      3          6           0       -0.571181   -0.446129    0.027453
      4          6           0       -1.756855    0.141602   -0.016237
      5          1           0       -0.482252   -1.489810    0.069152
      6          1           0       -1.801626    1.177846   -0.071834
      7          1           0       -2.616448   -0.441034   -0.051235
      8          1           0        0.476583    1.476206    0.118694
 ---------------------------------------------------------------------

 SCF Done:  E(RB2PLYPD3) =  -191.611587180     A.U. after   13 cycles
 E2(B2PLYPD3) =    -0.2472863728D+00 E(B2PLYPD3) =    -0.19185887355232D+03

 The electronic state is 1-A.
 Alpha  occ. eigenvalues --  -19.73189 -10.72345 -10.64112 -10.63812  -1.19035
 Alpha  occ. eigenvalues --   -0.93295  -0.75493  -0.67450  -0.57209  -0.56117
 Alpha  occ. eigenvalues --   -0.50736  -0.47809  -0.46377  -0.34725  -0.33936
 Alpha virt. eigenvalues --   -0.01591   0.05892   0.07209   0.07847   0.09857
 Alpha virt. eigenvalues --    0.12780   0.13760   0.15356   0.17582   0.19647
 Alpha virt. eigenvalues --    0.20212   0.21856   0.25395   0.26568   0.28605

 Mulliken charges:
               1
     1  C    0.153487
     2  O   -0.348951
     3  C   -0.038843
     4  C   -0.135103
     5  H    0.106411
     6  H    0.083984
     7  H    0.102346
     8  H    0.076669
 Sum of Mulliken charges =   0.00000

 Dipole moment (field-independent basis, Debye):
    X=             -3.4103    Y=              0.8136    Z=              0.0855  Tot=              3.5070
 Quadrupole moment (field-independent basis, Debye-Ang):
   XX=            -27.6514   YY=            -21.6445   ZZ=            -25.1306
   XY=              1.1026   XZ=              0.3524   YZ=             -0.0826

 Normal termination of Gaussian 09 at Wed Aug 26 08:36:22 2020.
