 Gaussian 09, Revision D.01,
 Gaussian 09:  ES64L-G09RevD.01 24-Apr-2013

 --------------------
 #p B2PLYPD3/Def2QZVP
 --------------------

 --------
 acrolein
 --------
 Symbolic Z-matrix:
 Charge =  0 Multiplicity = 1

                         Standard orientation:
 ---------------------------------------------------------------------
 Center     Atomic      Atomic             Coordinates (Angstroms)
 Number     Number       Type             X           Y           Z
 ---------------------------------------------------------------------
      1          6           0       -0.668287    0.357108   -0.035599
      2          8           0       -1.782072   -0.127718    0.026927
      3          6           0        0.566191   -0.454432   -0.007082
      4          6           0        1.743386    0.142825    0.007377
      5          1           0        0.458546   -1.510641   -0.036315
      6          1           0        1.785066    1.241308    0.091606
      7          1           0        2.686703   -0.414988    0.003263
      8          1           0       -0.521477    1.433060   -0.062146
 ---------------------------------------------------------------------

 SCF Done:  E(RB2PLYPD3) =  -191.615657333     A.U. after   12 cycles
 E2(B2PLYPD3) =    -0.2470564701D+00 E(B2PLYPD3) =    -0.19186271380265D+03

 The electronic state is 1-A.
 Alpha  occ. eigenvalues --  -19.72784 -10.71521 -10.65454 -10.63981  -1.19179
 Alpha  occ. eigenvalues --   -0.93215  -0.75045  -0.67459  -0.56562  -0.56269
 Alpha  occ. eigenvalues --   -0.50610  -0.46761  -0.46567  -0.34824  -0.33897
 Alpha virt. eigenvalues --   -0.01514   0.05717   0.07217   0.07967   0.09760
 Alpha virt. eigenvalues --    0.12528   0.14001   0.15317   0.17620   0.19604
 Alpha virt. eigenvalues --    0.20041   0.21430   0.25445   0.26511   0.29042

 Mulliken charges:
               1
     1  C    0.154265
     2  O   -0.351814
     3  C   -0.041677
     4  C   -0.128678
     5  H    0.108073
     6  H    0.080143
     7  H    0.100845
     8  H    0.078842
 Sum of Mulliken charges =   0.00000

 Dipole moment (field-independent basis, Debye):
    X=              3.4426    Y=              0.7954    Z=             -0.0784  Tot=              3.5342
 Quadrupole moment (field-independent basis, Debye-Ang):
   XX=            -27.5990   YY=            -21.6485   ZZ=            -25.1794
   XY=             -1.0917   XZ=              0.2528   YZ=              0.1359

 Normal termination of Gaussian 09 at Wed Aug 26 20:13:10 2020.
