 Gaussian 09, Revision D.01,
 Gaussian 09:  ES64L-G09RevD.01 24-Apr-2013

 --------------------
 #p B2PLYPD3/Def2QZVP
 --------------------

 --------
 acrolein
 --------
 Symbolic Z-matrix:
 Charge =  0 Multiplicity = 1

                         Standard orientation:
 ---------------------------------------------------------------------
 Center     Atomic      Atomic             Coordinates (Angstroms)
 Number     Number       Type             X           Y           Z
 ---------------------------------------------------------------------
      1          6           0       -0.684155    0.351556    0.001460
      2          8           0       -1.778510   -0.133104   -0.020781
      3          6           0        0.551835   -0.426088    0.042495
      4          6           0        1.754960    0.143655   -0.035841
      5          1           0        0.454008   -1.445620    0.048492
      6          1           0        1.812440    1.160119    0.063185
      7          1           0        2.771243   -0.448810   -0.056172
      8          1           0       -0.545454    1.384404    0.062057
 ---------------------------------------------------------------------

 SCF Done:  E(RB2PLYPD3) =  -191.603571124     A.U. after   13 cycles
 E2(B2PLYPD3) =    -0.2459587993D+00 E(B2PLYPD3) =    -0.19184952992315D+03

 The electronic state is 1-A.
 Alpha  occ. eigenvalues --  -19.72692 -10.70704 -10.65633 -10.63456  -1.20354
 Alpha  occ. eigenvalues --   -0.93218  -0.75615  -0.68736  -0.57580  -0.55818
 Alpha  occ. eigenvalues --   -0.50761  -0.47425  -0.46827  -0.34614  -0.33923
 Alpha virt. eigenvalues --   -0.01687   0.05615   0.07470   0.08402   0.09749
 Alpha virt. eigenvalues --    0.12476   0.14041   0.15360   0.18089   0.19841
 Alpha virt. eigenvalues --    0.20120   0.21161   0.25328   0.26428   0.28753

 Mulliken charges:
               1
     1  C    0.150290
     2  O   -0.345092
     3  C   -0.037214
     4  C   -0.135278
     5  H    0.109221
     6  H    0.086195
     7  H    0.093917
     8  H    0.077961
 Sum of Mulliken charges =   0.00000

 Dipole moment (field-independent basis, Debye):
    X=              3.3781    Y=              0.8452    Z=              0.1173  Tot=              3.4842
 Quadrupole moment (field-independent basis, Debye-Ang):
   XX=            -27.2131   YY=            -21.8882   ZZ=            -25.0498
   XY=             -1.1086   XZ=             -0.1257   YZ=              0.0917

 Normal termination of Gaussian 09 at Wed Aug 26 08:37:52 2020.
