 Gaussian 09, Revision D.01,
 Gaussian 09:  ES64L-G09RevD.01 24-Apr-2013

 --------------------
 #p B2PLYPD3/Def2QZVP
 --------------------

 --------
 acrolein
 --------
 Symbolic Z-matrix:
 Charge =  0 Multiplicity = 1

                         Standard orientation:
 ---------------------------------------------------------------------
 Center     Atomic      Atomic             Coordinates (Angstroms)
 Number     Number       Type             X           Y           Z
 ---------------------------------------------------------------------
      1          6           0        0.677111    0.330905   -0.045160
      2          8           0        1.805981   -0.100262    0.029771
      3          6           0       -0.570862   -0.472097   -0.004821
      4          6           0       -1.761454    0.158917    0.004134
      5          1           0       -0.451445   -1.560926   -0.021272
      6          1           0       -1.863384    1.197776    0.115044
      7          1           0       -2.669050   -0.382363   -0.003781
      8          1           0        0.467263    1.441264   -0.053079
 ---------------------------------------------------------------------

 SCF Done:  E(RB2PLYPD3) =  -191.613333067     A.U. after   13 cycles
 E2(B2PLYPD3) =    -0.2476173660D+00 E(B2PLYPD3) =    -0.19186095043318D+03

 The electronic state is 1-A.
 Alpha  occ. eigenvalues --  -19.73024 -10.71945 -10.65221 -10.65021  -1.19544
 Alpha  occ. eigenvalues --   -0.92758  -0.75727  -0.66740  -0.56650  -0.56261
 Alpha  occ. eigenvalues --   -0.50627  -0.47547  -0.46697  -0.34561  -0.33694
 Alpha virt. eigenvalues --   -0.01979   0.05816   0.07178   0.07980   0.09690
 Alpha virt. eigenvalues --    0.12790   0.14079   0.15306   0.17216   0.19853
 Alpha virt. eigenvalues --    0.20141   0.21800   0.24985   0.26525   0.28346

 Mulliken charges:
               1
     1  C    0.160272
     2  O   -0.344972
     3  C   -0.037365
     4  C   -0.130275
     5  H    0.102642
     6  H    0.089364
     7  H    0.099864
     8  H    0.060469
 Sum of Mulliken charges =   0.00000

 Dipole moment (field-independent basis, Debye):
    X=             -3.5407    Y=              0.6635    Z=             -0.0566  Tot=              3.6028
 Quadrupole moment (field-independent basis, Debye-Ang):
   XX=            -27.4034   YY=            -21.8229   ZZ=            -25.2456
   XY=              0.5802   XZ=             -0.3061   YZ=              0.1638

 Normal termination of Gaussian 09 at Wed Aug 26 08:35:52 2020.
