 Gaussian 09, Revision D.01,
 Gaussian 09:  ES64L-G09RevD.01 24-Apr-2013

 --------------------
 #p B2PLYPD3/Def2QZVP
 --------------------

 --------
 acrolein
 --------
 Symbolic Z-matrix:
 Charge =  0 Multiplicity = 1

                         Standard orientation:
 ---------------------------------------------------------------------
 Center     Atomic      Atomic             Coordinates (Angstroms)
 Number     Number       Type             X           Y           Z
 ---------------------------------------------------------------------
      1          6           0       -0.666122    0.356512   -0.021615
      2          8           0       -1.788285   -0.110824    0.026864
      3          6           0        0.574315   -0.460485   -0.037354
      4          6           0        1.745217    0.140737    0.023275
      5          1           0        0.422900   -1.600968   -0.044676
      6          1           0        1.880809    1.261983   -0.048304
      7          1           0        2.622448   -0.379722    0.108295
      8          1           0       -0.540337    1.384713   -0.016068
 ---------------------------------------------------------------------

 SCF Done:  E(RB2PLYPD3) =  -191.606447819     A.U. after   13 cycles
 E2(B2PLYPD3) =    -0.2469306916D+00 E(B2PLYPD3) =    -0.19185337851058D+03

 The electronic state is 1-A.
 Alpha  occ. eigenvalues --  -19.72608 -10.70952 -10.65093 -10.64952  -1.19031
 Alpha  occ. eigenvalues --   -0.93048  -0.75833  -0.67192  -0.56982  -0.56129
 Alpha  occ. eigenvalues --   -0.50748  -0.46545  -0.45886  -0.34860  -0.33837
 Alpha virt. eigenvalues --   -0.01442   0.05708   0.07039   0.07985   0.09615
 Alpha virt. eigenvalues --    0.12555   0.14370   0.15316   0.17129   0.19626
 Alpha virt. eigenvalues --    0.20007   0.21986   0.25248   0.26724   0.28591

 Mulliken charges:
               1
     1  C    0.161645
     2  O   -0.354985
     3  C   -0.047229
     4  C   -0.125862
     5  H    0.100560
     6  H    0.078741
     7  H    0.103053
     8  H    0.084076
 Sum of Mulliken charges =   0.00000

 Dipole moment (field-independent basis, Debye):
    X=              3.4962    Y=              0.8228    Z=             -0.0771  Tot=              3.5925
 Quadrupole moment (field-independent basis, Debye-Ang):
   XX=            -27.5891   YY=            -21.5153   ZZ=            -25.1743
   XY=             -0.7959   XZ=              0.3015   YZ=             -0.0783

 Normal termination of Gaussian 09 at Wed Aug 26 21:00:31 2020.
