 Gaussian 09, Revision D.01,
 Gaussian 09:  ES64L-G09RevD.01 24-Apr-2013

 --------------------
 #p B2PLYPD3/Def2QZVP
 --------------------

 --------
 acrolein
 --------
 Symbolic Z-matrix:
 Charge =  0 Multiplicity = 1

                         Standard orientation:
 ---------------------------------------------------------------------
 Center     Atomic      Atomic             Coordinates (Angstroms)
 Number     Number       Type             X           Y           Z
 ---------------------------------------------------------------------
      1          6           0        0.664930    0.330287   -0.028811
      2          8           0        1.793929   -0.111953    0.026340
      3          6           0       -0.564669   -0.436189   -0.014248
      4          6           0       -1.767338    0.142367    0.013222
      5          1           0       -0.441653   -1.548521   -0.005624
      6          1           0       -1.825009    1.221050    0.129562
      7          1           0       -2.637727   -0.409481   -0.046748
      8          1           0        0.555426    1.413787   -0.108893
 ---------------------------------------------------------------------

 SCF Done:  E(RB2PLYPD3) =  -191.612993643     A.U. after   13 cycles
 E2(B2PLYPD3) =    -0.2471497120D+00 E(B2PLYPD3) =    -0.19186014335547D+03

 The electronic state is 1-A.
 Alpha  occ. eigenvalues --  -19.72641 -10.71190 -10.65298 -10.64757  -1.19234
 Alpha  occ. eigenvalues --   -0.93349  -0.76366  -0.66642  -0.57104  -0.56644
 Alpha  occ. eigenvalues --   -0.50742  -0.46779  -0.46616  -0.34704  -0.33780
 Alpha virt. eigenvalues --   -0.02158   0.05824   0.07065   0.08461   0.09753
 Alpha virt. eigenvalues --    0.12632   0.14084   0.15401   0.17218   0.19424
 Alpha virt. eigenvalues --    0.20205   0.21910   0.25340   0.26458   0.28922

 Mulliken charges:
               1
     1  C    0.155392
     2  O   -0.351331
     3  C   -0.032090
     4  C   -0.129933
     5  H    0.096311
     6  H    0.086674
     7  H    0.110330
     8  H    0.064648
 Sum of Mulliken charges =   0.00000

 Dipole moment (field-independent basis, Debye):
    X=             -3.5965    Y=              0.7151    Z=             -0.0621  Tot=              3.6674
 Quadrupole moment (field-independent basis, Debye-Ang):
   XX=            -27.3733   YY=            -21.8348   ZZ=            -25.1467
   XY=              0.9651   XZ=             -0.2210   YZ=              0.1499

 Normal termination of Gaussian 09 at Wed Aug 26 08:36:13 2020.
