 Gaussian 09, Revision D.01,
 Gaussian 09:  ES64L-G09RevD.01 24-Apr-2013

 --------------------
 #p B2PLYPD3/Def2QZVP
 --------------------

 --------
 acrolein
 --------
 Symbolic Z-matrix:
 Charge =  0 Multiplicity = 1

                         Standard orientation:
 ---------------------------------------------------------------------
 Center     Atomic      Atomic             Coordinates (Angstroms)
 Number     Number       Type             X           Y           Z
 ---------------------------------------------------------------------
      1          6           0        0.682491    0.363496   -0.027326
      2          8           0        1.772767   -0.131883    0.022045
      3          6           0       -0.553790   -0.449261   -0.017133
      4          6           0       -1.752647    0.144384    0.005267
      5          1           0       -0.447993   -1.510347   -0.012053
      6          1           0       -1.837332    1.190715    0.047433
      7          1           0       -2.701129   -0.417948    0.041045
      8          1           0        0.547990    1.440933   -0.017640
 ---------------------------------------------------------------------

 SCF Done:  E(RB2PLYPD3) =  -191.616056621     A.U. after   12 cycles
 E2(B2PLYPD3) =    -0.2462330756D+00 E(B2PLYPD3) =    -0.19186228969651D+03

 The electronic state is 1-A.
 Alpha  occ. eigenvalues --  -19.72708 -10.71279 -10.65139 -10.64165  -1.20272
 Alpha  occ. eigenvalues --   -0.92632  -0.75143  -0.67648  -0.57063  -0.56149
 Alpha  occ. eigenvalues --   -0.50687  -0.47132  -0.47076  -0.34466  -0.33814
 Alpha virt. eigenvalues --   -0.01428   0.05798   0.07353   0.08123   0.09760
 Alpha virt. eigenvalues --    0.12566   0.14143   0.15430   0.17667   0.19898
 Alpha virt. eigenvalues --    0.19978   0.21502   0.25560   0.26360   0.28799

 Mulliken charges:
               1
     1  C    0.152613
     2  O   -0.342340
     3  C   -0.046464
     4  C   -0.134300
     5  H    0.109738
     6  H    0.084425
     7  H    0.097144
     8  H    0.079185
 Sum of Mulliken charges =   0.00000

 Dipole moment (field-independent basis, Debye):
    X=             -3.3342    Y=              0.8391    Z=             -0.0203  Tot=              3.4382
 Quadrupole moment (field-independent basis, Debye-Ang):
   XX=            -27.3281   YY=            -21.6736   ZZ=            -25.1728
   XY=              1.0113   XZ=             -0.2786   YZ=              0.0393

 Normal termination of Gaussian 09 at Wed Aug 26 16:14:15 2020.
