 Gaussian 09, Revision D.01,
 Gaussian 09:  ES64L-G09RevD.01 24-Apr-2013

 --------------------
 #p B2PLYPD3/Def2QZVP
 --------------------

 --------
 acrolein
 --------
 Symbolic Z-matrix:
 Charge =  0 Multiplicity = 1

                         Standard orientation:
 ---------------------------------------------------------------------
 Center     Atomic      Atomic             Coordinates (Angstroms)
 Number     Number       Type             X           Y           Z
 ---------------------------------------------------------------------
      1          6           0        0.667291    0.350095    0.016472
      2          8           0        1.785873   -0.132601   -0.026367
      3          6           0       -0.555846   -0.426559    0.020538
      4          6           0       -1.744879    0.126118   -0.039503
      5          1           0       -0.434764   -1.491911    0.079190
      6          1           0       -1.821060    1.204319   -0.037913
      7          1           0       -2.681636   -0.466431    0.048585
      8          1           0        0.451083    1.516906    0.136035
 ---------------------------------------------------------------------

 SCF Done:  E(RB2PLYPD3) =  -191.609770708     A.U. after   12 cycles
 E2(B2PLYPD3) =    -0.2482081286D+00 E(B2PLYPD3) =    -0.19185797883665D+03

 The electronic state is 1-A.
 Alpha  occ. eigenvalues --  -19.73279 -10.72517 -10.65559 -10.63926  -1.19314
 Alpha  occ. eigenvalues --   -0.93783  -0.75505  -0.66183  -0.56578  -0.55925
 Alpha  occ. eigenvalues --   -0.50563  -0.46987  -0.46337  -0.35142  -0.33921
 Alpha virt. eigenvalues --   -0.01976   0.05680   0.06793   0.08395   0.09858
 Alpha virt. eigenvalues --    0.12474   0.13585   0.15301   0.17380   0.19459
 Alpha virt. eigenvalues --    0.20060   0.21566   0.25509   0.26467   0.28650

 Mulliken charges:
               1
     1  C    0.161349
     2  O   -0.347014
     3  C   -0.025485
     4  C   -0.123320
     5  H    0.102424
     6  H    0.081841
     7  H    0.102167
     8  H    0.048038
 Sum of Mulliken charges =   0.00000

 Dipole moment (field-independent basis, Debye):
    X=             -3.5199    Y=              0.6592    Z=              0.1937  Tot=              3.5863
 Quadrupole moment (field-independent basis, Debye-Ang):
   XX=            -27.3697   YY=            -22.0409   ZZ=            -25.2080
   XY=              0.9246   XZ=              0.0093   YZ=             -0.1169

 Normal termination of Gaussian 09 at Wed Aug 26 09:13:47 2020.
