 Gaussian 09, Revision D.01,
 Gaussian 09:  ES64L-G09RevD.01 24-Apr-2013

 --------------------
 #p B2PLYPD3/Def2QZVP
 --------------------

 --------
 acrolein
 --------
 Symbolic Z-matrix:
 Charge =  0 Multiplicity = 1

                         Standard orientation:
 ---------------------------------------------------------------------
 Center     Atomic      Atomic             Coordinates (Angstroms)
 Number     Number       Type             X           Y           Z
 ---------------------------------------------------------------------
      1          6           0       -0.672120    0.345574   -0.005880
      2          8           0       -1.790267   -0.113942    0.006379
      3          6           0        0.563898   -0.459597   -0.002271
      4          6           0        1.753526    0.145327    0.001570
      5          1           0        0.472325   -1.512704    0.017958
      6          1           0        1.856411    1.249457    0.081580
      7          1           0        2.643274   -0.411516   -0.050257
      8          1           0       -0.521693    1.398479   -0.060832
 ---------------------------------------------------------------------

 SCF Done:  E(RB2PLYPD3) =  -191.614811870     A.U. after   12 cycles
 E2(B2PLYPD3) =    -0.2465671776D+00 E(B2PLYPD3) =    -0.19186137904785D+03

 The electronic state is 1-A.
 Alpha  occ. eigenvalues --  -19.72650 -10.71082 -10.65389 -10.64155  -1.19507
 Alpha  occ. eigenvalues --   -0.92999  -0.75626  -0.67689  -0.56712  -0.56561
 Alpha  occ. eigenvalues --   -0.50720  -0.47276  -0.46641  -0.34608  -0.33811
 Alpha virt. eigenvalues --   -0.01660   0.05750   0.07365   0.08119   0.09680
 Alpha virt. eigenvalues --    0.12639   0.14135   0.15396   0.17712   0.19466
 Alpha virt. eigenvalues --    0.20112   0.21694   0.25347   0.26606   0.28681

 Mulliken charges:
               1
     1  C    0.154856
     2  O   -0.349896
     3  C   -0.045531
     4  C   -0.130749
     5  H    0.107256
     6  H    0.083291
     7  H    0.101764
     8  H    0.079009
 Sum of Mulliken charges =   0.00000

 Dipole moment (field-independent basis, Debye):
    X=              3.4975    Y=              0.7601    Z=             -0.0015  Tot=              3.5792
 Quadrupole moment (field-independent basis, Debye-Ang):
   XX=            -27.5167   YY=            -21.6304   ZZ=            -25.1404
   XY=             -0.9173   XZ=              0.0551   YZ=              0.0791

 Normal termination of Gaussian 09 at Wed Aug 26 14:20:15 2020.
