 Gaussian 09, Revision D.01,
 Gaussian 09:  ES64L-G09RevD.01 24-Apr-2013

 --------------------
 #p B2PLYPD3/Def2QZVP
 --------------------

 --------
 acrolein
 --------
 Symbolic Z-matrix:
 Charge =  0 Multiplicity = 1

                         Standard orientation:
 ---------------------------------------------------------------------
 Center     Atomic      Atomic             Coordinates (Angstroms)
 Number     Number       Type             X           Y           Z
 ---------------------------------------------------------------------
      1          6           0       -0.662695    0.349141   -0.028041
      2          8           0       -1.798863   -0.114383    0.022190
      3          6           0        0.581161   -0.460001   -0.023483
      4          6           0        1.753924    0.144381    0.005513
      5          1           0        0.446403   -1.568809    0.002063
      6          1           0        1.846040    1.245097    0.032071
      7          1           0        2.601218   -0.386856    0.065697
      8          1           0       -0.537099    1.424506   -0.001279
 ---------------------------------------------------------------------

 SCF Done:  E(RB2PLYPD3) =  -191.609655337     A.U. after   12 cycles
 E2(B2PLYPD3) =    -0.2474665393D+00 E(B2PLYPD3) =    -0.19185712187629D+03

 The electronic state is 1-A.
 Alpha  occ. eigenvalues --  -19.72757 -10.71607 -10.64864 -10.64637  -1.18397
 Alpha  occ. eigenvalues --   -0.93359  -0.75965  -0.66903  -0.57154  -0.56342
 Alpha  occ. eigenvalues --   -0.50522  -0.46823  -0.46108  -0.34923  -0.33833
 Alpha virt. eigenvalues --   -0.01720   0.05789   0.07095   0.07948   0.09686
 Alpha virt. eigenvalues --    0.12633   0.14211   0.15299   0.17172   0.19735
 Alpha virt. eigenvalues --    0.19984   0.22115   0.25332   0.26508   0.28745

 Mulliken charges:
               1
     1  C    0.157797
     2  O   -0.358171
     3  C   -0.042137
     4  C   -0.125733
     5  H    0.102182
     6  H    0.082826
     7  H    0.105026
     8  H    0.078209
 Sum of Mulliken charges =   0.00000

 Dipole moment (field-independent basis, Debye):
    X=              3.5695    Y=              0.7786    Z=              0.0056  Tot=              3.6535
 Quadrupole moment (field-independent basis, Debye-Ang):
   XX=            -27.6863   YY=            -21.5467   ZZ=            -25.1768
   XY=             -0.8826   XZ=              0.3218   YZ=             -0.0086

 Normal termination of Gaussian 09 at Wed Aug 26 20:22:30 2020.
