 Gaussian 09, Revision D.01,
 Gaussian 09:  ES64L-G09RevD.01 24-Apr-2013

 --------------------
 #p B2PLYPD3/Def2QZVP
 --------------------

 --------
 acrolein
 --------
 Symbolic Z-matrix:
 Charge =  0 Multiplicity = 1

                         Standard orientation:
 ---------------------------------------------------------------------
 Center     Atomic      Atomic             Coordinates (Angstroms)
 Number     Number       Type             X           Y           Z
 ---------------------------------------------------------------------
      1          6           0       -0.673148    0.331786    0.008955
      2          8           0       -1.803906   -0.105000    0.009219
      3          6           0        0.578560   -0.459295   -0.029455
      4          6           0        1.754683    0.137692    0.003778
      5          1           0        0.445876   -1.522321   -0.009709
      6          1           0        1.922806    1.265590   -0.004287
      7          1           0        2.574903   -0.425044    0.086440
      8          1           0       -0.472905    1.460676   -0.045862
 ---------------------------------------------------------------------

 SCF Done:  E(RB2PLYPD3) =  -191.607008925     A.U. after   12 cycles
 E2(B2PLYPD3) =    -0.2472766676D+00 E(B2PLYPD3) =    -0.19185428559210D+03

 The electronic state is 1-A.
 Alpha  occ. eigenvalues --  -19.73079 -10.72031 -10.65052 -10.64359  -1.19477
 Alpha  occ. eigenvalues --   -0.93441  -0.75916  -0.66274  -0.57376  -0.55692
 Alpha  occ. eigenvalues --   -0.50905  -0.47104  -0.46693  -0.35092  -0.33612
 Alpha virt. eigenvalues --   -0.01699   0.05744   0.07172   0.08218   0.09646
 Alpha virt. eigenvalues --    0.12590   0.13900   0.15316   0.17392   0.19472
 Alpha virt. eigenvalues --    0.19940   0.22148   0.25360   0.26533   0.28136

 Mulliken charges:
               1
     1  C    0.166016
     2  O   -0.345927
     3  C   -0.043360
     4  C   -0.123237
     5  H    0.102047
     6  H    0.085927
     7  H    0.103949
     8  H    0.054586
 Sum of Mulliken charges =   0.00000

 Dipole moment (field-independent basis, Debye):
    X=              3.5448    Y=              0.6153    Z=              0.0403  Tot=              3.5980
 Quadrupole moment (field-independent basis, Debye-Ang):
   XX=            -27.4690   YY=            -21.8131   ZZ=            -25.1676
   XY=             -0.6123   XZ=              0.2562   YZ=             -0.0776

 Normal termination of Gaussian 09 at Wed Aug 26 09:43:05 2020.
