 Gaussian 09, Revision D.01,
 Gaussian 09:  ES64L-G09RevD.01 24-Apr-2013

 --------------------
 #p B2PLYPD3/Def2QZVP
 --------------------

 --------
 acrolein
 --------
 Symbolic Z-matrix:
 Charge =  0 Multiplicity = 1

                         Standard orientation:
 ---------------------------------------------------------------------
 Center     Atomic      Atomic             Coordinates (Angstroms)
 Number     Number       Type             X           Y           Z
 ---------------------------------------------------------------------
      1          6           0        0.671692    0.356480    0.004524
      2          8           0        1.777787   -0.130547   -0.015718
      3          6           0       -0.552272   -0.434018    0.012330
      4          6           0       -1.748361    0.130825   -0.008300
      5          1           0       -0.455997   -1.517397    0.041661
      6          1           0       -1.819791    1.216090   -0.057153
      7          1           0       -2.695994   -0.415825   -0.008405
      8          1           0        0.523132    1.441784    0.098321
 ---------------------------------------------------------------------

 SCF Done:  E(RB2PLYPD3) =  -191.616531625     A.U. after   12 cycles
 E2(B2PLYPD3) =    -0.2468384571D+00 E(B2PLYPD3) =    -0.19186337008229D+03

 The electronic state is 1-A.
 Alpha  occ. eigenvalues --  -19.72786 -10.71441 -10.65427 -10.64107  -1.19678
 Alpha  occ. eigenvalues --   -0.93244  -0.75488  -0.67004  -0.56749  -0.56414
 Alpha  occ. eigenvalues --   -0.50742  -0.46956  -0.46259  -0.34812  -0.33960
 Alpha virt. eigenvalues --   -0.01677   0.05745   0.07132   0.08306   0.09742
 Alpha virt. eigenvalues --    0.12512   0.14163   0.15371   0.17514   0.19552
 Alpha virt. eigenvalues --    0.20103   0.21468   0.25605   0.26494   0.28923

 Mulliken charges:
               1
     1  C    0.153645
     2  O   -0.347095
     3  C   -0.036770
     4  C   -0.127890
     5  H    0.103845
     6  H    0.077619
     7  H    0.102763
     8  H    0.073883
 Sum of Mulliken charges =   0.00000

 Dipole moment (field-independent basis, Debye):
    X=             -3.4633    Y=              0.7921    Z=              0.0550  Tot=              3.5532
 Quadrupole moment (field-independent basis, Debye-Ang):
   XX=            -27.2905   YY=            -21.8259   ZZ=            -25.1608
   XY=              1.0663   XZ=              0.1731   YZ=             -0.0741

 Normal termination of Gaussian 09 at Wed Aug 26 19:45:57 2020.
