 Gaussian 09, Revision D.01,
 Gaussian 09:  ES64L-G09RevD.01 24-Apr-2013

 --------------------
 #p B2PLYPD3/Def2QZVP
 --------------------

 --------
 acrolein
 --------
 Symbolic Z-matrix:
 Charge =  0 Multiplicity = 1

                         Standard orientation:
 ---------------------------------------------------------------------
 Center     Atomic      Atomic             Coordinates (Angstroms)
 Number     Number       Type             X           Y           Z
 ---------------------------------------------------------------------
      1          6           0       -0.665186    0.337677    0.000738
      2          8           0       -1.800620   -0.109053   -0.000854
      3          6           0        0.563836   -0.447880   -0.012567
      4          6           0        1.756478    0.141316    0.004817
      5          1           0        0.419898   -1.553004    0.037947
      6          1           0        1.864858    1.224051   -0.011755
      7          1           0        2.666480   -0.427497   -0.000251
      8          1           0       -0.477046    1.442199    0.022963
 ---------------------------------------------------------------------

 SCF Done:  E(RB2PLYPD3) =  -191.615040467     A.U. after   12 cycles
 E2(B2PLYPD3) =    -0.2478936052D+00 E(B2PLYPD3) =    -0.19186293407182D+03

 The electronic state is 1-A.
 Alpha  occ. eigenvalues --  -19.72911 -10.71744 -10.65689 -10.64799  -1.18943
 Alpha  occ. eigenvalues --   -0.93284  -0.75889  -0.66411  -0.56724  -0.56104
 Alpha  occ. eigenvalues --   -0.50499  -0.46751  -0.46444  -0.34868  -0.33838
 Alpha virt. eigenvalues --   -0.02063   0.05706   0.06983   0.08274   0.09718
 Alpha virt. eigenvalues --    0.12590   0.13910   0.15271   0.17241   0.19774
 Alpha virt. eigenvalues --    0.19977   0.21712   0.25388   0.26553   0.28549

 Mulliken charges:
               1
     1  C    0.160138
     2  O   -0.353619
     3  C   -0.031059
     4  C   -0.128580
     5  H    0.100367
     6  H    0.086736
     7  H    0.104536
     8  H    0.061480
 Sum of Mulliken charges =   0.00000

 Dipole moment (field-independent basis, Debye):
    X=              3.6220    Y=              0.7015    Z=              0.0345  Tot=              3.6894
 Quadrupole moment (field-independent basis, Debye-Ang):
   XX=            -27.4452   YY=            -21.8367   ZZ=            -25.2479
   XY=             -0.7064   XZ=             -0.0029   YZ=             -0.0702

 Normal termination of Gaussian 09 at Wed Aug 26 20:13:02 2020.
