 Gaussian 09, Revision D.01,
 Gaussian 09:  ES64L-G09RevD.01 24-Apr-2013

 --------------------
 #p B2PLYPD3/Def2QZVP
 --------------------

 --------
 acrolein
 --------
 Symbolic Z-matrix:
 Charge =  0 Multiplicity = 1

                         Standard orientation:
 ---------------------------------------------------------------------
 Center     Atomic      Atomic             Coordinates (Angstroms)
 Number     Number       Type             X           Y           Z
 ---------------------------------------------------------------------
      1          6           0        0.687829    0.363929    0.031563
      2          8           0        1.797292   -0.142044   -0.044605
      3          6           0       -0.563487   -0.409989    0.019679
      4          6           0       -1.746884    0.112326   -0.065121
      5          1           0       -0.504926   -1.508269    0.183626
      6          1           0       -1.814198    1.152997   -0.060577
      7          1           0       -2.734569   -0.385542    0.080221
      8          1           0        0.410611    1.479577    0.236839
 ---------------------------------------------------------------------

 SCF Done:  E(RB2PLYPD3) =  -191.602014832     A.U. after   13 cycles
 E2(B2PLYPD3) =    -0.2483040351D+00 E(B2PLYPD3) =    -0.19185031886741D+03

 The electronic state is 1-A.
 Alpha  occ. eigenvalues --  -19.73793 -10.73025 -10.64609 -10.64055  -1.19453
 Alpha  occ. eigenvalues --   -0.93832  -0.75631  -0.66307  -0.56806  -0.55954
 Alpha  occ. eigenvalues --   -0.51386  -0.46956  -0.44949  -0.35382  -0.34215
 Alpha virt. eigenvalues --   -0.01910   0.05716   0.06665   0.08311   0.09758
 Alpha virt. eigenvalues --    0.12593   0.14050   0.15272   0.17359   0.19301
 Alpha virt. eigenvalues --    0.19809   0.21951   0.25105   0.26724   0.28530

 Mulliken charges:
               1
     1  C    0.155495
     2  O   -0.338274
     3  C   -0.019638
     4  C   -0.117728
     5  H    0.093888
     6  H    0.066368
     7  H    0.096895
     8  H    0.062993
 Sum of Mulliken charges =   0.00000

 Dipole moment (field-independent basis, Debye):
    X=             -3.4268    Y=              0.8058    Z=              0.3858  Tot=              3.5414
 Quadrupole moment (field-independent basis, Debye-Ang):
   XX=            -27.1742   YY=            -22.3070   ZZ=            -25.1157
   XY=              0.9250   XZ=             -0.0558   YZ=             -0.2236

 Normal termination of Gaussian 09 at Wed Aug 26 13:59:57 2020.
