 Gaussian 09, Revision D.01,
 Gaussian 09:  ES64L-G09RevD.01 24-Apr-2013

 --------------------
 #p B2PLYPD3/Def2QZVP
 --------------------

 --------
 acrolein
 --------
 Symbolic Z-matrix:
 Charge =  0 Multiplicity = 1

                         Standard orientation:
 ---------------------------------------------------------------------
 Center     Atomic      Atomic             Coordinates (Angstroms)
 Number     Number       Type             X           Y           Z
 ---------------------------------------------------------------------
      1          6           0       -0.650254    0.343086   -0.098917
      2          8           0       -1.813510   -0.114981    0.078295
      3          6           0        0.600415   -0.485168   -0.020286
      4          6           0        1.754193    0.171807    0.026003
      5          1           0        0.593268   -1.553657   -0.117872
      6          1           0        1.799258    1.292556    0.250146
      7          1           0        2.448701   -0.409997    0.019182
      8          1           0       -0.559271    1.412594   -0.218613
 ---------------------------------------------------------------------

 SCF Done:  E(RB2PLYPD3) =  -191.570698652     A.U. after   14 cycles
 E2(B2PLYPD3) =    -0.2495715943D+00 E(B2PLYPD3) =    -0.19182027024652D+03

 The electronic state is 1-A.
 Alpha  occ. eigenvalues --  -19.72752 -10.72223 -10.64822 -10.63885  -1.16364
 Alpha  occ. eigenvalues --   -0.94088  -0.76536  -0.67235  -0.58481  -0.55208
 Alpha  occ. eigenvalues --   -0.49371  -0.48372  -0.44780  -0.34685  -0.33820
 Alpha virt. eigenvalues --   -0.02117   0.05785   0.06793   0.07065   0.09628
 Alpha virt. eigenvalues --    0.12698   0.14224   0.15006   0.17280   0.19087
 Alpha virt. eigenvalues --    0.20293   0.22492   0.24133   0.26283   0.28223

 Mulliken charges:
               1
     1  C    0.150240
     2  O   -0.369674
     3  C   -0.039398
     4  C   -0.144401
     5  H    0.096958
     6  H    0.096422
     7  H    0.114684
     8  H    0.095168
 Sum of Mulliken charges =   0.00000

 Dipole moment (field-independent basis, Debye):
    X=              3.6528    Y=              0.7866    Z=             -0.2597  Tot=              3.7455
 Quadrupole moment (field-independent basis, Debye-Ang):
   XX=            -28.5457   YY=            -21.0748   ZZ=            -25.1404
   XY=             -1.2084   XZ=              0.7457   YZ=              0.3680

 Normal termination of Gaussian 09 at Wed Aug 26 11:21:20 2020.
