 Gaussian 09, Revision D.01,
 Gaussian 09:  ES64L-G09RevD.01 24-Apr-2013

 --------------------
 #p B2PLYPD3/Def2QZVP
 --------------------

 --------
 acrolein
 --------
 Symbolic Z-matrix:
 Charge =  0 Multiplicity = 1

                         Standard orientation:
 ---------------------------------------------------------------------
 Center     Atomic      Atomic             Coordinates (Angstroms)
 Number     Number       Type             X           Y           Z
 ---------------------------------------------------------------------
      1          6           0        0.668219    0.350053    0.028330
      2          8           0        1.791995   -0.125021   -0.017112
      3          6           0       -0.549683   -0.435728    0.000690
      4          6           0       -1.754345    0.136608   -0.016411
      5          1           0       -0.449447   -1.509982    0.027268
      6          1           0       -1.826869    1.219057   -0.038449
      7          1           0       -2.737223   -0.449833    0.040988
      8          1           0        0.492433    1.435336    0.031436
 ---------------------------------------------------------------------

 SCF Done:  E(RB2PLYPD3) =  -191.612804991     A.U. after   13 cycles
 E2(B2PLYPD3) =    -0.2480120513D+00 E(B2PLYPD3) =    -0.19186081704193D+03

 The electronic state is 1-A.
 Alpha  occ. eigenvalues --  -19.72848 -10.71577 -10.66312 -10.64275  -1.18939
 Alpha  occ. eigenvalues --   -0.93227  -0.75489  -0.67131  -0.56540  -0.55924
 Alpha  occ. eigenvalues --   -0.50299  -0.46604  -0.46450  -0.34693  -0.34010
 Alpha virt. eigenvalues --   -0.02128   0.05546   0.07054   0.08245   0.09719
 Alpha virt. eigenvalues --    0.12408   0.13914   0.15332   0.17626   0.19690
 Alpha virt. eigenvalues --    0.19918   0.21232   0.25531   0.26414   0.28902

 Mulliken charges:
               1
     1  C    0.153457
     2  O   -0.354458
     3  C   -0.029521
     4  C   -0.130030
     5  H    0.105161
     6  H    0.082966
     7  H    0.101055
     8  H    0.071370
 Sum of Mulliken charges =   0.00000

 Dipole moment (field-independent basis, Debye):
    X=             -3.5806    Y=              0.7778    Z=              0.1096  Tot=              3.6658
 Quadrupole moment (field-independent basis, Debye-Ang):
   XX=            -27.4282   YY=            -21.8344   ZZ=            -25.2617
   XY=              0.9929   XZ=              0.0123   YZ=             -0.0974

 Normal termination of Gaussian 09 at Wed Aug 26 20:20:55 2020.
