 Gaussian 09, Revision D.01,
 Gaussian 09:  ES64L-G09RevD.01 24-Apr-2013

 --------------------
 #p B2PLYPD3/Def2QZVP
 --------------------

 --------
 acrolein
 --------
 Symbolic Z-matrix:
 Charge =  0 Multiplicity = 1

                         Standard orientation:
 ---------------------------------------------------------------------
 Center     Atomic      Atomic             Coordinates (Angstroms)
 Number     Number       Type             X           Y           Z
 ---------------------------------------------------------------------
      1          6           0        0.657364    0.323968    0.016615
      2          8           0        1.802738   -0.096943   -0.023880
      3          6           0       -0.572915   -0.471758    0.004771
      4          6           0       -1.733944    0.163918   -0.028610
      5          1           0       -0.469666   -1.589509    0.089462
      6          1           0       -1.829233    1.236548   -0.050993
      7          1           0       -2.688122   -0.394466    0.045767
      8          1           0        0.462081    1.426204    0.150146
 ---------------------------------------------------------------------

 SCF Done:  E(RB2PLYPD3) =  -191.612573842     A.U. after   12 cycles
 E2(B2PLYPD3) =    -0.2481090436D+00 E(B2PLYPD3) =    -0.19186068288591D+03

 The electronic state is 1-A.
 Alpha  occ. eigenvalues --  -19.72863 -10.71851 -10.65776 -10.64989  -1.18827
 Alpha  occ. eigenvalues --   -0.93476  -0.75314  -0.66396  -0.56482  -0.56003
 Alpha  occ. eigenvalues --   -0.50273  -0.46772  -0.46263  -0.35024  -0.33721
 Alpha virt. eigenvalues --   -0.01847   0.05704   0.06661   0.08111   0.09657
 Alpha virt. eigenvalues --    0.12665   0.14094   0.15186   0.17134   0.19565
 Alpha virt. eigenvalues --    0.20207   0.21487   0.25089   0.26706   0.28519

 Mulliken charges:
               1
     1  C    0.154999
     2  O   -0.351920
     3  C   -0.028411
     4  C   -0.125371
     5  H    0.101678
     6  H    0.089756
     7  H    0.097427
     8  H    0.061843
 Sum of Mulliken charges =   0.00000

 Dipole moment (field-independent basis, Debye):
    X=             -3.6314    Y=              0.6535    Z=              0.1961  Tot=              3.6950
 Quadrupole moment (field-independent basis, Debye-Ang):
   XX=            -27.6556   YY=            -21.7451   ZZ=            -25.2584
   XY=              0.6018   XZ=              0.0402   YZ=             -0.1640

 Normal termination of Gaussian 09 at Wed Aug 26 08:58:28 2020.
