 Gaussian 09, Revision D.01,
 Gaussian 09:  ES64L-G09RevD.01 24-Apr-2013

 --------------------
 #p B2PLYPD3/Def2QZVP
 --------------------

 --------
 acrolein
 --------
 Symbolic Z-matrix:
 Charge =  0 Multiplicity = 1

                         Standard orientation:
 ---------------------------------------------------------------------
 Center     Atomic      Atomic             Coordinates (Angstroms)
 Number     Number       Type             X           Y           Z
 ---------------------------------------------------------------------
      1          6           0       -0.665896    0.349862   -0.004641
      2          8           0       -1.784222   -0.118137   -0.004911
      3          6           0        0.557351   -0.448734    0.002432
      4          6           0        1.757067    0.140212    0.004433
      5          1           0        0.437962   -1.547445    0.028242
      6          1           0        1.835727    1.237815   -0.030025
      7          1           0        2.647645   -0.413725   -0.026938
      8          1           0       -0.538688    1.420407    0.054662
 ---------------------------------------------------------------------

 SCF Done:  E(RB2PLYPD3) =  -191.615443845     A.U. after   12 cycles
 E2(B2PLYPD3) =    -0.2470440765D+00 E(B2PLYPD3) =    -0.19186248792123D+03

 The electronic state is 1-A.
 Alpha  occ. eigenvalues --  -19.72604 -10.71160 -10.65406 -10.64618  -1.19325
 Alpha  occ. eigenvalues --   -0.93007  -0.75810  -0.67028  -0.56693  -0.56567
 Alpha  occ. eigenvalues --   -0.50558  -0.46862  -0.46577  -0.34621  -0.33844
 Alpha virt. eigenvalues --   -0.01837   0.05773   0.07132   0.08219   0.09725
 Alpha virt. eigenvalues --    0.12570   0.14166   0.15339   0.17383   0.19650
 Alpha virt. eigenvalues --    0.20011   0.21774   0.25440   0.26488   0.28900

 Mulliken charges:
               1
     1  C    0.155296
     2  O   -0.351656
     3  C   -0.039765
     4  C   -0.130294
     5  H    0.103220
     6  H    0.082675
     7  H    0.105559
     8  H    0.074966
 Sum of Mulliken charges =   0.00000

 Dipole moment (field-independent basis, Debye):
    X=              3.5182    Y=              0.7723    Z=              0.0015  Tot=              3.6020
 Quadrupole moment (field-independent basis, Debye-Ang):
   XX=            -27.4689   YY=            -21.6553   ZZ=            -25.1982
   XY=             -0.9715   XZ=             -0.1355   YZ=             -0.0407

 Normal termination of Gaussian 09 at Wed Aug 26 10:16:53 2020.
