 Gaussian 09, Revision D.01,
 Gaussian 09:  ES64L-G09RevD.01 24-Apr-2013

 --------------------
 #p B2PLYPD3/Def2QZVP
 --------------------

 --------
 acrolein
 --------
 Symbolic Z-matrix:
 Charge =  0 Multiplicity = 1

                         Standard orientation:
 ---------------------------------------------------------------------
 Center     Atomic      Atomic             Coordinates (Angstroms)
 Number     Number       Type             X           Y           Z
 ---------------------------------------------------------------------
      1          6           0        0.671179    0.343568    0.020827
      2          8           0        1.798061   -0.114008   -0.012147
      3          6           0       -0.576766   -0.470473    0.014015
      4          6           0       -1.752699    0.154740   -0.012763
      5          1           0       -0.458742   -1.536104   -0.006111
      6          1           0       -1.852282    1.253976    0.016589
      7          1           0       -2.637948   -0.426822   -0.017954
      8          1           0        0.514200    1.454006   -0.027822
 ---------------------------------------------------------------------

 SCF Done:  E(RB2PLYPD3) =  -191.614963115     A.U. after   12 cycles
 E2(B2PLYPD3) =    -0.2475393826D+00 E(B2PLYPD3) =    -0.19186250249711D+03

 The electronic state is 1-A.
 Alpha  occ. eigenvalues --  -19.72864 -10.71896 -10.65415 -10.64572  -1.19122
 Alpha  occ. eigenvalues --   -0.92936  -0.75113  -0.66833  -0.56536  -0.56083
 Alpha  occ. eigenvalues --   -0.50456  -0.47322  -0.46459  -0.34766  -0.33679
 Alpha virt. eigenvalues --   -0.01624   0.05751   0.07130   0.07894   0.09700
 Alpha virt. eigenvalues --    0.12564   0.13907   0.15322   0.17454   0.19634
 Alpha virt. eigenvalues --    0.20004   0.21683   0.25235   0.26529   0.28548

 Mulliken charges:
               1
     1  C    0.158441
     2  O   -0.349861
     3  C   -0.046287
     4  C   -0.128984
     5  H    0.107917
     6  H    0.089389
     7  H    0.101054
     8  H    0.068330
 Sum of Mulliken charges =   0.00000

 Dipole moment (field-independent basis, Debye):
    X=             -3.5035    Y=              0.7122    Z=              0.0340  Tot=              3.5753
 Quadrupole moment (field-independent basis, Debye-Ang):
   XX=            -27.6820   YY=            -21.5896   ZZ=            -25.2664
   XY=              0.8344   XZ=              0.0704   YZ=              0.0339

 Normal termination of Gaussian 09 at Wed Aug 26 15:17:30 2020.
