 Gaussian 09, Revision D.01,
 Gaussian 09:  ES64L-G09RevD.01 24-Apr-2013

 --------------------
 #p B2PLYPD3/Def2QZVP
 --------------------

 --------
 acrolein
 --------
 Symbolic Z-matrix:
 Charge =  0 Multiplicity = 1

                         Standard orientation:
 ---------------------------------------------------------------------
 Center     Atomic      Atomic             Coordinates (Angstroms)
 Number     Number       Type             X           Y           Z
 ---------------------------------------------------------------------
      1          6           0        0.668273    0.351199    0.084695
      2          8           0        1.790121   -0.145025   -0.050467
      3          6           0       -0.567530   -0.397371   -0.004057
      4          6           0       -1.738134    0.127769   -0.055282
      5          1           0       -0.544839   -1.439596    0.124535
      6          1           0       -1.700373    1.068573   -0.107396
      7          1           0       -2.724453   -0.371528    0.135377
      8          1           0        0.473039    1.413175    0.099084
 ---------------------------------------------------------------------

 SCF Done:  E(RB2PLYPD3) =  -191.583605271     A.U. after   13 cycles
 E2(B2PLYPD3) =    -0.2471676044D+00 E(B2PLYPD3) =    -0.19183077287547D+03

 The electronic state is 1-A.
 Alpha  occ. eigenvalues --  -19.73289 -10.71891 -10.63407 -10.62861  -1.18430
 Alpha  occ. eigenvalues --   -0.95317  -0.76708  -0.68640  -0.57751  -0.56653
 Alpha  occ. eigenvalues --   -0.51149  -0.46657  -0.46005  -0.35435  -0.34307
 Alpha virt. eigenvalues --   -0.02216   0.05823   0.07245   0.08244   0.09879
 Alpha virt. eigenvalues --    0.12784   0.14420   0.15203   0.17726   0.19258
 Alpha virt. eigenvalues --    0.20412   0.22108   0.25292   0.26678   0.29359

 Mulliken charges:
               1
     1  C    0.134770
     2  O   -0.352095
     3  C    0.001727
     4  C   -0.130307
     5  H    0.090752
     6  H    0.076760
     7  H    0.101512
     8  H    0.076880
 Sum of Mulliken charges =   0.00000

 Dipole moment (field-independent basis, Debye):
    X=             -3.5460    Y=              0.8936    Z=              0.3871  Tot=              3.6772
 Quadrupole moment (field-independent basis, Debye-Ang):
   XX=            -27.2316   YY=            -22.1502   ZZ=            -24.7782
   XY=              1.2630   XZ=             -0.0833   YZ=             -0.2857

 Normal termination of Gaussian 09 at Wed Aug 26 12:42:58 2020.
