 Gaussian 09, Revision D.01,
 Gaussian 09:  ES64L-G09RevD.01 24-Apr-2013

 --------------------
 #p B2PLYPD3/Def2QZVP
 --------------------

 --------
 acrolein
 --------
 Symbolic Z-matrix:
 Charge =  0 Multiplicity = 1

                         Standard orientation:
 ---------------------------------------------------------------------
 Center     Atomic      Atomic             Coordinates (Angstroms)
 Number     Number       Type             X           Y           Z
 ---------------------------------------------------------------------
      1          6           0        0.658383    0.359114    0.054344
      2          8           0        1.775826   -0.144934   -0.043376
      3          6           0       -0.567992   -0.419253   -0.017161
      4          6           0       -1.725764    0.147393   -0.046542
      5          1           0       -0.450655   -1.521502    0.221592
      6          1           0       -1.704541    1.052443   -0.030302
      7          1           0       -2.773690   -0.379487    0.061632
      8          1           0        0.534516    1.484497    0.150243
 ---------------------------------------------------------------------

 SCF Done:  E(RB2PLYPD3) =  -191.571897780     A.U. after   13 cycles
 E2(B2PLYPD3) =    -0.2477529903D+00 E(B2PLYPD3) =    -0.19181965077023D+03

 The electronic state is 1-A.
 Alpha  occ. eigenvalues --  -19.73041 -10.72216 -10.64192 -10.63733  -1.18600
 Alpha  occ. eigenvalues --   -0.94993  -0.75986  -0.67402  -0.57827  -0.55821
 Alpha  occ. eigenvalues --   -0.50380  -0.47079  -0.45343  -0.35390  -0.34065
 Alpha virt. eigenvalues --   -0.01748   0.05697   0.06512   0.08119   0.09801
 Alpha virt. eigenvalues --    0.12436   0.13999   0.14893   0.17256   0.19609
 Alpha virt. eigenvalues --    0.20581   0.22169   0.25211   0.26497   0.29543

 Mulliken charges:
               1
     1  C    0.137244
     2  O   -0.351506
     3  C   -0.008149
     4  C   -0.141865
     5  H    0.096287
     6  H    0.099443
     7  H    0.097907
     8  H    0.070639
 Sum of Mulliken charges =   0.00000

 Dipole moment (field-independent basis, Debye):
    X=             -3.4875    Y=              0.9013    Z=              0.4236  Tot=              3.6269
 Quadrupole moment (field-independent basis, Debye-Ang):
   XX=            -27.3134   YY=            -22.0180   ZZ=            -24.9734
   XY=              1.1184   XZ=             -0.0359   YZ=             -0.3103

 Normal termination of Gaussian 09 at Wed Aug 26 12:41:04 2020.
