 Gaussian 09, Revision D.01,
 Gaussian 09:  ES64L-G09RevD.01 24-Apr-2013

 --------------------
 #p B2PLYPD3/Def2QZVP
 --------------------

 --------
 acrolein
 --------
 Symbolic Z-matrix:
 Charge =  0 Multiplicity = 1

                         Standard orientation:
 ---------------------------------------------------------------------
 Center     Atomic      Atomic             Coordinates (Angstroms)
 Number     Number       Type             X           Y           Z
 ---------------------------------------------------------------------
      1          6           0        0.669786    0.342681   -0.007135
      2          8           0        1.785687   -0.115616    0.020333
      3          6           0       -0.561139   -0.468913   -0.033901
      4          6           0       -1.754286    0.154719    0.019530
      5          1           0       -0.450786   -1.535092   -0.034549
      6          1           0       -1.819416    1.234708   -0.020151
      7          1           0       -2.658739   -0.419802    0.073521
      8          1           0        0.517287    1.474193   -0.052450
 ---------------------------------------------------------------------

 SCF Done:  E(RB2PLYPD3) =  -191.615429472     A.U. after   12 cycles
 E2(B2PLYPD3) =    -0.2474460117D+00 E(B2PLYPD3) =    -0.19186287548374D+03

 The electronic state is 1-A.
 Alpha  occ. eigenvalues --  -19.72768 -10.71824 -10.65609 -10.64609  -1.19727
 Alpha  occ. eigenvalues --   -0.92743  -0.75135  -0.66705  -0.56522  -0.56144
 Alpha  occ. eigenvalues --   -0.50311  -0.47671  -0.46796  -0.34481  -0.33648
 Alpha virt. eigenvalues --   -0.01742   0.05793   0.07059   0.08082   0.09748
 Alpha virt. eigenvalues --    0.12540   0.13903   0.15346   0.17391   0.19877
 Alpha virt. eigenvalues --    0.19968   0.21528   0.25226   0.26321   0.28778

 Mulliken charges:
               1
     1  C    0.156475
     2  O   -0.344635
     3  C   -0.042046
     4  C   -0.131758
     5  H    0.108006
     6  H    0.090323
     7  H    0.102394
     8  H    0.061241
 Sum of Mulliken charges =   0.00000

 Dipole moment (field-independent basis, Debye):
    X=             -3.4764    Y=              0.6818    Z=             -0.0512  Tot=              3.5430
 Quadrupole moment (field-independent basis, Debye-Ang):
   XX=            -27.5009   YY=            -21.6791   ZZ=            -25.2829
   XY=              0.8841   XZ=             -0.2417   YZ=             -0.0553

 Normal termination of Gaussian 09 at Wed Aug 26 15:09:44 2020.
