 Gaussian 09, Revision D.01,
 Gaussian 09:  ES64L-G09RevD.01 24-Apr-2013

 --------------------
 #p B2PLYPD3/Def2QZVP
 --------------------

 --------
 acrolein
 --------
 Symbolic Z-matrix:
 Charge =  0 Multiplicity = 1

                         Standard orientation:
 ---------------------------------------------------------------------
 Center     Atomic      Atomic             Coordinates (Angstroms)
 Number     Number       Type             X           Y           Z
 ---------------------------------------------------------------------
      1          6           0        0.667304    0.335395   -0.014933
      2          8           0        1.805595   -0.093553    0.038673
      3          6           0       -0.565122   -0.466453   -0.088595
      4          6           0       -1.776542    0.131075    0.014246
      5          1           0       -0.483999   -1.588093    0.008603
      6          1           0       -1.924682    1.307213   -0.038209
      7          1           0       -2.490182   -0.353291    0.282494
      8          1           0        0.500261    1.382495   -0.026582
 ---------------------------------------------------------------------

 SCF Done:  E(RB2PLYPD3) =  -191.573594836     A.U. after   14 cycles
 E2(B2PLYPD3) =    -0.2481159471D+00 E(B2PLYPD3) =    -0.19182171078264D+03

 The electronic state is 1-A.
 Alpha  occ. eigenvalues --  -19.72700 -10.71276 -10.65418 -10.65099  -1.18967
 Alpha  occ. eigenvalues --   -0.93095  -0.77421  -0.66907  -0.57854  -0.55729
 Alpha  occ. eigenvalues --   -0.51001  -0.46661  -0.46254  -0.34378  -0.33818
 Alpha virt. eigenvalues --   -0.02402   0.05653   0.07074   0.07878   0.09559
 Alpha virt. eigenvalues --    0.12415   0.14467   0.15298   0.17178   0.19484
 Alpha virt. eigenvalues --    0.19790   0.22770   0.24064   0.26566   0.28314

 Mulliken charges:
               1
     1  C    0.157661
     2  O   -0.352294
     3  C   -0.037220
     4  C   -0.143074
     5  H    0.095464
     6  H    0.077080
     7  H    0.124148
     8  H    0.078235
 Sum of Mulliken charges =   0.00000

 Dipole moment (field-independent basis, Debye):
    X=             -3.6027    Y=              0.7137    Z=              0.1209  Tot=              3.6747
 Quadrupole moment (field-independent basis, Debye-Ang):
   XX=            -27.7501   YY=            -21.6023   ZZ=            -25.1294
   XY=              0.7130   XZ=             -0.8677   YZ=             -0.2728

 Normal termination of Gaussian 09 at Wed Aug 26 12:54:23 2020.
