 Gaussian 09, Revision D.01,
 Gaussian 09:  ES64L-G09RevD.01 24-Apr-2013

 --------------------
 #p B2PLYPD3/Def2QZVP
 --------------------

 --------
 acrolein
 --------
 Symbolic Z-matrix:
 Charge =  0 Multiplicity = 1

                         Standard orientation:
 ---------------------------------------------------------------------
 Center     Atomic      Atomic             Coordinates (Angstroms)
 Number     Number       Type             X           Y           Z
 ---------------------------------------------------------------------
      1          6           0        0.678128    0.349622   -0.020552
      2          8           0        1.788758   -0.123905    0.017827
      3          6           0       -0.555443   -0.447893   -0.026412
      4          6           0       -1.759766    0.144909    0.002747
      5          1           0       -0.458513   -1.537152    0.017517
      6          1           0       -1.824756    1.188544    0.018774
      7          1           0       -2.718586   -0.404217    0.071963
      8          1           0        0.514274    1.464238    0.014424
 ---------------------------------------------------------------------

 SCF Done:  E(RB2PLYPD3) =  -191.614714520     A.U. after   12 cycles
 E2(B2PLYPD3) =    -0.2474099959D+00 E(B2PLYPD3) =    -0.19186212451554D+03

 The electronic state is 1-A.
 Alpha  occ. eigenvalues --  -19.72905 -10.71847 -10.65494 -10.64673  -1.19757
 Alpha  occ. eigenvalues --   -0.92801  -0.75381  -0.66830  -0.56675  -0.56192
 Alpha  occ. eigenvalues --   -0.50486  -0.47007  -0.46818  -0.34548  -0.33876
 Alpha virt. eigenvalues --   -0.01864   0.05754   0.07079   0.08181   0.09733
 Alpha virt. eigenvalues --    0.12545   0.14072   0.15373   0.17382   0.19893
 Alpha virt. eigenvalues --    0.20035   0.21496   0.25334   0.26346   0.28811

 Mulliken charges:
               1
     1  C    0.153620
     2  O   -0.344191
     3  C   -0.035245
     4  C   -0.131452
     5  H    0.104452
     6  H    0.085137
     7  H    0.100884
     8  H    0.066795
 Sum of Mulliken charges =   0.00000

 Dipole moment (field-independent basis, Debye):
    X=             -3.4773    Y=              0.7615    Z=              0.0381  Tot=              3.5599
 Quadrupole moment (field-independent basis, Debye-Ang):
   XX=            -27.2754   YY=            -21.8478   ZZ=            -25.2592
   XY=              0.9256   XZ=             -0.3092   YZ=             -0.0459

 Normal termination of Gaussian 09 at Wed Aug 26 18:15:09 2020.
