 Gaussian 09, Revision D.01,
 Gaussian 09:  ES64L-G09RevD.01 24-Apr-2013

 --------------------
 #p B2PLYPD3/Def2QZVP
 --------------------

 --------
 acrolein
 --------
 Symbolic Z-matrix:
 Charge =  0 Multiplicity = 1

                         Standard orientation:
 ---------------------------------------------------------------------
 Center     Atomic      Atomic             Coordinates (Angstroms)
 Number     Number       Type             X           Y           Z
 ---------------------------------------------------------------------
      1          6           0        0.669455    0.357497    0.020711
      2          8           0        1.788308   -0.132187   -0.020599
      3          6           0       -0.561526   -0.442949    0.005479
      4          6           0       -1.752722    0.142211   -0.017127
      5          1           0       -0.473532   -1.513926    0.075431
      6          1           0       -1.780709    1.184568   -0.012774
      7          1           0       -2.690414   -0.412959   -0.012077
      8          1           0        0.506951    1.459259    0.059833
 ---------------------------------------------------------------------

 SCF Done:  E(RB2PLYPD3) =  -191.614821421     A.U. after   12 cycles
 E2(B2PLYPD3) =    -0.2474949811D+00 E(B2PLYPD3) =    -0.19186231640222D+03

 The electronic state is 1-A.
 Alpha  occ. eigenvalues --  -19.72919 -10.71926 -10.64987 -10.64192  -1.18911
 Alpha  occ. eigenvalues --   -0.93363  -0.75523  -0.67257  -0.56796  -0.56340
 Alpha  occ. eigenvalues --   -0.50485  -0.47212  -0.46364  -0.34724  -0.33994
 Alpha virt. eigenvalues --   -0.01828   0.05795   0.07083   0.08075   0.09791
 Alpha virt. eigenvalues --    0.12613   0.13986   0.15300   0.17479   0.19911
 Alpha virt. eigenvalues --    0.20108   0.21516   0.25516   0.26371   0.29063

 Mulliken charges:
               1
     1  C    0.149596
     2  O   -0.352093
     3  C   -0.030418
     4  C   -0.132382
     5  H    0.104506
     6  H    0.083117
     7  H    0.103294
     8  H    0.074380
 Sum of Mulliken charges =   0.00000

 Dipole moment (field-independent basis, Debye):
    X=             -3.5175    Y=              0.8023    Z=              0.1374  Tot=              3.6105
 Quadrupole moment (field-independent basis, Debye-Ang):
   XX=            -27.4678   YY=            -21.7579   ZZ=            -25.1804
   XY=              1.1032   XZ=              0.1013   YZ=             -0.0863

 Normal termination of Gaussian 09 at Wed Aug 26 19:22:55 2020.
