 Gaussian 09, Revision D.01,
 Gaussian 09:  ES64L-G09RevD.01 24-Apr-2013

 --------------------
 #p B2PLYPD3/Def2QZVP
 --------------------

 --------
 acrolein
 --------
 Symbolic Z-matrix:
 Charge =  0 Multiplicity = 1

                         Standard orientation:
 ---------------------------------------------------------------------
 Center     Atomic      Atomic             Coordinates (Angstroms)
 Number     Number       Type             X           Y           Z
 ---------------------------------------------------------------------
      1          6           0        0.678398   -0.329601    0.054345
      2          8           0        1.794183    0.081707   -0.064181
      3          6           0       -0.587017    0.469603    0.023938
      4          6           0       -1.772511   -0.152493   -0.055270
      5          1           0       -0.326281    1.691737    0.191361
      6          1           0       -1.893623   -1.281852   -0.027343
      7          1           0       -2.620721    0.346490   -0.026885
      8          1           0        0.573945   -1.335081    0.238233
 ---------------------------------------------------------------------

 SCF Done:  E(RB2PLYPD3) =  -191.583296064     A.U. after   13 cycles
 E2(B2PLYPD3) =    -0.2471902056D+00 E(B2PLYPD3) =    -0.19183048626946D+03

 The electronic state is 1-A.
 Alpha  occ. eigenvalues --  -19.72676 -10.70586 -10.66504 -10.65183  -1.20393
 Alpha  occ. eigenvalues --   -0.92293  -0.76178  -0.66543  -0.57286  -0.55536
 Alpha  occ. eigenvalues --   -0.51357  -0.47107  -0.44888  -0.34729  -0.33543
 Alpha virt. eigenvalues --   -0.01515   0.05657   0.06357   0.08359   0.09425
 Alpha virt. eigenvalues --    0.12534   0.14189   0.15227   0.16907   0.19181
 Alpha virt. eigenvalues --    0.20014   0.22021   0.24828   0.26979   0.28634

 Mulliken charges:
               1
     1  C    0.167907
     2  O   -0.340650
     3  C   -0.055235
     4  C   -0.125262
     5  H    0.090863
     6  H    0.080827
     7  H    0.109442
     8  H    0.072109
 Sum of Mulliken charges =   0.00000

 Dipole moment (field-independent basis, Debye):
    X=             -3.3665    Y=             -0.7658    Z=              0.4079  Tot=              3.4765
 Quadrupole moment (field-independent basis, Debye-Ang):
   XX=            -27.3887   YY=            -21.7026   ZZ=            -25.2782
   XY=             -0.3830   XZ=              0.3917   YZ=              0.2262

 Normal termination of Gaussian 09 at Wed Aug 26 14:46:18 2020.
