 Gaussian 09, Revision D.01,
 Gaussian 09:  ES64L-G09RevD.01 24-Apr-2013

 --------------------
 #p B2PLYPD3/Def2QZVP
 --------------------

 --------
 acrolein
 --------
 Symbolic Z-matrix:
 Charge =  0 Multiplicity = 1

                         Standard orientation:
 ---------------------------------------------------------------------
 Center     Atomic      Atomic             Coordinates (Angstroms)
 Number     Number       Type             X           Y           Z
 ---------------------------------------------------------------------
      1          6           0       -0.664404    0.343315   -0.010043
      2          8           0       -1.770567   -0.143861   -0.017162
      3          6           0        0.499121   -0.408609    0.051111
      4          6           0        1.768013    0.134029   -0.032915
      5          1           0        0.397430   -1.406204    0.037405
      6          1           0        1.766710    1.159882    0.081875
      7          1           0        2.909218   -0.535850   -0.076513
      8          1           0       -0.525198    1.520651    0.045603
 ---------------------------------------------------------------------

 SCF Done:  E(RB2PLYPD3) =  -191.567629321     A.U. after   13 cycles
 E2(B2PLYPD3) =    -0.2502713037D+00 E(B2PLYPD3) =    -0.19181790062453D+03

 The electronic state is 1-A.
 Alpha  occ. eigenvalues --  -19.72659 -10.71594 -10.68440 -10.63783  -1.19783
 Alpha  occ. eigenvalues --   -0.93426  -0.75789  -0.67355  -0.56574  -0.55043
 Alpha  occ. eigenvalues --   -0.48898  -0.47467  -0.46664  -0.34049  -0.33801
 Alpha virt. eigenvalues --   -0.03144   0.04393   0.06828   0.08674   0.09707
 Alpha virt. eigenvalues --    0.11562   0.13492   0.15206   0.17924   0.19737
 Alpha virt. eigenvalues --    0.19904   0.20378   0.24670   0.25831   0.28133

 Mulliken charges:
               1
     1  C    0.154862
     2  O   -0.349258
     3  C   -0.021603
     4  C   -0.138018
     5  H    0.112850
     6  H    0.097151
     7  H    0.104081
     8  H    0.039933
 Sum of Mulliken charges =   0.00000

 Dipole moment (field-independent basis, Debye):
    X=              3.6621    Y=              0.6555    Z=              0.0685  Tot=              3.7209
 Quadrupole moment (field-independent basis, Debye-Ang):
   XX=            -26.7680   YY=            -22.2640   ZZ=            -25.4016
   XY=             -1.2934   XZ=             -0.1619   YZ=              0.1527

 Normal termination of Gaussian 09 at Wed Aug 26 12:08:40 2020.
