 Gaussian 09, Revision D.01,
 Gaussian 09:  ES64L-G09RevD.01 24-Apr-2013

 --------------------
 #p B2PLYPD3/Def2QZVP
 --------------------

 --------
 acrolein
 --------
 Symbolic Z-matrix:
 Charge =  0 Multiplicity = 1

                         Standard orientation:
 ---------------------------------------------------------------------
 Center     Atomic      Atomic             Coordinates (Angstroms)
 Number     Number       Type             X           Y           Z
 ---------------------------------------------------------------------
      1          6           0        0.679099    0.350162   -0.085962
      2          8           0        1.765158   -0.119418    0.074732
      3          6           0       -0.509043   -0.435974   -0.042239
      4          6           0       -1.769694    0.124971    0.031136
      5          1           0       -0.334608   -1.488804   -0.090519
      6          1           0       -1.822195    1.189625    0.194437
      7          1           0       -2.821603   -0.445783    0.038185
      8          1           0        0.454971    1.465351   -0.157566
 ---------------------------------------------------------------------

 SCF Done:  E(RB2PLYPD3) =  -191.599629541     A.U. after   13 cycles
 E2(B2PLYPD3) =    -0.2486400571D+00 E(B2PLYPD3) =    -0.19184826959852D+03

 The electronic state is 1-A.
 Alpha  occ. eigenvalues --  -19.72886 -10.71347 -10.67516 -10.64546  -1.20744
 Alpha  occ. eigenvalues --   -0.92274  -0.75467  -0.66722  -0.56458  -0.55466
 Alpha  occ. eigenvalues --   -0.50317  -0.47520  -0.46465  -0.34078  -0.33695
 Alpha virt. eigenvalues --   -0.02574   0.05373   0.07172   0.08370   0.09763
 Alpha virt. eigenvalues --    0.12201   0.13777   0.15365   0.17577   0.19453
 Alpha virt. eigenvalues --    0.20048   0.20833   0.25011   0.26379   0.29050

 Mulliken charges:
               1
     1  C    0.162559
     2  O   -0.341179
     3  C   -0.030320
     4  C   -0.137460
     5  H    0.106651
     6  H    0.084650
     7  H    0.101651
     8  H    0.053448
 Sum of Mulliken charges =   0.00000

 Dipole moment (field-independent basis, Debye):
    X=             -3.4356    Y=              0.6976    Z=             -0.1888  Tot=              3.5108
 Quadrupole moment (field-independent basis, Debye-Ang):
   XX=            -26.8573   YY=            -22.1737   ZZ=            -25.3735
   XY=              0.7445   XZ=             -0.7098   YZ=              0.2851

 Normal termination of Gaussian 09 at Wed Aug 26 11:32:12 2020.
