 Gaussian 09, Revision D.01,
 Gaussian 09:  ES64L-G09RevD.01 24-Apr-2013

 --------------------
 #p B2PLYPD3/Def2QZVP
 --------------------

 --------
 acrolein
 --------
 Symbolic Z-matrix:
 Charge =  0 Multiplicity = 1

                         Standard orientation:
 ---------------------------------------------------------------------
 Center     Atomic      Atomic             Coordinates (Angstroms)
 Number     Number       Type             X           Y           Z
 ---------------------------------------------------------------------
      1          6           0       -0.671004    0.343725   -0.002888
      2          8           0       -1.789581   -0.118227    0.007506
      3          6           0        0.574785   -0.457235   -0.024613
      4          6           0        1.748854    0.146880   -0.000561
      5          1           0        0.480019   -1.514435    0.044402
      6          1           0        1.839271    1.262740    0.031759
      7          1           0        2.618250   -0.422653    0.039346
      8          1           0       -0.536698    1.419941   -0.007187
 ---------------------------------------------------------------------

 SCF Done:  E(RB2PLYPD3) =  -191.614569225     A.U. after   12 cycles
 E2(B2PLYPD3) =    -0.2465197545D+00 E(B2PLYPD3) =    -0.19186108897942D+03

 The electronic state is 1-A.
 Alpha  occ. eigenvalues --  -19.72714 -10.71342 -10.65099 -10.64068  -1.19460
 Alpha  occ. eigenvalues --   -0.93275  -0.75431  -0.67274  -0.56919  -0.56374
 Alpha  occ. eigenvalues --   -0.50704  -0.47152  -0.46613  -0.34903  -0.33757
 Alpha virt. eigenvalues --   -0.01454   0.05787   0.07239   0.08154   0.09705
 Alpha virt. eigenvalues --    0.12610   0.14017   0.15340   0.17667   0.19544
 Alpha virt. eigenvalues --    0.19969   0.21819   0.25468   0.26512   0.28719

 Mulliken charges:
               1
     1  C    0.155317
     2  O   -0.348644
     3  C   -0.044880
     4  C   -0.127438
     5  H    0.105005
     6  H    0.083626
     7  H    0.102496
     8  H    0.074518
 Sum of Mulliken charges =   0.00000

 Dipole moment (field-independent basis, Debye):
    X=              3.4686    Y=              0.7467    Z=              0.0814  Tot=              3.5490
 Quadrupole moment (field-independent basis, Debye-Ang):
   XX=            -27.6066   YY=            -21.6120   ZZ=            -25.1323
   XY=             -0.9949   XZ=              0.2211   YZ=             -0.0632

 Normal termination of Gaussian 09 at Wed Aug 26 20:39:11 2020.
