 Gaussian 09, Revision D.01,
 Gaussian 09:  ES64L-G09RevD.01 24-Apr-2013

 --------------------
 #p B2PLYPD3/Def2QZVP
 --------------------

 --------
 acrolein
 --------
 Symbolic Z-matrix:
 Charge =  0 Multiplicity = 1

                         Standard orientation:
 ---------------------------------------------------------------------
 Center     Atomic      Atomic             Coordinates (Angstroms)
 Number     Number       Type             X           Y           Z
 ---------------------------------------------------------------------
      1          6           0       -0.711748    0.400521    0.057444
      2          8           0       -1.754811   -0.164886   -0.072770
      3          6           0        0.539488   -0.420217    0.049176
      4          6           0        1.794217    0.117856   -0.050402
      5          1           0        0.374277   -1.478106    0.223378
      6          1           0        1.901921    1.135125   -0.047256
      7          1           0        2.654169   -0.442173   -0.104865
      8          1           0       -0.623622    1.515280    0.173594
 ---------------------------------------------------------------------

 SCF Done:  E(RB2PLYPD3) =  -191.607193922     A.U. after   13 cycles
 E2(B2PLYPD3) =    -0.2467108120D+00 E(B2PLYPD3) =    -0.19185390473352D+03

 The electronic state is 1-A.
 Alpha  occ. eigenvalues --  -19.72981 -10.71904 -10.64734 -10.64235  -1.20892
 Alpha  occ. eigenvalues --   -0.91496  -0.75646  -0.66985  -0.56853  -0.56653
 Alpha  occ. eigenvalues --   -0.51256  -0.48074  -0.46358  -0.33924  -0.33570
 Alpha virt. eigenvalues --   -0.01573   0.05962   0.07159   0.08081   0.09783
 Alpha virt. eigenvalues --    0.12406   0.14001   0.15329   0.17761   0.19677
 Alpha virt. eigenvalues --    0.20090   0.22041   0.25256   0.26455   0.28983

 Mulliken charges:
               1
     1  C    0.157819
     2  O   -0.332928
     3  C   -0.060362
     4  C   -0.141052
     5  H    0.108952
     6  H    0.081889
     7  H    0.103339
     8  H    0.082342
 Sum of Mulliken charges =   0.00000

 Dipole moment (field-independent basis, Debye):
    X=              3.1053    Y=              0.9747    Z=              0.3396  Tot=              3.2724
 Quadrupole moment (field-independent basis, Debye-Ang):
   XX=            -26.9978   YY=            -21.7251   ZZ=            -25.2267
   XY=             -1.1821   XZ=             -0.5989   YZ=             -0.2016

 Normal termination of Gaussian 09 at Wed Aug 26 10:33:52 2020.
