 Gaussian 09, Revision D.01,
 Gaussian 09:  ES64L-G09RevD.01 24-Apr-2013

 --------------------
 #p B2PLYPD3/Def2QZVP
 --------------------

 --------
 acrolein
 --------
 Symbolic Z-matrix:
 Charge =  0 Multiplicity = 1

                         Standard orientation:
 ---------------------------------------------------------------------
 Center     Atomic      Atomic             Coordinates (Angstroms)
 Number     Number       Type             X           Y           Z
 ---------------------------------------------------------------------
      1          6           0        0.669116    0.354079    0.020898
      2          8           0        1.811880   -0.116065   -0.036424
      3          6           0       -0.602661   -0.482927    0.013634
      4          6           0       -1.763750    0.166906   -0.069081
      5          1           0       -0.523081   -1.596357    0.136001
      6          1           0       -1.829411    1.276465   -0.039278
      7          1           0       -2.505377   -0.400879    0.150102
      8          1           0        0.546596    1.420948    0.251864
 ---------------------------------------------------------------------

 SCF Done:  E(RB2PLYPD3) =  -191.590479967     A.U. after   13 cycles
 E2(B2PLYPD3) =    -0.2489281935D+00 E(B2PLYPD3) =    -0.19183940816029D+03

 The electronic state is 1-A.
 Alpha  occ. eigenvalues --  -19.73035 -10.72291 -10.65439 -10.64054  -1.17987
 Alpha  occ. eigenvalues --   -0.93125  -0.75573  -0.66535  -0.57473  -0.55416
 Alpha  occ. eigenvalues --   -0.50244  -0.47649  -0.45333  -0.34702  -0.33771
 Alpha virt. eigenvalues --   -0.01877   0.05882   0.06300   0.07671   0.09646
 Alpha virt. eigenvalues --    0.12661   0.14274   0.15318   0.17111   0.18857
 Alpha virt. eigenvalues --    0.20073   0.22557   0.24195   0.26881   0.27664

 Mulliken charges:
               1
     1  C    0.156143
     2  O   -0.352940
     3  C   -0.052109
     4  C   -0.122633
     5  H    0.101333
     6  H    0.082320
     7  H    0.101561
     8  H    0.086325
 Sum of Mulliken charges =   0.00000

 Dipole moment (field-independent basis, Debye):
    X=             -3.4280    Y=              0.7787    Z=              0.4357  Tot=              3.5422
 Quadrupole moment (field-independent basis, Debye-Ang):
   XX=            -28.4226   YY=            -21.2448   ZZ=            -25.2258
   XY=              0.9724   XZ=             -0.1942   YZ=             -0.2144

 Normal termination of Gaussian 09 at Wed Aug 26 13:09:36 2020.
