 Gaussian 09, Revision D.01,
 Gaussian 09:  ES64L-G09RevD.01 24-Apr-2013

 --------------------
 #p B2PLYPD3/Def2QZVP
 --------------------

 --------
 acrolein
 --------
 Symbolic Z-matrix:
 Charge =  0 Multiplicity = 1

                         Standard orientation:
 ---------------------------------------------------------------------
 Center     Atomic      Atomic             Coordinates (Angstroms)
 Number     Number       Type             X           Y           Z
 ---------------------------------------------------------------------
      1          6           0        0.666627    0.350797   -0.013643
      2          8           0        1.773819   -0.127057    0.036301
      3          6           0       -0.537634   -0.427491   -0.054382
      4          6           0       -1.767763    0.126865    0.009572
      5          1           0       -0.440650   -1.529551   -0.043820
      6          1           0       -1.820729    1.189729    0.044720
      7          1           0       -2.664446   -0.389629    0.156571
      8          1           0        0.567894    1.444882   -0.097160
 ---------------------------------------------------------------------

 SCF Done:  E(RB2PLYPD3) =  -191.612712745     A.U. after   12 cycles
 E2(B2PLYPD3) =    -0.2471422940D+00 E(B2PLYPD3) =    -0.19185985503880D+03

 The electronic state is 1-A.
 Alpha  occ. eigenvalues --  -19.72528 -10.71155 -10.65330 -10.64649  -1.19697
 Alpha  occ. eigenvalues --   -0.93043  -0.76395  -0.66883  -0.57090  -0.56811
 Alpha  occ. eigenvalues --   -0.50764  -0.47121  -0.46376  -0.34384  -0.33873
 Alpha virt. eigenvalues --   -0.02253   0.05828   0.07160   0.08463   0.09757
 Alpha virt. eigenvalues --    0.12551   0.14381   0.15381   0.17334   0.19509
 Alpha virt. eigenvalues --    0.20087   0.21823   0.25340   0.26221   0.29067

 Mulliken charges:
               1
     1  C    0.149950
     2  O   -0.347663
     3  C   -0.033413
     4  C   -0.125083
     5  H    0.101753
     6  H    0.078273
     7  H    0.106144
     8  H    0.070039
 Sum of Mulliken charges =   0.00000

 Dipole moment (field-independent basis, Debye):
    X=             -3.5396    Y=              0.7790    Z=              0.0135  Tot=              3.6243
 Quadrupole moment (field-independent basis, Debye-Ang):
   XX=            -27.1133   YY=            -21.8809   ZZ=            -25.1428
   XY=              1.0931   XZ=             -0.6542   YZ=             -0.0349

 Normal termination of Gaussian 09 at Wed Aug 26 08:49:45 2020.
