 Gaussian 09, Revision D.01,
 Gaussian 09:  ES64L-G09RevD.01 24-Apr-2013

 --------------------
 #p B2PLYPD3/Def2QZVP
 --------------------

 --------
 acrolein
 --------
 Symbolic Z-matrix:
 Charge =  0 Multiplicity = 1

                         Standard orientation:
 ---------------------------------------------------------------------
 Center     Atomic      Atomic             Coordinates (Angstroms)
 Number     Number       Type             X           Y           Z
 ---------------------------------------------------------------------
      1          6           0        0.660418    0.335759    0.026339
      2          8           0        1.790975   -0.112350   -0.030055
      3          6           0       -0.578247   -0.456451    0.035902
      4          6           0       -1.738904    0.147956   -0.037269
      5          1           0       -0.498544   -1.520223    0.002317
      6          1           0       -1.844287    1.220429   -0.068391
      7          1           0       -2.561336   -0.388999    0.046774
      8          1           0        0.516770    1.424012    0.109912
 ---------------------------------------------------------------------

 SCF Done:  E(RB2PLYPD3) =  -191.608701906     A.U. after   13 cycles
 E2(B2PLYPD3) =    -0.2463964660D+00 E(B2PLYPD3) =    -0.19185509837239D+03

 The electronic state is 1-A.
 Alpha  occ. eigenvalues --  -19.72723 -10.71471 -10.64052 -10.63905  -1.18993
 Alpha  occ. eigenvalues --   -0.94010  -0.76272  -0.67288  -0.57520  -0.56682
 Alpha  occ. eigenvalues --   -0.50679  -0.47679  -0.46450  -0.35099  -0.33725
 Alpha virt. eigenvalues --   -0.01610   0.05916   0.07218   0.08222   0.09756
 Alpha virt. eigenvalues --    0.12847   0.14095   0.15399   0.17480   0.19481
 Alpha virt. eigenvalues --    0.20201   0.22240   0.25476   0.26488   0.28544

 Mulliken charges:
               1
     1  C    0.151484
     2  O   -0.351851
     3  C   -0.036171
     4  C   -0.120921
     5  H    0.102475
     6  H    0.082570
     7  H    0.101154
     8  H    0.071261
 Sum of Mulliken charges =   0.00000

 Dipole moment (field-independent basis, Debye):
    X=             -3.5627    Y=              0.7126    Z=              0.1174  Tot=              3.6352
 Quadrupole moment (field-independent basis, Debye-Ang):
   XX=            -27.5740   YY=            -21.6377   ZZ=            -24.9924
   XY=              0.8712   XZ=              0.1532   YZ=             -0.0449

 Normal termination of Gaussian 09 at Wed Aug 26 09:10:51 2020.
