 Gaussian 09, Revision D.01,
 Gaussian 09:  ES64L-G09RevD.01 24-Apr-2013

 --------------------
 #p B2PLYPD3/Def2QZVP
 --------------------

 --------
 acrolein
 --------
 Symbolic Z-matrix:
 Charge =  0 Multiplicity = 1

                         Standard orientation:
 ---------------------------------------------------------------------
 Center     Atomic      Atomic             Coordinates (Angstroms)
 Number     Number       Type             X           Y           Z
 ---------------------------------------------------------------------
      1          6           0       -0.668725    0.353459   -0.018390
      2          8           0       -1.783487   -0.128493    0.014676
      3          6           0        0.553131   -0.436805   -0.016240
      4          6           0        1.753014    0.125654   -0.001555
      5          1           0        0.443616   -1.521790    0.015049
      6          1           0        1.821568    1.209654    0.049178
      7          1           0        2.659418   -0.411617    0.040337
      8          1           0       -0.481235    1.497846   -0.004863
 ---------------------------------------------------------------------

 SCF Done:  E(RB2PLYPD3) =  -191.614146853     A.U. after   12 cycles
 E2(B2PLYPD3) =    -0.2476456732D+00 E(B2PLYPD3) =    -0.19186179252651D+03

 The electronic state is 1-A.
 Alpha  occ. eigenvalues --  -19.73040 -10.72154 -10.65179 -10.64288  -1.19424
 Alpha  occ. eigenvalues --   -0.93382  -0.75772  -0.66303  -0.57041  -0.56073
 Alpha  occ. eigenvalues --   -0.50734  -0.46921  -0.46486  -0.34848  -0.33938
 Alpha virt. eigenvalues --   -0.01915   0.05770   0.07013   0.08308   0.09802
 Alpha virt. eigenvalues --    0.12560   0.13961   0.15348   0.17254   0.19838
 Alpha virt. eigenvalues --    0.19942   0.21739   0.25614   0.26311   0.28829

 Mulliken charges:
               1
     1  C    0.159248
     2  O   -0.346982
     3  C   -0.031072
     4  C   -0.125746
     5  H    0.101957
     6  H    0.078346
     7  H    0.105436
     8  H    0.058812
 Sum of Mulliken charges =   0.00000

 Dipole moment (field-independent basis, Debye):
    X=              3.5200    Y=              0.7099    Z=              0.0365  Tot=              3.5911
 Quadrupole moment (field-independent basis, Debye-Ang):
   XX=            -27.2764   YY=            -21.9217   ZZ=            -25.2022
   XY=             -0.9612   XZ=              0.2577   YZ=              0.0085

 Normal termination of Gaussian 09 at Wed Aug 26 15:23:33 2020.
