 Gaussian 09, Revision D.01,
 Gaussian 09:  ES64L-G09RevD.01 24-Apr-2013

 --------------------
 #p B2PLYPD3/Def2QZVP
 --------------------

 --------
 acrolein
 --------
 Symbolic Z-matrix:
 Charge =  0 Multiplicity = 1

                         Standard orientation:
 ---------------------------------------------------------------------
 Center     Atomic      Atomic             Coordinates (Angstroms)
 Number     Number       Type             X           Y           Z
 ---------------------------------------------------------------------
      1          6           0       -0.669141    0.343233    0.016813
      2          8           0       -1.788560   -0.110573   -0.018180
      3          6           0        0.560717   -0.468279    0.018616
      4          6           0        1.754775    0.148198   -0.019875
      5          1           0        0.426377   -1.551322    0.044171
      6          1           0        1.861443    1.281054    0.033092
      7          1           0        2.673047   -0.428652   -0.043630
      8          1           0       -0.530493    1.444598    0.018482
 ---------------------------------------------------------------------

 SCF Done:  E(RB2PLYPD3) =  -191.613928768     A.U. after   13 cycles
 E2(B2PLYPD3) =    -0.2476351281D+00 E(B2PLYPD3) =    -0.19186156389655D+03

 The electronic state is 1-A.
 Alpha  occ. eigenvalues --  -19.72661 -10.71471 -10.66304 -10.64843  -1.19563
 Alpha  occ. eigenvalues --   -0.92569  -0.74994  -0.66604  -0.56286  -0.55974
 Alpha  occ. eigenvalues --   -0.50378  -0.46924  -0.46560  -0.34535  -0.33689
 Alpha virt. eigenvalues --   -0.01744   0.05617   0.07044   0.08104   0.09659
 Alpha virt. eigenvalues --    0.12365   0.13965   0.15341   0.17432   0.19483
 Alpha virt. eigenvalues --    0.19993   0.21467   0.25244   0.26445   0.28743

 Mulliken charges:
               1
     1  C    0.159212
     2  O   -0.348075
     3  C   -0.046084
     4  C   -0.128589
     5  H    0.107415
     6  H    0.086455
     7  H    0.102164
     8  H    0.067502
 Sum of Mulliken charges =   0.00000

 Dipole moment (field-independent basis, Debye):
    X=              3.4928    Y=              0.7062    Z=              0.0951  Tot=              3.5648
 Quadrupole moment (field-independent basis, Debye-Ang):
   XX=            -27.5478   YY=            -21.6230   ZZ=            -25.3404
   XY=             -0.8232   XZ=             -0.1187   YZ=              0.0179

 Normal termination of Gaussian 09 at Wed Aug 26 15:24:50 2020.
