 Gaussian 09, Revision D.01,
 Gaussian 09:  ES64L-G09RevD.01 24-Apr-2013

 --------------------
 #p B2PLYPD3/Def2QZVP
 --------------------

 --------
 acrolein
 --------
 Symbolic Z-matrix:
 Charge =  0 Multiplicity = 1

                         Standard orientation:
 ---------------------------------------------------------------------
 Center     Atomic      Atomic             Coordinates (Angstroms)
 Number     Number       Type             X           Y           Z
 ---------------------------------------------------------------------
      1          6           0        0.669118    0.345798    0.006907
      2          8           0        1.795633   -0.113435   -0.017266
      3          6           0       -0.575614   -0.460477    0.029701
      4          6           0       -1.758173    0.142506   -0.019720
      5          1           0       -0.430679   -1.538039    0.024069
      6          1           0       -1.856781    1.247382    0.014973
      7          1           0       -2.612716   -0.404506   -0.049169
      8          1           0        0.523121    1.435688    0.046929
 ---------------------------------------------------------------------

 SCF Done:  E(RB2PLYPD3) =  -191.613010574     A.U. after   12 cycles
 E2(B2PLYPD3) =    -0.2471366181D+00 E(B2PLYPD3) =    -0.19186014719218D+03

 The electronic state is 1-A.
 Alpha  occ. eigenvalues --  -19.72809 -10.71603 -10.64999 -10.64570  -1.19100
 Alpha  occ. eigenvalues --   -0.93114  -0.75779  -0.66895  -0.57074  -0.56173
 Alpha  occ. eigenvalues --   -0.50733  -0.47151  -0.46437  -0.34802  -0.33755
 Alpha virt. eigenvalues --   -0.01684   0.05790   0.07216   0.08070   0.09713
 Alpha virt. eigenvalues --    0.12605   0.14046   0.15335   0.17349   0.19662
 Alpha virt. eigenvalues --    0.19998   0.21984   0.25324   0.26512   0.28614

 Mulliken charges:
               1
     1  C    0.159912
     2  O   -0.352303
     3  C   -0.044698
     4  C   -0.128332
     5  H    0.104612
     6  H    0.084991
     7  H    0.104830
     8  H    0.070989
 Sum of Mulliken charges =   0.00000

 Dipole moment (field-independent basis, Debye):
    X=             -3.5176    Y=              0.7356    Z=              0.0521  Tot=              3.5940
 Quadrupole moment (field-independent basis, Debye-Ang):
   XX=            -27.5630   YY=            -21.6426   ZZ=            -25.1877
   XY=              0.8268   XZ=              0.1799   YZ=              0.0488

 Normal termination of Gaussian 09 at Wed Aug 26 19:06:10 2020.
