 Gaussian 09, Revision D.01,
 Gaussian 09:  ES64L-G09RevD.01 24-Apr-2013

 --------------------
 #p B2PLYPD3/Def2QZVP
 --------------------

 --------
 acrolein
 --------
 Symbolic Z-matrix:
 Charge =  0 Multiplicity = 1

                         Standard orientation:
 ---------------------------------------------------------------------
 Center     Atomic      Atomic             Coordinates (Angstroms)
 Number     Number       Type             X           Y           Z
 ---------------------------------------------------------------------
      1          6           0        0.674104    0.342747   -0.039382
      2          8           0        1.784475   -0.100003    0.046055
      3          6           0       -0.562229   -0.477679   -0.037746
      4          6           0       -1.751848    0.159457    0.011510
      5          1           0       -0.409574   -1.563251   -0.094273
      6          1           0       -1.847630    1.242750    0.009736
      7          1           0       -2.723598   -0.376806    0.178979
      8          1           0        0.544836    1.350175   -0.069171
 ---------------------------------------------------------------------

 SCF Done:  E(RB2PLYPD3) =  -191.608449016     A.U. after   12 cycles
 E2(B2PLYPD3) =    -0.2466172498D+00 E(B2PLYPD3) =    -0.19185506626549D+03

 The electronic state is 1-A.
 Alpha  occ. eigenvalues --  -19.72442 -10.70379 -10.66171 -10.64957  -1.20073
 Alpha  occ. eigenvalues --   -0.92312  -0.75225  -0.68150  -0.56958  -0.55713
 Alpha  occ. eigenvalues --   -0.50724  -0.47164  -0.46452  -0.34378  -0.33653
 Alpha virt. eigenvalues --   -0.01567   0.05658   0.07322   0.08040   0.09588
 Alpha virt. eigenvalues --    0.12536   0.14223   0.15330   0.17627   0.19751
 Alpha virt. eigenvalues --    0.19766   0.21437   0.25131   0.26814   0.28794

 Mulliken charges:
               1
     1  C    0.158335
     2  O   -0.348697
     3  C   -0.045965
     4  C   -0.132438
     5  H    0.108709
     6  H    0.085170
     7  H    0.095264
     8  H    0.079622
 Sum of Mulliken charges =   0.00000

 Dipole moment (field-independent basis, Debye):
    X=             -3.4119    Y=              0.7995    Z=             -0.0984  Tot=              3.5057
 Quadrupole moment (field-independent basis, Debye-Ang):
   XX=            -27.5189   YY=            -21.5959   ZZ=            -25.2077
   XY=              0.6635   XZ=             -0.6541   YZ=              0.0264

 Normal termination of Gaussian 09 at Wed Aug 26 21:21:14 2020.
