 Gaussian 09, Revision D.01,
 Gaussian 09:  ES64L-G09RevD.01 24-Apr-2013

 --------------------
 #p B2PLYPD3/Def2QZVP
 --------------------

 --------
 acrolein
 --------
 Symbolic Z-matrix:
 Charge =  0 Multiplicity = 1

                         Standard orientation:
 ---------------------------------------------------------------------
 Center     Atomic      Atomic             Coordinates (Angstroms)
 Number     Number       Type             X           Y           Z
 ---------------------------------------------------------------------
      1          6           0       -0.666316    0.336623    0.008019
      2          8           0       -1.785269   -0.113666   -0.016651
      3          6           0        0.566362   -0.454380    0.033605
      4          6           0        1.753538    0.150271   -0.021378
      5          1           0        0.463932   -1.536372    0.011711
      6          1           0        1.818046    1.244123    0.032960
      7          1           0        2.623687   -0.415036   -0.056280
      8          1           0       -0.545017    1.421523    0.023342
 ---------------------------------------------------------------------

 SCF Done:  E(RB2PLYPD3) =  -191.615564726     A.U. after   12 cycles
 E2(B2PLYPD3) =    -0.2466156822D+00 E(B2PLYPD3) =    -0.19186218040851D+03

 The electronic state is 1-A.
 Alpha  occ. eigenvalues --  -19.72584 -10.71174 -10.65190 -10.64409  -1.19643
 Alpha  occ. eigenvalues --   -0.93196  -0.75722  -0.67011  -0.56980  -0.56477
 Alpha  occ. eigenvalues --   -0.50563  -0.47283  -0.46800  -0.34713  -0.33716
 Alpha virt. eigenvalues --   -0.01689   0.05842   0.07145   0.08314   0.09748
 Alpha virt. eigenvalues --    0.12638   0.14079   0.15322   0.17450   0.19782
 Alpha virt. eigenvalues --    0.19976   0.21824   0.25317   0.26424   0.28834

 Mulliken charges:
               1
     1  C    0.154067
     2  O   -0.347591
     3  C   -0.038012
     4  C   -0.131004
     5  H    0.102193
     6  H    0.087183
     7  H    0.105363
     8  H    0.067802
 Sum of Mulliken charges =   0.00000

 Dipole moment (field-independent basis, Debye):
    X=              3.5045    Y=              0.7147    Z=              0.0408  Tot=              3.5769
 Quadrupole moment (field-independent basis, Debye-Ang):
   XX=            -27.4981   YY=            -21.6661   ZZ=            -25.1528
   XY=             -0.9828   XZ=             -0.1730   YZ=              0.0864

 Normal termination of Gaussian 09 at Wed Aug 26 10:35:48 2020.
