 Gaussian 09, Revision D.01,
 Gaussian 09:  ES64L-G09RevD.01 24-Apr-2013

 --------------------
 #p B2PLYPD3/Def2QZVP
 --------------------

 --------
 acrolein
 --------
 Symbolic Z-matrix:
 Charge =  0 Multiplicity = 1

                         Standard orientation:
 ---------------------------------------------------------------------
 Center     Atomic      Atomic             Coordinates (Angstroms)
 Number     Number       Type             X           Y           Z
 ---------------------------------------------------------------------
      1          6           0        0.665160    0.341880   -0.061035
      2          8           0        1.775794   -0.091781    0.059577
      3          6           0       -0.576065   -0.499159   -0.042738
      4          6           0       -1.734104    0.153636    0.019141
      5          1           0       -0.442183   -1.584418    0.028221
      6          1           0       -1.955589    1.326545    0.258381
      7          1           0       -2.582524   -0.326435   -0.040573
      8          1           0        0.643997    1.340421   -0.214846
 ---------------------------------------------------------------------

 SCF Done:  E(RB2PLYPD3) =  -191.582886775     A.U. after   14 cycles
 E2(B2PLYPD3) =    -0.2462629801D+00 E(B2PLYPD3) =    -0.19182914975481D+03

 The electronic state is 1-A.
 Alpha  occ. eigenvalues --  -19.72056 -10.70101 -10.65373 -10.64995  -1.19938
 Alpha  occ. eigenvalues --   -0.92622  -0.75489  -0.68010  -0.57119  -0.56249
 Alpha  occ. eigenvalues --   -0.50791  -0.46880  -0.45839  -0.34574  -0.33234
 Alpha virt. eigenvalues --   -0.01251   0.05396   0.07314   0.07821   0.09522
 Alpha virt. eigenvalues --    0.12430   0.14329   0.15671   0.17446   0.18873
 Alpha virt. eigenvalues --    0.20189   0.21903   0.24910   0.26184   0.28627

 Mulliken charges:
               1
     1  C    0.158549
     2  O   -0.347115
     3  C   -0.068560
     4  C   -0.118188
     5  H    0.113471
     6  H    0.077637
     7  H    0.099670
     8  H    0.084535
 Sum of Mulliken charges =   0.00000

 Dipole moment (field-independent basis, Debye):
    X=             -3.4232    Y=              0.7110    Z=             -0.0860  Tot=              3.4973
 Quadrupole moment (field-independent basis, Debye-Ang):
   XX=            -27.4606   YY=            -21.3880   ZZ=            -25.1008
   XY=              0.7133   XZ=             -0.7115   YZ=              0.1929

 Normal termination of Gaussian 09 at Wed Aug 26 12:32:57 2020.
