 Gaussian 09, Revision D.01,
 Gaussian 09:  ES64L-G09RevD.01 24-Apr-2013

 --------------------
 #p B2PLYPD3/Def2QZVP
 --------------------

 --------
 acrolein
 --------
 Symbolic Z-matrix:
 Charge =  0 Multiplicity = 1

                         Standard orientation:
 ---------------------------------------------------------------------
 Center     Atomic      Atomic             Coordinates (Angstroms)
 Number     Number       Type             X           Y           Z
 ---------------------------------------------------------------------
      1          6           0       -0.674029    0.366770    0.046520
      2          8           0       -1.760384   -0.140915   -0.059845
      3          6           0        0.490793   -0.410721    0.114018
      4          6           0        1.760571    0.101592   -0.076896
      5          1           0        0.370898   -1.465133   -0.023845
      6          1           0        1.833464    1.165330    0.024541
      7          1           0        2.887026   -0.430851   -0.067134
      8          1           0       -0.472325    1.512122    0.043353
 ---------------------------------------------------------------------

 SCF Done:  E(RB2PLYPD3) =  -191.584626365     A.U. after   13 cycles
 E2(B2PLYPD3) =    -0.2501045744D+00 E(B2PLYPD3) =    -0.19183473093899D+03

 The electronic state is 1-A.
 Alpha  occ. eigenvalues --  -19.72830 -10.71665 -10.68006 -10.64519  -1.20212
 Alpha  occ. eigenvalues --   -0.92700  -0.75572  -0.66591  -0.56546  -0.55246
 Alpha  occ. eigenvalues --   -0.49622  -0.47523  -0.45309  -0.34375  -0.33772
 Alpha virt. eigenvalues --   -0.03036   0.05043   0.07037   0.08226   0.09714
 Alpha virt. eigenvalues --    0.11793   0.13677   0.15080   0.17874   0.19433
 Alpha virt. eigenvalues --    0.19949   0.20919   0.23885   0.26320   0.28630

 Mulliken charges:
               1
     1  C    0.157369
     2  O   -0.344193
     3  C   -0.035134
     4  C   -0.119391
     5  H    0.113240
     6  H    0.075432
     7  H    0.098561
     8  H    0.054115
 Sum of Mulliken charges =   0.00000

 Dipole moment (field-independent basis, Debye):
    X=              3.5707    Y=              0.7872    Z=              0.1192  Tot=              3.6584
 Quadrupole moment (field-independent basis, Debye-Ang):
   XX=            -26.5214   YY=            -22.3631   ZZ=            -25.4321
   XY=             -0.9397   XZ=             -0.4506   YZ=              0.1875

 Normal termination of Gaussian 09 at Wed Aug 26 13:39:23 2020.
