 Gaussian 09, Revision D.01,
 Gaussian 09:  ES64L-G09RevD.01 24-Apr-2013

 --------------------
 #p B2PLYPD3/Def2QZVP
 --------------------

 --------
 acrolein
 --------
 Symbolic Z-matrix:
 Charge =  0 Multiplicity = 1

                         Standard orientation:
 ---------------------------------------------------------------------
 Center     Atomic      Atomic             Coordinates (Angstroms)
 Number     Number       Type             X           Y           Z
 ---------------------------------------------------------------------
      1          6           0       -0.676784    0.354326   -0.003768
      2          8           0       -1.783781   -0.132053    0.026171
      3          6           0        0.557364   -0.413332   -0.040820
      4          6           0        1.760272    0.125857    0.008319
      5          1           0        0.407671   -1.481972   -0.063045
      6          1           0        1.813481    1.183779    0.005461
      7          1           0        2.705977   -0.454048    0.142038
      8          1           0       -0.501989    1.407561   -0.076203
 ---------------------------------------------------------------------

 SCF Done:  E(RB2PLYPD3) =  -191.612947931     A.U. after   12 cycles
 E2(B2PLYPD3) =    -0.2466907198D+00 E(B2PLYPD3) =    -0.19185963865046D+03

 The electronic state is 1-A.
 Alpha  occ. eigenvalues --  -19.72930 -10.71157 -10.65426 -10.63809  -1.19683
 Alpha  occ. eigenvalues --   -0.93499  -0.76018  -0.67491  -0.56845  -0.56387
 Alpha  occ. eigenvalues --   -0.51046  -0.47140  -0.46170  -0.34921  -0.33977
 Alpha virt. eigenvalues --   -0.01874   0.05710   0.07291   0.08484   0.09825
 Alpha virt. eigenvalues --    0.12543   0.13901   0.15381   0.17674   0.19610
 Alpha virt. eigenvalues --    0.19904   0.21589   0.25710   0.26627   0.28730

 Mulliken charges:
               1
     1  C    0.156271
     2  O   -0.350831
     3  C   -0.028491
     4  C   -0.134900
     5  H    0.100790
     6  H    0.080242
     7  H    0.105918
     8  H    0.071000
 Sum of Mulliken charges =   0.00000

 Dipole moment (field-independent basis, Debye):
    X=              3.4619    Y=              0.8175    Z=             -0.0118  Tot=              3.5571
 Quadrupole moment (field-independent basis, Debye-Ang):
   XX=            -27.2796   YY=            -21.9741   ZZ=            -25.0683
   XY=             -1.0358   XZ=              0.4817   YZ=             -0.0455

 Normal termination of Gaussian 09 at Wed Aug 26 09:14:00 2020.
