 Gaussian 09, Revision D.01,
 Gaussian 09:  ES64L-G09RevD.01 24-Apr-2013

 --------------------
 #p B2PLYPD3/Def2QZVP
 --------------------

 --------
 acrolein
 --------
 Symbolic Z-matrix:
 Charge =  0 Multiplicity = 1

                         Standard orientation:
 ---------------------------------------------------------------------
 Center     Atomic      Atomic             Coordinates (Angstroms)
 Number     Number       Type             X           Y           Z
 ---------------------------------------------------------------------
      1          6           0        0.650425    0.340292    0.050418
      2          8           0        1.795192   -0.105833   -0.041822
      3          6           0       -0.586775   -0.464242    0.003551
      4          6           0       -1.744339    0.151072   -0.028968
      5          1           0       -0.411129   -1.615821    0.107079
      6          1           0       -1.800180    1.270319   -0.088959
      7          1           0       -2.592543   -0.390882    0.029035
      8          1           0        0.526446    1.420312    0.137417
 ---------------------------------------------------------------------

 SCF Done:  E(RB2PLYPD3) =  -191.603942476     A.U. after   13 cycles
 E2(B2PLYPD3) =    -0.2480849569D+00 E(B2PLYPD3) =    -0.19185202743296D+03

 The electronic state is 1-A.
 Alpha  occ. eigenvalues --  -19.72730 -10.71607 -10.65217 -10.64869  -1.18134
 Alpha  occ. eigenvalues --   -0.93636  -0.75865  -0.66187  -0.57092  -0.56043
 Alpha  occ. eigenvalues --   -0.50390  -0.46413  -0.45789  -0.35100  -0.33779
 Alpha virt. eigenvalues --   -0.01720   0.05748   0.06682   0.07958   0.09681
 Alpha virt. eigenvalues --    0.12586   0.14050   0.15137   0.16894   0.19420
 Alpha virt. eigenvalues --    0.20151   0.22076   0.25171   0.26653   0.28985

 Mulliken charges:
               1
     1  C    0.157464
     2  O   -0.359640
     3  C   -0.036136
     4  C   -0.125722
     5  H    0.096961
     6  H    0.086016
     7  H    0.107945
     8  H    0.073113
 Sum of Mulliken charges =   0.00000

 Dipole moment (field-independent basis, Debye):
    X=             -3.5820    Y=              0.7448    Z=              0.2473  Tot=              3.6670
 Quadrupole moment (field-independent basis, Debye-Ang):
   XX=            -27.8696   YY=            -21.5179   ZZ=            -25.2186
   XY=              0.8026   XZ=              0.2164   YZ=             -0.2316

 Normal termination of Gaussian 09 at Wed Aug 26 21:08:14 2020.
