 Gaussian 09, Revision D.01,
 Gaussian 09:  ES64L-G09RevD.01 24-Apr-2013

 --------------------
 #p B2PLYPD3/Def2QZVP
 --------------------

 --------
 acrolein
 --------
 Symbolic Z-matrix:
 Charge =  0 Multiplicity = 1

                         Standard orientation:
 ---------------------------------------------------------------------
 Center     Atomic      Atomic             Coordinates (Angstroms)
 Number     Number       Type             X           Y           Z
 ---------------------------------------------------------------------
      1          6           0        0.705107    0.385707   -0.041904
      2          8           0        1.767451   -0.165442    0.074417
      3          6           0       -0.554320   -0.449572   -0.098531
      4          6           0       -1.760072    0.140142    0.017562
      5          1           0       -0.448339   -1.454142   -0.152658
      6          1           0       -1.826570    1.183781    0.003572
      7          1           0       -2.762332   -0.474657    0.374018
      8          1           0        0.553342    1.610893   -0.083036
 ---------------------------------------------------------------------

 SCF Done:  E(RB2PLYPD3) =  -191.586061448     A.U. after   13 cycles
 E2(B2PLYPD3) =    -0.2490580488D+00 E(B2PLYPD3) =    -0.19183511949717D+03

 The electronic state is 1-A.
 Alpha  occ. eigenvalues --  -19.73481 -10.73380 -10.66283 -10.64232  -1.20592
 Alpha  occ. eigenvalues --   -0.92033  -0.73563  -0.66798  -0.55966  -0.55345
 Alpha  occ. eigenvalues --   -0.50338  -0.47512  -0.46475  -0.34304  -0.33490
 Alpha virt. eigenvalues --   -0.01530   0.05312   0.06765   0.07515   0.09773
 Alpha virt. eigenvalues --    0.11672   0.13443   0.15339   0.17710   0.19153
 Alpha virt. eigenvalues --    0.20123   0.21251   0.24648   0.26071   0.28547

 Mulliken charges:
               1
     1  C    0.160371
     2  O   -0.330687
     3  C   -0.053535
     4  C   -0.131254
     5  H    0.120018
     6  H    0.087688
     7  H    0.089858
     8  H    0.057540
 Sum of Mulliken charges =   0.00000

 Dipole moment (field-independent basis, Debye):
    X=             -3.0996    Y=              0.8136    Z=             -0.0391  Tot=              3.2049
 Quadrupole moment (field-independent basis, Debye-Ang):
   XX=            -27.5570   YY=            -21.8755   ZZ=            -25.3630
   XY=              1.1144   XZ=             -1.1899   YZ=             -0.0718

 Normal termination of Gaussian 09 at Wed Aug 26 15:03:45 2020.
