 Gaussian 09, Revision D.01,
 Gaussian 09:  ES64L-G09RevD.01 24-Apr-2013

 --------------------
 #p B2PLYPD3/Def2QZVP
 --------------------

 --------
 acrolein
 --------
 Symbolic Z-matrix:
 Charge =  0 Multiplicity = 1

                         Standard orientation:
 ---------------------------------------------------------------------
 Center     Atomic      Atomic             Coordinates (Angstroms)
 Number     Number       Type             X           Y           Z
 ---------------------------------------------------------------------
      1          6           0        0.671513    0.347464   -0.013506
      2          8           0        1.786126   -0.107462    0.015673
      3          6           0       -0.565881   -0.463352   -0.018819
      4          6           0       -1.749935    0.148692    0.003334
      5          1           0       -0.426238   -1.569835    0.011001
      6          1           0       -1.891671    1.256330    0.058449
      7          1           0       -2.640326   -0.412106    0.022675
      8          1           0        0.535046    1.388485   -0.043559
 ---------------------------------------------------------------------

 SCF Done:  E(RB2PLYPD3) =  -191.612935340     A.U. after   12 cycles
 E2(B2PLYPD3) =    -0.2465351666D+00 E(B2PLYPD3) =    -0.19185947050679D+03

 The electronic state is 1-A.
 Alpha  occ. eigenvalues --  -19.72554 -10.70806 -10.65457 -10.64787  -1.19746
 Alpha  occ. eigenvalues --   -0.92743  -0.75561  -0.67262  -0.56753  -0.56225
 Alpha  occ. eigenvalues --   -0.50711  -0.46825  -0.46565  -0.34667  -0.33726
 Alpha virt. eigenvalues --   -0.01493   0.05728   0.07185   0.08169   0.09641
 Alpha virt. eigenvalues --    0.12608   0.14190   0.15376   0.17410   0.19525
 Alpha virt. eigenvalues --    0.20032   0.21802   0.25405   0.26635   0.28475

 Mulliken charges:
               1
     1  C    0.159482
     2  O   -0.349242
     3  C   -0.048006
     4  C   -0.130147
     5  H    0.103929
     6  H    0.084628
     7  H    0.101050
     8  H    0.078305
 Sum of Mulliken charges =   0.00000

 Dipole moment (field-independent basis, Debye):
    X=             -3.4604    Y=              0.7775    Z=              0.0137  Tot=              3.5467
 Quadrupole moment (field-independent basis, Debye-Ang):
   XX=            -27.5216   YY=            -21.5536   ZZ=            -25.1985
   XY=              0.7478   XZ=             -0.2452   YZ=              0.0185

 Normal termination of Gaussian 09 at Wed Aug 26 16:35:37 2020.
