 Gaussian 09, Revision D.01,
 Gaussian 09:  ES64L-G09RevD.01 24-Apr-2013

 --------------------
 #p B2PLYPD3/Def2QZVP
 --------------------

 --------
 acrolein
 --------
 Symbolic Z-matrix:
 Charge =  0 Multiplicity = 1

                         Standard orientation:
 ---------------------------------------------------------------------
 Center     Atomic      Atomic             Coordinates (Angstroms)
 Number     Number       Type             X           Y           Z
 ---------------------------------------------------------------------
      1          6           0       -0.677353    0.351928   -0.011071
      2          8           0       -1.786086   -0.126395   -0.000521
      3          6           0        0.561936   -0.446692    0.012642
      4          6           0        1.753207    0.133420   -0.008090
      5          1           0        0.478451   -1.484556    0.017011
      6          1           0        1.836979    1.229174    0.041731
      7          1           0        2.666055   -0.402846   -0.032269
      8          1           0       -0.519537    1.437450    0.016814
 ---------------------------------------------------------------------

 SCF Done:  E(RB2PLYPD3) =  -191.615826085     A.U. after   12 cycles
 E2(B2PLYPD3) =    -0.2464646661D+00 E(B2PLYPD3) =    -0.19186229075090D+03

 The electronic state is 1-A.
 Alpha  occ. eigenvalues --  -19.72851 -10.71533 -10.65140 -10.63787  -1.19743
 Alpha  occ. eigenvalues --   -0.93178  -0.75482  -0.67535  -0.56858  -0.56554
 Alpha  occ. eigenvalues --   -0.50938  -0.47069  -0.46760  -0.34778  -0.33889
 Alpha virt. eigenvalues --   -0.01580   0.05786   0.07385   0.08215   0.09719
 Alpha virt. eigenvalues --    0.12585   0.14157   0.15391   0.17751   0.19739
 Alpha virt. eigenvalues --    0.19941   0.21576   0.25585   0.26418   0.28797

 Mulliken charges:
               1
     1  C    0.154988
     2  O   -0.345851
     3  C   -0.042081
     4  C   -0.128286
     5  H    0.107368
     6  H    0.077619
     7  H    0.101396
     8  H    0.074846
 Sum of Mulliken charges =   0.00000

 Dipole moment (field-independent basis, Debye):
    X=              3.4486    Y=              0.7667    Z=              0.0148  Tot=              3.5329
 Quadrupole moment (field-independent basis, Debye-Ang):
   XX=            -27.3314   YY=            -21.7884   ZZ=            -25.1172
   XY=             -1.0276   XZ=             -0.0164   YZ=              0.0614

 Normal termination of Gaussian 09 at Wed Aug 26 20:16:11 2020.
