 Gaussian 09, Revision D.01,
 Gaussian 09:  ES64L-G09RevD.01 24-Apr-2013

 --------------------
 #p B2PLYPD3/Def2QZVP
 --------------------

 --------
 acrolein
 --------
 Symbolic Z-matrix:
 Charge =  0 Multiplicity = 1

                         Standard orientation:
 ---------------------------------------------------------------------
 Center     Atomic      Atomic             Coordinates (Angstroms)
 Number     Number       Type             X           Y           Z
 ---------------------------------------------------------------------
      1          6           0        0.686510    0.356553    0.032619
      2          8           0        1.777560   -0.152381   -0.022925
      3          6           0       -0.556031   -0.400221    0.013860
      4          6           0       -1.753668    0.132745   -0.053936
      5          1           0       -0.455374   -1.390200    0.011815
      6          1           0       -1.654452    1.070676   -0.089253
      7          1           0       -2.825687   -0.439681    0.186196
      8          1           0        0.454165    1.443797    0.119383
 ---------------------------------------------------------------------

 SCF Done:  E(RB2PLYPD3) =  -191.569759791     A.U. after   13 cycles
 E2(B2PLYPD3) =    -0.2471809824D+00 E(B2PLYPD3) =    -0.19181694077305D+03

 The electronic state is 1-A.
 Alpha  occ. eigenvalues --  -19.73387 -10.71869 -10.64864 -10.62570  -1.20271
 Alpha  occ. eigenvalues --   -0.94596  -0.75884  -0.68813  -0.57133  -0.55669
 Alpha  occ. eigenvalues --   -0.50714  -0.47317  -0.46902  -0.35044  -0.34097
 Alpha virt. eigenvalues --   -0.02014   0.05469   0.07285   0.08432   0.09928
 Alpha virt. eigenvalues --    0.12376   0.13574   0.15322   0.17934   0.19097
 Alpha virt. eigenvalues --    0.20447   0.21481   0.25395   0.26443   0.28055

 Mulliken charges:
               1
     1  C    0.137833
     2  O   -0.341004
     3  C   -0.007365
     4  C   -0.148390
     5  H    0.102999
     6  H    0.084922
     7  H    0.107597
     8  H    0.063408
 Sum of Mulliken charges =   0.00000

 Dipole moment (field-independent basis, Debye):
    X=             -3.3347    Y=              0.7845    Z=              0.2338  Tot=              3.4337
 Quadrupole moment (field-independent basis, Debye-Ang):
   XX=            -27.0464   YY=            -22.3132   ZZ=            -24.9392
   XY=              1.3532   XZ=             -0.3058   YZ=             -0.1714

 Normal termination of Gaussian 09 at Wed Aug 26 11:20:40 2020.
