 Gaussian 09, Revision D.01,
 Gaussian 09:  ES64L-G09RevD.01 24-Apr-2013

 --------------------
 #p B2PLYPD3/Def2QZVP
 --------------------

 --------
 acrolein
 --------
 Symbolic Z-matrix:
 Charge =  0 Multiplicity = 1

                         Standard orientation:
 ---------------------------------------------------------------------
 Center     Atomic      Atomic             Coordinates (Angstroms)
 Number     Number       Type             X           Y           Z
 ---------------------------------------------------------------------
      1          6           0        0.689510    0.377793   -0.015354
      2          8           0        1.758911   -0.143940    0.021264
      3          6           0       -0.548746   -0.444904   -0.020011
      4          6           0       -1.748496    0.142921    0.002826
      5          1           0       -0.433548   -1.490438   -0.063157
      6          1           0       -1.783091    1.191421   -0.018126
      7          1           0       -2.746443   -0.438219    0.118401
      8          1           0        0.538186    1.433898   -0.011995
 ---------------------------------------------------------------------

 SCF Done:  E(RB2PLYPD3) =  -191.610049062     A.U. after   12 cycles
 E2(B2PLYPD3) =    -0.2460408036D+00 E(B2PLYPD3) =    -0.19185608986549D+03

 The electronic state is 1-A.
 Alpha  occ. eigenvalues --  -19.72764 -10.71124 -10.65438 -10.63761  -1.20863
 Alpha  occ. eigenvalues --   -0.92465  -0.74632  -0.68076  -0.57100  -0.55738
 Alpha  occ. eigenvalues --   -0.50701  -0.47527  -0.46722  -0.34373  -0.33809
 Alpha virt. eigenvalues --   -0.01155   0.05716   0.07359   0.08040   0.09806
 Alpha virt. eigenvalues --    0.12401   0.13956   0.15440   0.17893   0.19754
 Alpha virt. eigenvalues --    0.19953   0.21258   0.25666   0.26462   0.28993

 Mulliken charges:
               1
     1  C    0.151471
     2  O   -0.337960
     3  C   -0.049589
     4  C   -0.138701
     5  H    0.111788
     6  H    0.082337
     7  H    0.096479
     8  H    0.084175
 Sum of Mulliken charges =   0.00000

 Dipole moment (field-independent basis, Debye):
    X=             -3.1768    Y=              0.8997    Z=             -0.0367  Tot=              3.3019
 Quadrupole moment (field-independent basis, Debye-Ang):
   XX=            -27.3813   YY=            -21.6665   ZZ=            -25.1740
   XY=              1.1725   XZ=             -0.3434   YZ=             -0.0160

 Normal termination of Gaussian 09 at Wed Aug 26 08:37:01 2020.
