 Gaussian 09, Revision D.01,
 Gaussian 09:  ES64L-G09RevD.01 24-Apr-2013

 --------------------
 #p B2PLYPD3/Def2QZVP
 --------------------

 --------
 acrolein
 --------
 Symbolic Z-matrix:
 Charge =  0 Multiplicity = 1

                         Standard orientation:
 ---------------------------------------------------------------------
 Center     Atomic      Atomic             Coordinates (Angstroms)
 Number     Number       Type             X           Y           Z
 ---------------------------------------------------------------------
      1          6           0       -0.648034    0.360236   -0.049692
      2          8           0       -1.784995   -0.138214    0.063017
      3          6           0        0.589957   -0.437594   -0.077023
      4          6           0        1.722162    0.151950    0.053812
      5          1           0        0.443664   -1.513681   -0.153412
      6          1           0        1.746489    1.056745   -0.135910
      7          1           0        2.644692   -0.366413    0.266565
      8          1           0       -0.539400    1.481509   -0.043961
 ---------------------------------------------------------------------

 SCF Done:  E(RB2PLYPD3) =  -191.583966725     A.U. after   14 cycles
 E2(B2PLYPD3) =    -0.2477060449D+00 E(B2PLYPD3) =    -0.19183167276977D+03

 The electronic state is 1-A.
 Alpha  occ. eigenvalues --  -19.72841 -10.72257 -10.64042 -10.62991  -1.17406
 Alpha  occ. eigenvalues --   -0.95162  -0.76141  -0.67830  -0.57800  -0.56746
 Alpha  occ. eigenvalues --   -0.50193  -0.48216  -0.45371  -0.35073  -0.33788
 Alpha virt. eigenvalues --   -0.01698   0.05876   0.06986   0.07686   0.09910
 Alpha virt. eigenvalues --    0.12538   0.14149   0.15153   0.16750   0.19626
 Alpha virt. eigenvalues --    0.21275   0.22315   0.24591   0.26622   0.28849

 Mulliken charges:
               1
     1  C    0.146228
     2  O   -0.366426
     3  C   -0.015902
     4  C   -0.142497
     5  H    0.105022
     6  H    0.100686
     7  H    0.098949
     8  H    0.073940
 Sum of Mulliken charges =   0.00000

 Dipole moment (field-independent basis, Debye):
    X=              3.6194    Y=              0.8392    Z=             -0.2418  Tot=              3.7232
 Quadrupole moment (field-independent basis, Debye-Ang):
   XX=            -27.6406   YY=            -21.7737   ZZ=            -24.8341
   XY=             -1.0663   XZ=              0.6469   YZ=             -0.1156

 Normal termination of Gaussian 09 at Wed Aug 26 10:50:53 2020.
