 Gaussian 09, Revision D.01,
 Gaussian 09:  ES64L-G09RevD.01 24-Apr-2013

 --------------------
 #p B2PLYPD3/Def2QZVP
 --------------------

 --------
 acrolein
 --------
 Symbolic Z-matrix:
 Charge =  0 Multiplicity = 1

                         Standard orientation:
 ---------------------------------------------------------------------
 Center     Atomic      Atomic             Coordinates (Angstroms)
 Number     Number       Type             X           Y           Z
 ---------------------------------------------------------------------
      1          6           0       -0.667186   -0.318526   -0.043041
      2          8           0       -1.779327    0.082405    0.043770
      3          6           0        0.569527    0.501785   -0.050978
      4          6           0        1.743835   -0.194885    0.036559
      5          1           0        0.451551    1.650595   -0.085767
      6          1           0        1.733250   -1.238934   -0.162858
      7          1           0        2.749635    0.314691    0.211557
      8          1           0       -0.576874   -1.315840    0.031664
 ---------------------------------------------------------------------

 SCF Done:  E(RB2PLYPD3) =  -191.595991343     A.U. after   14 cycles
 E2(B2PLYPD3) =    -0.2468759955D+00 E(B2PLYPD3) =    -0.19184286733876D+03

 The electronic state is 1-A.
 Alpha  occ. eigenvalues --  -19.72103 -10.69932 -10.66415 -10.65811  -1.20747
 Alpha  occ. eigenvalues --   -0.92090  -0.74749  -0.67887  -0.57032  -0.55521
 Alpha  occ. eigenvalues --   -0.50033  -0.47666  -0.46707  -0.33976  -0.33409
 Alpha virt. eigenvalues --   -0.01603   0.05749   0.06934   0.07905   0.09565
 Alpha virt. eigenvalues --    0.12582   0.14343   0.15347   0.17132   0.19509
 Alpha virt. eigenvalues --    0.20598   0.21190   0.24365   0.26602   0.29152

 Mulliken charges:
               1
     1  C    0.155739
     2  O   -0.339671
     3  C   -0.042303
     4  C   -0.138216
     5  H    0.101720
     6  H    0.094978
     7  H    0.099532
     8  H    0.068222
 Sum of Mulliken charges =   0.00000

 Dipole moment (field-independent basis, Debye):
    X=              3.4065    Y=             -0.7029    Z=             -0.1679  Tot=              3.4823
 Quadrupole moment (field-independent basis, Debye-Ang):
   XX=            -27.5578   YY=            -21.5708   ZZ=            -25.2354
   XY=              0.7834   XZ=              0.4511   YZ=              0.1790

 Normal termination of Gaussian 09 at Wed Aug 26 14:02:53 2020.
