 Gaussian 09, Revision D.01,
 Gaussian 09:  ES64L-G09RevD.01 24-Apr-2013

 --------------------
 #p B2PLYPD3/Def2QZVP
 --------------------

 --------
 acrolein
 --------
 Symbolic Z-matrix:
 Charge =  0 Multiplicity = 1

                         Standard orientation:
 ---------------------------------------------------------------------
 Center     Atomic      Atomic             Coordinates (Angstroms)
 Number     Number       Type             X           Y           Z
 ---------------------------------------------------------------------
      1          6           0        0.670318    0.336321   -0.024355
      2          8           0        1.787935   -0.108533    0.026817
      3          6           0       -0.563590   -0.449661   -0.024170
      4          6           0       -1.755097    0.145977    0.008534
      5          1           0       -0.432801   -1.568429   -0.043237
      6          1           0       -1.840879    1.226357    0.020578
      7          1           0       -2.661048   -0.397845    0.089048
      8          1           0        0.521462    1.412358   -0.040978
 ---------------------------------------------------------------------

 SCF Done:  E(RB2PLYPD3) =  -191.615537197     A.U. after   12 cycles
 E2(B2PLYPD3) =    -0.2467255082D+00 E(B2PLYPD3) =    -0.19186226270511D+03

 The electronic state is 1-A.
 Alpha  occ. eigenvalues --  -19.72695 -10.71148 -10.65350 -10.64807  -1.19844
 Alpha  occ. eigenvalues --   -0.93063  -0.75825  -0.66748  -0.56860  -0.56425
 Alpha  occ. eigenvalues --   -0.50760  -0.47039  -0.46515  -0.34762  -0.33779
 Alpha virt. eigenvalues --   -0.01743   0.05802   0.07073   0.08410   0.09707
 Alpha virt. eigenvalues --    0.12651   0.14180   0.15335   0.17259   0.19825
 Alpha virt. eigenvalues --    0.19925   0.21783   0.25459   0.26514   0.28703

 Mulliken charges:
               1
     1  C    0.157064
     2  O   -0.346440
     3  C   -0.034015
     4  C   -0.130354
     5  H    0.098162
     6  H    0.084141
     7  H    0.104912
     8  H    0.066530
 Sum of Mulliken charges =   0.00000

 Dipole moment (field-independent basis, Debye):
    X=             -3.5044    Y=              0.7298    Z=             -0.0436  Tot=              3.5798
 Quadrupole moment (field-independent basis, Debye-Ang):
   XX=            -27.3483   YY=            -21.7877   ZZ=            -25.1779
   XY=              0.7987   XZ=             -0.3691   YZ=              0.0180

 Normal termination of Gaussian 09 at Wed Aug 26 19:34:31 2020.
