 Gaussian 09, Revision D.01,
 Gaussian 09:  ES64L-G09RevD.01 24-Apr-2013

 --------------------
 #p B2PLYPD3/Def2QZVP
 --------------------

 --------
 acrolein
 --------
 Symbolic Z-matrix:
 Charge =  0 Multiplicity = 1

                         Standard orientation:
 ---------------------------------------------------------------------
 Center     Atomic      Atomic             Coordinates (Angstroms)
 Number     Number       Type             X           Y           Z
 ---------------------------------------------------------------------
      1          6           0       -0.678378    0.353671    0.017287
      2          8           0       -1.785735   -0.123332   -0.023002
      3          6           0        0.565042   -0.447630    0.021641
      4          6           0        1.764249    0.139044   -0.023818
      5          1           0        0.437444   -1.556102    0.035925
      6          1           0        1.852501    1.229604   -0.039060
      7          1           0        2.638049   -0.408970    0.009418
      8          1           0       -0.547590    1.451613    0.087074
 ---------------------------------------------------------------------

 SCF Done:  E(RB2PLYPD3) =  -191.614779859     A.U. after   12 cycles
 E2(B2PLYPD3) =    -0.2469319533D+00 E(B2PLYPD3) =    -0.19186171181277D+03

 The electronic state is 1-A.
 Alpha  occ. eigenvalues --  -19.72822 -10.71609 -10.65030 -10.64790  -1.19801
 Alpha  occ. eigenvalues --   -0.92722  -0.75602  -0.66546  -0.56829  -0.56389
 Alpha  occ. eigenvalues --   -0.50828  -0.46902  -0.46622  -0.34618  -0.33819
 Alpha virt. eigenvalues --   -0.01656   0.05840   0.07093   0.08208   0.09726
 Alpha virt. eigenvalues --    0.12547   0.14131   0.15415   0.17238   0.19596
 Alpha virt. eigenvalues --    0.20030   0.21933   0.25438   0.26386   0.28745

 Mulliken charges:
               1
     1  C    0.158354
     2  O   -0.344272
     3  C   -0.044821
     4  C   -0.130110
     5  H    0.101201
     6  H    0.082357
     7  H    0.106032
     8  H    0.071259
 Sum of Mulliken charges =   0.00000

 Dipole moment (field-independent basis, Debye):
    X=              3.4233    Y=              0.7727    Z=              0.1055  Tot=              3.5110
 Quadrupole moment (field-independent basis, Debye-Ang):
   XX=            -27.3893   YY=            -21.6981   ZZ=            -25.2332
   XY=             -0.9529   XZ=             -0.1392   YZ=             -0.0562

 Normal termination of Gaussian 09 at Wed Aug 26 16:25:34 2020.
