 Gaussian 09, Revision D.01,
 Gaussian 09:  ES64L-G09RevD.01 24-Apr-2013

 --------------------
 #p B2PLYPD3/Def2QZVP
 --------------------

 --------
 acrolein
 --------
 Symbolic Z-matrix:
 Charge =  0 Multiplicity = 1

                         Standard orientation:
 ---------------------------------------------------------------------
 Center     Atomic      Atomic             Coordinates (Angstroms)
 Number     Number       Type             X           Y           Z
 ---------------------------------------------------------------------
      1          6           0       -0.689524    0.334415    0.086532
      2          8           0       -1.795372   -0.104733   -0.083847
      3          6           0        0.569610   -0.478015    0.032985
      4          6           0        1.778859    0.134806   -0.027127
      5          1           0        0.429961   -1.432039    0.153135
      6          1           0        1.912509    1.302736   -0.233519
      7          1           0        2.574650   -0.416451   -0.061243
      8          1           0       -0.507819    1.436381    0.258059
 ---------------------------------------------------------------------

 SCF Done:  E(RB2PLYPD3) =  -191.586341057     A.U. after   13 cycles
 E2(B2PLYPD3) =    -0.2472531867D+00 E(B2PLYPD3) =    -0.19183359424390D+03

 The electronic state is 1-A.
 Alpha  occ. eigenvalues --  -19.73082 -10.71835 -10.65567 -10.63881  -1.20167
 Alpha  occ. eigenvalues --   -0.92592  -0.76001  -0.67572  -0.57577  -0.55443
 Alpha  occ. eigenvalues --   -0.51363  -0.47722  -0.46682  -0.34363  -0.33610
 Alpha virt. eigenvalues --   -0.01803   0.05656   0.07525   0.07762   0.09659
 Alpha virt. eigenvalues --    0.12502   0.13765   0.15142   0.18051   0.18874
 Alpha virt. eigenvalues --    0.20045   0.21986   0.24236   0.26894   0.28573

 Mulliken charges:
               1
     1  C    0.160191
     2  O   -0.338488
     3  C   -0.060704
     4  C   -0.126642
     5  H    0.110927
     6  H    0.081554
     7  H    0.105183
     8  H    0.067980
 Sum of Mulliken charges =   0.00000

 Dipole moment (field-independent basis, Debye):
    X=              3.3582    Y=              0.6208    Z=              0.2634  Tot=              3.4253
 Quadrupole moment (field-independent basis, Debye-Ang):
   XX=            -27.4649   YY=            -21.7697   ZZ=            -25.1509
   XY=             -0.7053   XZ=             -0.8461   YZ=             -0.4018

 Normal termination of Gaussian 09 at Wed Aug 26 15:05:58 2020.
