 Gaussian 09, Revision D.01,
 Gaussian 09:  ES64L-G09RevD.01 24-Apr-2013

 --------------------
 #p B2PLYPD3/Def2QZVP
 --------------------

 --------
 acrolein
 --------
 Symbolic Z-matrix:
 Charge =  0 Multiplicity = 1

                         Standard orientation:
 ---------------------------------------------------------------------
 Center     Atomic      Atomic             Coordinates (Angstroms)
 Number     Number       Type             X           Y           Z
 ---------------------------------------------------------------------
      1          6           0        0.690445    0.383122   -0.028281
      2          8           0        1.766953   -0.167215    0.027265
      3          6           0       -0.564237   -0.406291   -0.025124
      4          6           0       -1.753065    0.103728    0.007850
      5          1           0       -0.498256   -1.347825    0.022668
      6          1           0       -1.756774    1.158390    0.176336
      7          1           0       -2.604590   -0.436676   -0.038873
      8          1           0        0.485135    1.480481   -0.104923
 ---------------------------------------------------------------------

 SCF Done:  E(RB2PLYPD3) =  -191.590294409     A.U. after   13 cycles
 E2(B2PLYPD3) =    -0.2457588383D+00 E(B2PLYPD3) =    -0.19183605324726D+03

 The electronic state is 1-A.
 Alpha  occ. eigenvalues --  -19.73340 -10.72129 -10.63356 -10.61724  -1.19936
 Alpha  occ. eigenvalues --   -0.94297  -0.75850  -0.68739  -0.58236  -0.56388
 Alpha  occ. eigenvalues --   -0.51760  -0.47497  -0.46755  -0.35034  -0.34053
 Alpha virt. eigenvalues --   -0.01362   0.05954   0.07689   0.08154   0.09967
 Alpha virt. eigenvalues --    0.12699   0.13749   0.15554   0.18141   0.19266
 Alpha virt. eigenvalues --    0.20267   0.21853   0.25579   0.26690   0.28893

 Mulliken charges:
               1
     1  C    0.153141
     2  O   -0.342036
     3  C   -0.040552
     4  C   -0.129344
     5  H    0.108886
     6  H    0.068692
     7  H    0.102770
     8  H    0.078444
 Sum of Mulliken charges =   0.00000

 Dipole moment (field-independent basis, Debye):
    X=             -3.2527    Y=              0.8454    Z=              0.0047  Tot=              3.3608
 Quadrupole moment (field-independent basis, Debye-Ang):
   XX=            -27.2882   YY=            -21.9380   ZZ=            -24.7993
   XY=              1.4933   XZ=             -0.2986   YZ=              0.1357

 Normal termination of Gaussian 09 at Wed Aug 26 12:27:03 2020.
