 Gaussian 09, Revision D.01,
 Gaussian 09:  ES64L-G09RevD.01 24-Apr-2013

 --------------------
 #p B2PLYPD3/Def2QZVP
 --------------------

 --------
 acrolein
 --------
 Symbolic Z-matrix:
 Charge =  0 Multiplicity = 1

                         Standard orientation:
 ---------------------------------------------------------------------
 Center     Atomic      Atomic             Coordinates (Angstroms)
 Number     Number       Type             X           Y           Z
 ---------------------------------------------------------------------
      1          6           0        0.632648    0.330467    0.072431
      2          8           0        1.811867   -0.091351   -0.061225
      3          6           0       -0.606467   -0.493557    0.029739
      4          6           0       -1.728959    0.158536   -0.070492
      5          1           0       -0.378103   -1.668563    0.072820
      6          1           0       -1.792807    1.323513   -0.156749
      7          1           0       -2.587708   -0.368435    0.146126
      8          1           0        0.480341    1.471615    0.237537
 ---------------------------------------------------------------------

 SCF Done:  E(RB2PLYPD3) =  -191.585725974     A.U. after   14 cycles
 E2(B2PLYPD3) =    -0.2510369887D+00 E(B2PLYPD3) =    -0.19183676296240D+03

 The electronic state is 1-A.
 Alpha  occ. eigenvalues --  -19.73015 -10.72768 -10.65932 -10.65581  -1.16632
 Alpha  occ. eigenvalues --   -0.93916  -0.75177  -0.64906  -0.56606  -0.54942
 Alpha  occ. eigenvalues --   -0.49834  -0.45957  -0.44966  -0.35239  -0.33623
 Alpha virt. eigenvalues --   -0.02168   0.05321   0.06296   0.07487   0.09625
 Alpha virt. eigenvalues --    0.12204   0.13757   0.15288   0.16162   0.18668
 Alpha virt. eigenvalues --    0.20081   0.22021   0.24784   0.26555   0.28605

 Mulliken charges:
               1
     1  C    0.161714
     2  O   -0.368790
     3  C   -0.042619
     4  C   -0.108802
     5  H    0.105770
     6  H    0.083880
     7  H    0.103997
     8  H    0.064850
 Sum of Mulliken charges =   0.00000

 Dipole moment (field-independent basis, Debye):
    X=             -3.6709    Y=              0.6312    Z=              0.3636  Tot=              3.7425
 Quadrupole moment (field-independent basis, Debye-Ang):
   XX=            -28.4089   YY=            -21.3992   ZZ=            -25.4006
   XY=              0.4736   XZ=              0.1353   YZ=             -0.2651

 Normal termination of Gaussian 09 at Wed Aug 26 12:34:29 2020.
