 Gaussian 09, Revision D.01,
 Gaussian 09:  ES64L-G09RevD.01 24-Apr-2013

 --------------------
 #p B2PLYPD3/Def2QZVP
 --------------------

 --------
 acrolein
 --------
 Symbolic Z-matrix:
 Charge =  0 Multiplicity = 1

                         Standard orientation:
 ---------------------------------------------------------------------
 Center     Atomic      Atomic             Coordinates (Angstroms)
 Number     Number       Type             X           Y           Z
 ---------------------------------------------------------------------
      1          6           0        0.681096    0.355029   -0.057499
      2          8           0        1.778578   -0.136411    0.042545
      3          6           0       -0.542048   -0.423818   -0.018770
      4          6           0       -1.768368    0.116076    0.028736
      5          1           0       -0.409197   -1.482396   -0.045421
      6          1           0       -1.851679    1.207481    0.119011
      7          1           0       -2.704568   -0.440597   -0.043910
      8          1           0        0.512739    1.523073   -0.084838
 ---------------------------------------------------------------------

 SCF Done:  E(RB2PLYPD3) =  -191.611327380     A.U. after   13 cycles
 E2(B2PLYPD3) =    -0.2479040841D+00 E(B2PLYPD3) =    -0.19185923146451D+03

 The electronic state is 1-A.
 Alpha  occ. eigenvalues --  -19.73127 -10.72221 -10.65951 -10.64236  -1.20051
 Alpha  occ. eigenvalues --   -0.92855  -0.75578  -0.66157  -0.56772  -0.55923
 Alpha  occ. eigenvalues --   -0.50798  -0.47162  -0.46442  -0.34586  -0.33844
 Alpha virt. eigenvalues --   -0.02153   0.05692   0.07100   0.08371   0.09825
 Alpha virt. eigenvalues --    0.12291   0.13815   0.15452   0.17399   0.19540
 Alpha virt. eigenvalues --    0.19919   0.21526   0.25469   0.26288   0.28948

 Mulliken charges:
               1
     1  C    0.163513
     2  O   -0.341003
     3  C   -0.035731
     4  C   -0.128870
     5  H    0.104579
     6  H    0.079468
     7  H    0.106741
     8  H    0.051303
 Sum of Mulliken charges =   0.00000

 Dipole moment (field-independent basis, Debye):
    X=             -3.4485    Y=              0.6991    Z=             -0.1596  Tot=              3.5223
 Quadrupole moment (field-independent basis, Debye-Ang):
   XX=            -27.0394   YY=            -22.0811   ZZ=            -25.2743
   XY=              0.9874   XZ=             -0.2365   YZ=              0.2001

 Normal termination of Gaussian 09 at Wed Aug 26 21:21:06 2020.
