 Gaussian 09, Revision D.01,
 Gaussian 09:  ES64L-G09RevD.01 24-Apr-2013

 --------------------
 #p B2PLYPD3/Def2QZVP
 --------------------

 --------
 acrolein
 --------
 Symbolic Z-matrix:
 Charge =  0 Multiplicity = 1

                         Standard orientation:
 ---------------------------------------------------------------------
 Center     Atomic      Atomic             Coordinates (Angstroms)
 Number     Number       Type             X           Y           Z
 ---------------------------------------------------------------------
      1          6           0       -0.680225    0.322149    0.031776
      2          8           0       -1.787192   -0.095257   -0.034538
      3          6           0        0.583045   -0.490165   -0.006097
      4          6           0        1.746613    0.169187    0.010724
      5          1           0        0.541924   -1.496906    0.176980
      6          1           0        1.950555    1.305237   -0.018436
      7          1           0        2.570433   -0.375409   -0.179975
      8          1           0       -0.661971    1.322116    0.079316
 ---------------------------------------------------------------------

 SCF Done:  E(RB2PLYPD3) =  -191.588542098     A.U. after   13 cycles
 E2(B2PLYPD3) =    -0.2451949485D+00 E(B2PLYPD3) =    -0.19183373704637D+03

 The electronic state is 1-A.
 Alpha  occ. eigenvalues --  -19.72052 -10.69860 -10.65139 -10.64250  -1.20796
 Alpha  occ. eigenvalues --   -0.92812  -0.75350  -0.68752  -0.57677  -0.56516
 Alpha  occ. eigenvalues --   -0.50797  -0.47837  -0.46595  -0.34700  -0.33053
 Alpha virt. eigenvalues --   -0.01196   0.05810   0.07570   0.07979   0.09478
 Alpha virt. eigenvalues --    0.12619   0.14056   0.15406   0.18163   0.19343
 Alpha virt. eigenvalues --    0.19893   0.21937   0.24972   0.26456   0.28326

 Mulliken charges:
               1
     1  C    0.153682
     2  O   -0.335930
     3  C   -0.063825
     4  C   -0.119936
     5  H    0.112552
     6  H    0.080996
     7  H    0.095241
     8  H    0.077220
 Sum of Mulliken charges =   0.00000

 Dipole moment (field-independent basis, Debye):
    X=              3.3912    Y=              0.7317    Z=              0.1439  Tot=              3.4722
 Quadrupole moment (field-independent basis, Debye-Ang):
   XX=            -27.4811   YY=            -21.4897   ZZ=            -24.9560
   XY=             -0.8443   XZ=             -0.5275   YZ=             -0.1899

 Normal termination of Gaussian 09 at Wed Aug 26 11:45:20 2020.
