 Gaussian 09, Revision D.01,
 Gaussian 09:  ES64L-G09RevD.01 24-Apr-2013

 --------------------
 #p B2PLYPD3/Def2QZVP
 --------------------

 --------
 acrolein
 --------
 Symbolic Z-matrix:
 Charge =  0 Multiplicity = 1

                         Standard orientation:
 ---------------------------------------------------------------------
 Center     Atomic      Atomic             Coordinates (Angstroms)
 Number     Number       Type             X           Y           Z
 ---------------------------------------------------------------------
      1          6           0        0.664089    0.340849    0.006271
      2          8           0        1.795094   -0.112464   -0.003879
      3          6           0       -0.563601   -0.461682   -0.015852
      4          6           0       -1.748202    0.147463    0.003697
      5          1           0       -0.474260   -1.553256    0.048996
      6          1           0       -1.820315    1.230459   -0.027374
      7          1           0       -2.655999   -0.395796    0.010212
      8          1           0        0.476114    1.458519    0.034507
 ---------------------------------------------------------------------

 SCF Done:  E(RB2PLYPD3) =  -191.615379523     A.U. after   12 cycles
 E2(B2PLYPD3) =    -0.2477754868D+00 E(B2PLYPD3) =    -0.19186315501027D+03

 The electronic state is 1-A.
 Alpha  occ. eigenvalues --  -19.72889 -10.71963 -10.65341 -10.64637  -1.19040
 Alpha  occ. eigenvalues --   -0.93250  -0.75570  -0.66581  -0.56682  -0.56185
 Alpha  occ. eigenvalues --   -0.50417  -0.47083  -0.46521  -0.34779  -0.33838
 Alpha virt. eigenvalues --   -0.01871   0.05773   0.06979   0.08075   0.09717
 Alpha virt. eigenvalues --    0.12661   0.14021   0.15245   0.17302   0.19877
 Alpha virt. eigenvalues --    0.20023   0.21626   0.25291   0.26479   0.28750

 Mulliken charges:
               1
     1  C    0.155495
     2  O   -0.350010
     3  C   -0.032832
     4  C   -0.127187
     5  H    0.102747
     6  H    0.084068
     7  H    0.103031
     8  H    0.064688
 Sum of Mulliken charges =   0.00000

 Dipole moment (field-independent basis, Debye):
    X=             -3.5847    Y=              0.6958    Z=              0.0588  Tot=              3.6521
 Quadrupole moment (field-independent basis, Debye-Ang):
   XX=            -27.5019   YY=            -21.7475   ZZ=            -25.2394
   XY=              0.8397   XZ=              0.0025   YZ=             -0.1092

 Normal termination of Gaussian 09 at Wed Aug 26 19:00:45 2020.
