 Gaussian 09, Revision D.01,
 Gaussian 09:  ES64L-G09RevD.01 24-Apr-2013

 --------------------
 #p B2PLYPD3/Def2QZVP
 --------------------

 --------
 acrolein
 --------
 Symbolic Z-matrix:
 Charge =  0 Multiplicity = 1

                         Standard orientation:
 ---------------------------------------------------------------------
 Center     Atomic      Atomic             Coordinates (Angstroms)
 Number     Number       Type             X           Y           Z
 ---------------------------------------------------------------------
      1          6           0       -0.682415    0.397062   -0.055886
      2          8           0       -1.756639   -0.154921    0.061650
      3          6           0        0.535496   -0.424243   -0.057137
      4          6           0        1.753149    0.134221    0.013231
      5          1           0        0.449324   -1.564050   -0.041008
      6          1           0        1.753275    1.182760    0.221837
      7          1           0        2.703856   -0.466709    0.085928
      8          1           0       -0.490725    1.445133   -0.161206
 ---------------------------------------------------------------------

 SCF Done:  E(RB2PLYPD3) =  -191.605695901     A.U. after   13 cycles
 E2(B2PLYPD3) =    -0.2481245856D+00 E(B2PLYPD3) =    -0.19185382048672D+03

 The electronic state is 1-A.
 Alpha  occ. eigenvalues --  -19.72975 -10.71642 -10.65426 -10.64591  -1.19607
 Alpha  occ. eigenvalues --   -0.92503  -0.75301  -0.66897  -0.56557  -0.55829
 Alpha  occ. eigenvalues --   -0.50497  -0.46805  -0.45669  -0.34326  -0.34022
 Alpha virt. eigenvalues --   -0.01802   0.05685   0.06912   0.07707   0.09841
 Alpha virt. eigenvalues --    0.12557   0.13861   0.15445   0.17251   0.19073
 Alpha virt. eigenvalues --    0.20309   0.21429   0.25055   0.26540   0.28692

 Mulliken charges:
               1
     1  C    0.156238
     2  O   -0.345314
     3  C   -0.046259
     4  C   -0.131950
     5  H    0.100050
     6  H    0.073951
     7  H    0.101935
     8  H    0.091350
 Sum of Mulliken charges =   0.00000

 Dipole moment (field-independent basis, Debye):
    X=              3.2550    Y=              0.9405    Z=             -0.0295  Tot=              3.3883
 Quadrupole moment (field-independent basis, Debye-Ang):
   XX=            -27.6219   YY=            -21.6267   ZZ=            -25.2780
   XY=             -1.4211   XZ=              0.8385   YZ=              0.1394

 Normal termination of Gaussian 09 at Wed Aug 26 13:47:03 2020.
