 Gaussian 09, Revision D.01,
 Gaussian 09:  ES64L-G09RevD.01 24-Apr-2013

 --------------------
 #p B2PLYPD3/Def2QZVP
 --------------------

 --------
 acrolein
 --------
 Symbolic Z-matrix:
 Charge =  0 Multiplicity = 1

                         Standard orientation:
 ---------------------------------------------------------------------
 Center     Atomic      Atomic             Coordinates (Angstroms)
 Number     Number       Type             X           Y           Z
 ---------------------------------------------------------------------
      1          6           0        0.672703    0.347600   -0.007110
      2          8           0        1.802304   -0.108747   -0.002869
      3          6           0       -0.572302   -0.476236    0.018033
      4          6           0       -1.753843    0.144413   -0.017436
      5          1           0       -0.458704   -1.571315    0.017972
      6          1           0       -1.921668    1.333207    0.062140
      7          1           0       -2.646085   -0.426727   -0.026998
      8          1           0        0.528683    1.440141    0.008918
 ---------------------------------------------------------------------

 SCF Done:  E(RB2PLYPD3) =  -191.605990678     A.U. after   12 cycles
 E2(B2PLYPD3) =    -0.2482864431D+00 E(B2PLYPD3) =    -0.19185427712072D+03

 The electronic state is 1-A.
 Alpha  occ. eigenvalues --  -19.72786 -10.71777 -10.66423 -10.65071  -1.18992
 Alpha  occ. eigenvalues --   -0.92527  -0.74848  -0.66364  -0.56393  -0.55457
 Alpha  occ. eigenvalues --   -0.50447  -0.46409  -0.45984  -0.34713  -0.33734
 Alpha virt. eigenvalues --   -0.01657   0.05407   0.06955   0.07843   0.09495
 Alpha virt. eigenvalues --    0.12203   0.14051   0.15320   0.17397   0.19140
 Alpha virt. eigenvalues --    0.19995   0.21585   0.25086   0.26455   0.28404

 Mulliken charges:
               1
     1  C    0.163420
     2  O   -0.350593
     3  C   -0.055769
     4  C   -0.123145
     5  H    0.107068
     6  H    0.081509
     7  H    0.101460
     8  H    0.076050
 Sum of Mulliken charges =   0.00000

 Dipole moment (field-independent basis, Debye):
    X=             -3.5205    Y=              0.7146    Z=              0.0453  Tot=              3.5925
 Quadrupole moment (field-independent basis, Debye-Ang):
   XX=            -27.7179   YY=            -21.4983   ZZ=            -25.4058
   XY=              0.8062   XZ=             -0.0284   YZ=              0.0881

 Normal termination of Gaussian 09 at Wed Aug 26 10:19:46 2020.
