 Gaussian 09, Revision D.01,
 Gaussian 09:  ES64L-G09RevD.01 24-Apr-2013

 --------------------
 #p B2PLYPD3/Def2QZVP
 --------------------

 --------
 acrolein
 --------
 Symbolic Z-matrix:
 Charge =  0 Multiplicity = 1

                         Standard orientation:
 ---------------------------------------------------------------------
 Center     Atomic      Atomic             Coordinates (Angstroms)
 Number     Number       Type             X           Y           Z
 ---------------------------------------------------------------------
      1          6           0        0.679300    0.351374   -0.023980
      2          8           0        1.786024   -0.128258    0.017907
      3          6           0       -0.559273   -0.442684   -0.003143
      4          6           0       -1.756728    0.139184    0.000073
      5          1           0       -0.436931   -1.490225   -0.020452
      6          1           0       -1.816776    1.188169    0.081259
      7          1           0       -2.707938   -0.429685    0.002678
      8          1           0        0.493658    1.470563   -0.044443
 ---------------------------------------------------------------------

 SCF Done:  E(RB2PLYPD3) =  -191.614834879     A.U. after   12 cycles
 E2(B2PLYPD3) =    -0.2470544401D+00 E(B2PLYPD3) =    -0.19186188931892D+03

 The electronic state is 1-A.
 Alpha  occ. eigenvalues --  -19.73035 -10.71903 -10.65365 -10.64021  -1.19892
 Alpha  occ. eigenvalues --   -0.93086  -0.75324  -0.67119  -0.56493  -0.56379
 Alpha  occ. eigenvalues --   -0.50738  -0.47141  -0.46997  -0.34719  -0.33860
 Alpha virt. eigenvalues --   -0.01733   0.05760   0.07247   0.08204   0.09811
 Alpha virt. eigenvalues --    0.12559   0.13840   0.15363   0.17577   0.19796
 Alpha virt. eigenvalues --    0.20097   0.21459   0.25432   0.26422   0.28762

 Mulliken charges:
               1
     1  C    0.156556
     2  O   -0.344294
     3  C   -0.035236
     4  C   -0.132763
     5  H    0.106626
     6  H    0.085306
     7  H    0.100862
     8  H    0.062941
 Sum of Mulliken charges =   0.00000

 Dipole moment (field-independent basis, Debye):
    X=             -3.4322    Y=              0.7385    Z=             -0.0278  Tot=              3.5109
 Quadrupole moment (field-independent basis, Debye-Ang):
   XX=            -27.2988   YY=            -21.9053   ZZ=            -25.1870
   XY=              0.9372   XZ=             -0.2057   YZ=              0.1131

 Normal termination of Gaussian 09 at Wed Aug 26 19:27:33 2020.
