 Gaussian 09, Revision D.01,
 Gaussian 09:  ES64L-G09RevD.01 24-Apr-2013

 --------------------
 #p B2PLYPD3/Def2QZVP
 --------------------

 --------
 acrolein
 --------
 Symbolic Z-matrix:
 Charge =  0 Multiplicity = 1

                         Standard orientation:
 ---------------------------------------------------------------------
 Center     Atomic      Atomic             Coordinates (Angstroms)
 Number     Number       Type             X           Y           Z
 ---------------------------------------------------------------------
      1          6           0        0.672030   -0.309149    0.071397
      2          8           0        1.787739    0.070498   -0.064490
      3          6           0       -0.555159    0.514900    0.051956
      4          6           0       -1.745861   -0.179186   -0.079898
      5          1           0       -0.449204    1.623421    0.010983
      6          1           0       -1.881278   -1.291389   -0.137411
      7          1           0       -2.727514    0.326759    0.148972
      8          1           0        0.530026   -1.382163    0.232655
 ---------------------------------------------------------------------

 SCF Done:  E(RB2PLYPD3) =  -191.601356844     A.U. after   13 cycles
 E2(B2PLYPD3) =    -0.2480461387D+00 E(B2PLYPD3) =    -0.19184940298258D+03

 The electronic state is 1-A.
 Alpha  occ. eigenvalues --  -19.72464 -10.70928 -10.67178 -10.65908  -1.20801
 Alpha  occ. eigenvalues --   -0.91630  -0.74555  -0.66698  -0.56495  -0.55455
 Alpha  occ. eigenvalues --   -0.50405  -0.47306  -0.46458  -0.34051  -0.33231
 Alpha virt. eigenvalues --   -0.02277   0.05595   0.06955   0.08124   0.09565
 Alpha virt. eigenvalues --    0.12291   0.14222   0.15652   0.17359   0.18804
 Alpha virt. eigenvalues --    0.19819   0.21675   0.24624   0.26274   0.28565

 Mulliken charges:
               1
     1  C    0.152086
     2  O   -0.333363
     3  C   -0.049405
     4  C   -0.120230
     5  H    0.111059
     6  H    0.086020
     7  H    0.089835
     8  H    0.063997
 Sum of Mulliken charges =   0.00000

 Dipole moment (field-independent basis, Debye):
    X=             -3.4120    Y=             -0.6055    Z=              0.3146  Tot=              3.4796
 Quadrupole moment (field-independent basis, Debye-Ang):
   XX=            -27.5213   YY=            -21.6286   ZZ=            -25.4162
   XY=             -0.2842   XZ=              0.1932   YZ=              0.1741

 Normal termination of Gaussian 09 at Wed Aug 26 11:49:38 2020.
