 Gaussian 09, Revision D.01,
 Gaussian 09:  ES64L-G09RevD.01 24-Apr-2013

 --------------------
 #p B2PLYPD3/Def2QZVP
 --------------------

 --------
 acrolein
 --------
 Symbolic Z-matrix:
 Charge =  0 Multiplicity = 1

                         Standard orientation:
 ---------------------------------------------------------------------
 Center     Atomic      Atomic             Coordinates (Angstroms)
 Number     Number       Type             X           Y           Z
 ---------------------------------------------------------------------
      1          6           0        0.663119    0.342263    0.017488
      2          8           0        1.789520   -0.118430   -0.020476
      3          6           0       -0.573172   -0.451708    0.039239
      4          6           0       -1.748831    0.151171   -0.025783
      5          1           0       -0.437718   -1.535739   -0.015756
      6          1           0       -1.781314    1.199405    0.009414
      7          1           0       -2.665855   -0.405072   -0.033230
      8          1           0        0.522024    1.438494    0.017708
 ---------------------------------------------------------------------

 SCF Done:  E(RB2PLYPD3) =  -191.615608328     A.U. after   12 cycles
 E2(B2PLYPD3) =    -0.2471131416D+00 E(B2PLYPD3) =    -0.19186272146964D+03

 The electronic state is 1-A.
 Alpha  occ. eigenvalues --  -19.72776 -10.71581 -10.64953 -10.64411  -1.19059
 Alpha  occ. eigenvalues --   -0.93512  -0.75621  -0.67071  -0.56861  -0.56483
 Alpha  occ. eigenvalues --   -0.50501  -0.47174  -0.46552  -0.34923  -0.33799
 Alpha virt. eigenvalues --   -0.01730   0.05846   0.07114   0.08133   0.09816
 Alpha virt. eigenvalues --    0.12682   0.13914   0.15268   0.17330   0.19926
 Alpha virt. eigenvalues --    0.20109   0.21695   0.25296   0.26513   0.28947

 Mulliken charges:
               1
     1  C    0.153051
     2  O   -0.352933
     3  C   -0.032033
     4  C   -0.129651
     5  H    0.103371
     6  H    0.087054
     7  H    0.103870
     8  H    0.067270
 Sum of Mulliken charges =   0.00000

 Dipole moment (field-independent basis, Debye):
    X=             -3.5320    Y=              0.7451    Z=              0.0346  Tot=              3.6099
 Quadrupole moment (field-independent basis, Debye-Ang):
   XX=            -27.5182   YY=            -21.7450   ZZ=            -25.1506
   XY=              0.9474   XZ=              0.1801   YZ=              0.0826

 Normal termination of Gaussian 09 at Wed Aug 26 08:36:14 2020.
