 Gaussian 09, Revision D.01,
 Gaussian 09:  ES64L-G09RevD.01 24-Apr-2013

 --------------------
 #p B2PLYPD3/Def2QZVP
 --------------------

 --------
 acrolein
 --------
 Symbolic Z-matrix:
 Charge =  0 Multiplicity = 1

                         Standard orientation:
 ---------------------------------------------------------------------
 Center     Atomic      Atomic             Coordinates (Angstroms)
 Number     Number       Type             X           Y           Z
 ---------------------------------------------------------------------
      1          6           0       -0.678174    0.334128    0.057743
      2          8           0       -1.798128   -0.101996   -0.044210
      3          6           0        0.573251   -0.479375    0.026047
      4          6           0        1.772041    0.166857   -0.036972
      5          1           0        0.421733   -1.582030    0.035713
      6          1           0        1.864801    1.216997   -0.078690
      7          1           0        2.623746   -0.406151    0.030237
      8          1           0       -0.527969    1.457497    0.085518
 ---------------------------------------------------------------------

 SCF Done:  E(RB2PLYPD3) =  -191.609871719     A.U. after   13 cycles
 E2(B2PLYPD3) =    -0.2477094173D+00 E(B2PLYPD3) =    -0.19185758113593D+03

 The electronic state is 1-A.
 Alpha  occ. eigenvalues --  -19.72850 -10.71822 -10.65494 -10.65135  -1.19753
 Alpha  occ. eigenvalues --   -0.92278  -0.75596  -0.66386  -0.56672  -0.56264
 Alpha  occ. eigenvalues --   -0.50373  -0.47947  -0.46681  -0.34296  -0.33488
 Alpha virt. eigenvalues --   -0.01949   0.05889   0.07075   0.07950   0.09714
 Alpha virt. eigenvalues --    0.12651   0.14008   0.15415   0.17093   0.19748
 Alpha virt. eigenvalues --    0.20055   0.21946   0.24986   0.26344   0.28514

 Mulliken charges:
               1
     1  C    0.158619
     2  O   -0.342744
     3  C   -0.045450
     4  C   -0.134009
     5  H    0.104048
     6  H    0.094868
     7  H    0.104300
     8  H    0.060369
 Sum of Mulliken charges =   0.00000

 Dipole moment (field-independent basis, Debye):
    X=              3.4595    Y=              0.6694    Z=              0.1769  Tot=              3.5281
 Quadrupole moment (field-independent basis, Debye-Ang):
   XX=            -27.5431   YY=            -21.6167   ZZ=            -25.3321
   XY=             -0.6426   XZ=             -0.2499   YZ=             -0.1418

 Normal termination of Gaussian 09 at Wed Aug 26 09:59:25 2020.
