 Gaussian 09, Revision D.01,
 Gaussian 09:  ES64L-G09RevD.01 24-Apr-2013

 --------------------
 #p B2PLYPD3/Def2QZVP
 --------------------

 --------
 acrolein
 --------
 Symbolic Z-matrix:
 Charge =  0 Multiplicity = 1

                         Standard orientation:
 ---------------------------------------------------------------------
 Center     Atomic      Atomic             Coordinates (Angstroms)
 Number     Number       Type             X           Y           Z
 ---------------------------------------------------------------------
      1          6           0        0.664835    0.373494    0.044058
      2          8           0        1.786026   -0.142044   -0.043441
      3          6           0       -0.550209   -0.490077   -0.006012
      4          6           0       -1.729975    0.150075   -0.048505
      5          1           0       -0.540584   -1.450595    0.215721
      6          1           0       -1.807742    1.271242   -0.066978
      7          1           0       -2.746164   -0.443179    0.065707
      8          1           0        0.498379    1.557935    0.195831
 ---------------------------------------------------------------------

 SCF Done:  E(RB2PLYPD3) =  -191.587748763     A.U. after   13 cycles
 E2(B2PLYPD3) =    -0.2503525832D+00 E(B2PLYPD3) =    -0.19183810134674D+03

 The electronic state is 1-A.
 Alpha  occ. eigenvalues --  -19.73098 -10.73313 -10.66798 -10.63996  -1.18187
 Alpha  occ. eigenvalues --   -0.92817  -0.73468  -0.67483  -0.55996  -0.55119
 Alpha  occ. eigenvalues --   -0.50189  -0.46488  -0.45673  -0.34440  -0.33834
 Alpha virt. eigenvalues --   -0.01815   0.05348   0.06257   0.07386   0.09572
 Alpha virt. eigenvalues --    0.11989   0.13542   0.15002   0.18037   0.19168
 Alpha virt. eigenvalues --    0.20024   0.20781   0.24469   0.26561   0.29019

 Mulliken charges:
               1
     1  C    0.158019
     2  O   -0.350608
     3  C   -0.048985
     4  C   -0.115376
     5  H    0.118277
     6  H    0.081100
     7  H    0.082526
     8  H    0.075047
 Sum of Mulliken charges =   0.00000

 Dipole moment (field-independent basis, Debye):
    X=             -3.4663    Y=              0.8347    Z=              0.4269  Tot=              3.5908
 Quadrupole moment (field-independent basis, Debye-Ang):
   XX=            -27.9222   YY=            -21.5798   ZZ=            -25.4289
   XY=              1.1008   XZ=             -0.0217   YZ=             -0.3252

 Normal termination of Gaussian 09 at Wed Aug 26 14:28:17 2020.
