 Gaussian 09, Revision D.01,
 Gaussian 09:  ES64L-G09RevD.01 24-Apr-2013

 --------------------
 #p B2PLYPD3/Def2QZVP
 --------------------

 --------
 acrolein
 --------
 Symbolic Z-matrix:
 Charge =  0 Multiplicity = 1

                         Standard orientation:
 ---------------------------------------------------------------------
 Center     Atomic      Atomic             Coordinates (Angstroms)
 Number     Number       Type             X           Y           Z
 ---------------------------------------------------------------------
      1          6           0        0.658637    0.330152    0.025347
      2          8           0        1.805179   -0.101384   -0.030379
      3          6           0       -0.579934   -0.454246    0.021658
      4          6           0       -1.754384    0.150501   -0.029169
      5          1           0       -0.422567   -1.616918    0.036878
      6          1           0       -1.819993    1.271577   -0.091788
      7          1           0       -2.654739   -0.406087    0.044861
      8          1           0        0.509953    1.404055    0.146062
 ---------------------------------------------------------------------

 SCF Done:  E(RB2PLYPD3) =  -191.608203317     A.U. after   13 cycles
 E2(B2PLYPD3) =    -0.2483347956D+00 E(B2PLYPD3) =    -0.19185653811265D+03

 The electronic state is 1-A.
 Alpha  occ. eigenvalues --  -19.72819 -10.71555 -10.65826 -10.65360  -1.18508
 Alpha  occ. eigenvalues --   -0.93354  -0.75774  -0.66022  -0.56614  -0.55970
 Alpha  occ. eigenvalues --   -0.50475  -0.46226  -0.45930  -0.35009  -0.33828
 Alpha virt. eigenvalues --   -0.02005   0.05678   0.06641   0.08155   0.09670
 Alpha virt. eigenvalues --    0.12511   0.13955   0.15306   0.16931   0.19179
 Alpha virt. eigenvalues --    0.20145   0.21733   0.25247   0.26689   0.28785

 Mulliken charges:
               1
     1  C    0.161670
     2  O   -0.356763
     3  C   -0.036283
     4  C   -0.124231
     5  H    0.094669
     6  H    0.084749
     7  H    0.109006
     8  H    0.067181
 Sum of Mulliken charges =   0.00000

 Dipole moment (field-independent basis, Debye):
    X=             -3.6264    Y=              0.7105    Z=              0.1408  Tot=              3.6980
 Quadrupole moment (field-independent basis, Debye-Ang):
   XX=            -27.6940   YY=            -21.7085   ZZ=            -25.2951
   XY=              0.7629   XZ=              0.1738   YZ=             -0.1242

 Normal termination of Gaussian 09 at Wed Aug 26 08:48:52 2020.
