 Gaussian 09, Revision D.01,
 Gaussian 09:  ES64L-G09RevD.01 24-Apr-2013

 --------------------
 #p B2PLYPD3/Def2QZVP
 --------------------

 --------
 acrolein
 --------
 Symbolic Z-matrix:
 Charge =  0 Multiplicity = 1

                         Standard orientation:
 ---------------------------------------------------------------------
 Center     Atomic      Atomic             Coordinates (Angstroms)
 Number     Number       Type             X           Y           Z
 ---------------------------------------------------------------------
      1          6           0        0.677440    0.359471    0.003013
      2          8           0        1.769774   -0.129870   -0.012020
      3          6           0       -0.538058   -0.429409    0.069048
      4          6           0       -1.729006    0.115301   -0.028455
      5          1           0       -0.381921   -1.476925   -0.107327
      6          1           0       -1.856704    1.192258    0.061800
      7          1           0       -2.835833   -0.413298   -0.065007
      8          1           0        0.454007    1.464750   -0.054935
 ---------------------------------------------------------------------

 SCF Done:  E(RB2PLYPD3) =  -191.599064146     A.U. after   13 cycles
 E2(B2PLYPD3) =    -0.2474948410D+00 E(B2PLYPD3) =    -0.19184655898655D+03

 The electronic state is 1-A.
 Alpha  occ. eigenvalues --  -19.73060 -10.71661 -10.66679 -10.63803  -1.20611
 Alpha  occ. eigenvalues --   -0.93416  -0.74854  -0.66870  -0.57002  -0.55377
 Alpha  occ. eigenvalues --   -0.50681  -0.47583  -0.44801  -0.35182  -0.33916
 Alpha virt. eigenvalues --   -0.01599   0.05308   0.07111   0.08135   0.09703
 Alpha virt. eigenvalues --    0.12064   0.13740   0.15066   0.17857   0.19660
 Alpha virt. eigenvalues --    0.19891   0.21059   0.24676   0.26750   0.28680

 Mulliken charges:
               1
     1  C    0.159891
     2  O   -0.339581
     3  C   -0.039241
     4  C   -0.114835
     5  H    0.109388
     6  H    0.074475
     7  H    0.088728
     8  H    0.061176
 Sum of Mulliken charges =   0.00000

 Dipole moment (field-independent basis, Debye):
    X=             -3.3841    Y=              0.8082    Z=             -0.0866  Tot=              3.4803
 Quadrupole moment (field-independent basis, Debye-Ang):
   XX=            -26.9616   YY=            -22.2511   ZZ=            -25.1928
   XY=              0.6656   XZ=              0.1713   YZ=              0.2760

 Normal termination of Gaussian 09 at Wed Aug 26 11:07:58 2020.
