 Gaussian 09, Revision D.01,
 Gaussian 09:  ES64L-G09RevD.01 24-Apr-2013

 --------------------
 #p B2PLYPD3/Def2QZVP
 --------------------

 --------
 acrolein
 --------
 Symbolic Z-matrix:
 Charge =  0 Multiplicity = 1

                         Standard orientation:
 ---------------------------------------------------------------------
 Center     Atomic      Atomic             Coordinates (Angstroms)
 Number     Number       Type             X           Y           Z
 ---------------------------------------------------------------------
      1          6           0       -0.675849    0.356450    0.026976
      2          8           0       -1.774798   -0.124529   -0.023841
      3          6           0        0.554977   -0.451742    0.015502
      4          6           0        1.753711    0.136678   -0.018017
      5          1           0        0.436183   -1.508137    0.034421
      6          1           0        1.847170    1.229712   -0.037466
      7          1           0        2.673480   -0.402648   -0.003361
      8          1           0       -0.555489    1.428989    0.050371
 ---------------------------------------------------------------------

 SCF Done:  E(RB2PLYPD3) =  -191.616887985     A.U. after   12 cycles
 E2(B2PLYPD3) =    -0.2462209757D+00 E(B2PLYPD3) =    -0.19186310896022D+03

 The electronic state is 1-A.
 Alpha  occ. eigenvalues --  -19.72609 -10.71093 -10.65329 -10.64154  -1.20078
 Alpha  occ. eigenvalues --   -0.92758  -0.75376  -0.67536  -0.56790  -0.56549
 Alpha  occ. eigenvalues --   -0.50827  -0.47037  -0.46885  -0.34549  -0.33798
 Alpha virt. eigenvalues --   -0.01505   0.05783   0.07387   0.08232   0.09726
 Alpha virt. eigenvalues --    0.12529   0.14214   0.15423   0.17655   0.19670
 Alpha virt. eigenvalues --    0.19984   0.21609   0.25563   0.26411   0.28927

 Mulliken charges:
               1
     1  C    0.154747
     2  O   -0.345197
     3  C   -0.047037
     4  C   -0.130515
     5  H    0.109131
     6  H    0.080329
     7  H    0.101057
     8  H    0.077484
 Sum of Mulliken charges =   0.00000

 Dipole moment (field-independent basis, Debye):
    X=              3.3954    Y=              0.7982    Z=              0.0982  Tot=              3.4894
 Quadrupole moment (field-independent basis, Debye-Ang):
   XX=            -27.3051   YY=            -21.6863   ZZ=            -25.1589
   XY=             -0.9780   XZ=             -0.1656   YZ=             -0.0663

 Normal termination of Gaussian 09 at Wed Aug 26 15:47:06 2020.
