 Gaussian 09, Revision D.01,
 Gaussian 09:  ES64L-G09RevD.01 24-Apr-2013

 --------------------
 #p B2PLYPD3/Def2QZVP
 --------------------

 --------
 acrolein
 --------
 Symbolic Z-matrix:
 Charge =  0 Multiplicity = 1

                         Standard orientation:
 ---------------------------------------------------------------------
 Center     Atomic      Atomic             Coordinates (Angstroms)
 Number     Number       Type             X           Y           Z
 ---------------------------------------------------------------------
      1          6           0       -0.704144    0.407308    0.069326
      2          8           0       -1.730348   -0.163134   -0.069260
      3          6           0        0.541142   -0.447977    0.023019
      4          6           0        1.760500    0.132931   -0.056129
      5          1           0        0.399549   -1.439820    0.229488
      6          1           0        1.739157    1.178873   -0.067679
      7          1           0        2.722733   -0.406103   -0.004832
      8          1           0       -0.603640    1.418552    0.179811
 ---------------------------------------------------------------------

 SCF Done:  E(RB2PLYPD3) =  -191.601420862     A.U. after   12 cycles
 E2(B2PLYPD3) =    -0.2454132409D+00 E(B2PLYPD3) =    -0.19184683410265D+03

 The electronic state is 1-A.
 Alpha  occ. eigenvalues --  -19.72708 -10.70758 -10.64611 -10.63483  -1.21493
 Alpha  occ. eigenvalues --   -0.91672  -0.74737  -0.69141  -0.57398  -0.56032
 Alpha  occ. eigenvalues --   -0.51257  -0.47967  -0.46633  -0.33839  -0.33612
 Alpha virt. eigenvalues --   -0.00832   0.05955   0.07187   0.08038   0.09838
 Alpha virt. eigenvalues --    0.12375   0.14103   0.15321   0.18339   0.19608
 Alpha virt. eigenvalues --    0.20041   0.21388   0.25165   0.26940   0.29647

 Mulliken charges:
               1
     1  C    0.156819
     2  O   -0.330692
     3  C   -0.067061
     4  C   -0.140981
     5  H    0.113178
     6  H    0.074040
     7  H    0.099183
     8  H    0.095513
 Sum of Mulliken charges =   0.00000

 Dipole moment (field-independent basis, Debye):
    X=              2.9062    Y=              1.0529    Z=              0.4604  Tot=              3.1251
 Quadrupole moment (field-independent basis, Debye-Ang):
   XX=            -27.2407   YY=            -21.5696   ZZ=            -25.0897
   XY=             -1.4229   XZ=             -0.3207   YZ=             -0.2792

 Normal termination of Gaussian 09 at Wed Aug 26 11:11:43 2020.
