 Gaussian 09, Revision D.01,
 Gaussian 09:  ES64L-G09RevD.01 24-Apr-2013

 --------------------
 #p B2PLYPD3/Def2QZVP
 --------------------

 --------
 acrolein
 --------
 Symbolic Z-matrix:
 Charge =  0 Multiplicity = 1

                         Standard orientation:
 ---------------------------------------------------------------------
 Center     Atomic      Atomic             Coordinates (Angstroms)
 Number     Number       Type             X           Y           Z
 ---------------------------------------------------------------------
      1          6           0        0.654929    0.314268   -0.015972
      2          8           0        1.811374   -0.096717    0.019559
      3          6           0       -0.557406   -0.472933   -0.038187
      4          6           0       -1.738749    0.153124   -0.009710
      5          1           0       -0.466407   -1.507085    0.073421
      6          1           0       -1.899847    1.269674    0.093751
      7          1           0       -2.808224   -0.400477    0.080544
      8          1           0        0.530843    1.444872   -0.020978
 ---------------------------------------------------------------------

 SCF Done:  E(RB2PLYPD3) =  -191.599024167     A.U. after   13 cycles
 E2(B2PLYPD3) =    -0.2492708648D+00 E(B2PLYPD3) =    -0.19184829503209D+03

 The electronic state is 1-A.
 Alpha  occ. eigenvalues --  -19.72634 -10.71814 -10.67869 -10.64739  -1.18366
 Alpha  occ. eigenvalues --   -0.93445  -0.74828  -0.66972  -0.56568  -0.55567
 Alpha  occ. eigenvalues --   -0.50035  -0.46440  -0.45488  -0.34913  -0.33621
 Alpha virt. eigenvalues --   -0.02382   0.05155   0.06920   0.08119   0.09426
 Alpha virt. eigenvalues --    0.11977   0.14006   0.15218   0.17757   0.19517
 Alpha virt. eigenvalues --    0.19900   0.20734   0.25016   0.26062   0.28633

 Mulliken charges:
               1
     1  C    0.153136
     2  O   -0.357600
     3  C   -0.033496
     4  C   -0.108432
     5  H    0.114413
     6  H    0.087585
     7  H    0.084117
     8  H    0.060277
 Sum of Mulliken charges =   0.00000

 Dipole moment (field-independent basis, Debye):
    X=             -3.7581    Y=              0.6549    Z=              0.1425  Tot=              3.8174
 Quadrupole moment (field-independent basis, Debye-Ang):
   XX=            -27.4646   YY=            -21.9259   ZZ=            -25.3630
   XY=              0.5602   XZ=             -0.4980   YZ=             -0.0458

 Normal termination of Gaussian 09 at Wed Aug 26 14:27:14 2020.
