 Gaussian 09, Revision D.01,
 Gaussian 09:  ES64L-G09RevD.01 24-Apr-2013

 --------------------
 #p B2PLYPD3/Def2QZVP
 --------------------

 --------
 acrolein
 --------
 Symbolic Z-matrix:
 Charge =  0 Multiplicity = 1

                         Standard orientation:
 ---------------------------------------------------------------------
 Center     Atomic      Atomic             Coordinates (Angstroms)
 Number     Number       Type             X           Y           Z
 ---------------------------------------------------------------------
      1          6           0       -0.671113    0.322204    0.094317
      2          8           0       -1.790347   -0.090659   -0.068370
      3          6           0        0.562854   -0.493594    0.074643
      4          6           0        1.738528    0.152111   -0.064372
      5          1           0        0.480268   -1.482324    0.024079
      6          1           0        1.905956    1.295105    0.067415
      7          1           0        2.565633   -0.421685   -0.131299
      8          1           0       -0.410696    1.449849   -0.040760
 ---------------------------------------------------------------------

 SCF Done:  E(RB2PLYPD3) =  -191.594803683     A.U. after   13 cycles
 E2(B2PLYPD3) =    -0.2479309744D+00 E(B2PLYPD3) =    -0.19184273465772D+03

 The electronic state is 1-A.
 Alpha  occ. eigenvalues --  -19.73029 -10.71987 -10.65701 -10.63990  -1.19962
 Alpha  occ. eigenvalues --   -0.93150  -0.75533  -0.67206  -0.57066  -0.55370
 Alpha  occ. eigenvalues --   -0.50605  -0.47963  -0.46963  -0.34677  -0.33394
 Alpha virt. eigenvalues --   -0.01829   0.05706   0.07354   0.07380   0.09665
 Alpha virt. eigenvalues --    0.12708   0.13885   0.15259   0.18010   0.19485
 Alpha virt. eigenvalues --    0.19914   0.21588   0.24089   0.27241   0.28093

 Mulliken charges:
               1
     1  C    0.168698
     2  O   -0.340133
     3  C   -0.053682
     4  C   -0.120169
     5  H    0.111444
     6  H    0.089463
     7  H    0.097384
     8  H    0.046994
 Sum of Mulliken charges =   0.00000

 Dipole moment (field-independent basis, Debye):
    X=              3.5091    Y=              0.5052    Z=              0.2035  Tot=              3.5511
 Quadrupole moment (field-independent basis, Debye-Ang):
   XX=            -27.4764   YY=            -21.7806   ZZ=            -25.1820
   XY=             -0.4982   XZ=             -0.5163   YZ=              0.1324

 Normal termination of Gaussian 09 at Wed Aug 26 12:14:04 2020.
