 Gaussian 09, Revision D.01,
 Gaussian 09:  ES64L-G09RevD.01 24-Apr-2013

 --------------------
 #p B2PLYPD3/Def2QZVP
 --------------------

 --------
 acrolein
 --------
 Symbolic Z-matrix:
 Charge =  0 Multiplicity = 1

                         Standard orientation:
 ---------------------------------------------------------------------
 Center     Atomic      Atomic             Coordinates (Angstroms)
 Number     Number       Type             X           Y           Z
 ---------------------------------------------------------------------
      1          6           0       -0.660681    0.342486   -0.040122
      2          8           0       -1.783271   -0.114376    0.036843
      3          6           0        0.577302   -0.469763   -0.040872
      4          6           0        1.737670    0.152936    0.010007
      5          1           0        0.483826   -1.469669    0.009949
      6          1           0        1.815963    1.265347    0.085338
      7          1           0        2.586565   -0.415365    0.084151
      8          1           0       -0.545933    1.380740   -0.048258
 ---------------------------------------------------------------------

 SCF Done:  E(RB2PLYPD3) =  -191.606954759     A.U. after   12 cycles
 E2(B2PLYPD3) =    -0.2460033916D+00 E(B2PLYPD3) =    -0.19185295815075D+03

 The electronic state is 1-A.
 Alpha  occ. eigenvalues --  -19.72469 -10.70796 -10.64804 -10.63413  -1.19078
 Alpha  occ. eigenvalues --   -0.93680  -0.75665  -0.68621  -0.57526  -0.56377
 Alpha  occ. eigenvalues --   -0.50681  -0.47818  -0.46431  -0.34901  -0.33691
 Alpha virt. eigenvalues --   -0.01359   0.05788   0.07504   0.08017   0.09736
 Alpha virt. eigenvalues --    0.12765   0.14020   0.15342   0.17953   0.19530
 Alpha virt. eigenvalues --    0.19982   0.21899   0.25356   0.26629   0.28807

 Mulliken charges:
               1
     1  C    0.151983
     2  O   -0.355905
     3  C   -0.049134
     4  C   -0.124481
     5  H    0.111537
     6  H    0.084984
     7  H    0.098403
     8  H    0.082614
 Sum of Mulliken charges =   0.00000

 Dipole moment (field-independent basis, Debye):
    X=              3.4873    Y=              0.7625    Z=              0.0085  Tot=              3.5697
 Quadrupole moment (field-independent basis, Debye-Ang):
   XX=            -27.7687   YY=            -21.4612   ZZ=            -24.9909
   XY=             -1.0106   XZ=              0.5351   YZ=              0.0111

 Normal termination of Gaussian 09 at Wed Aug 26 10:17:37 2020.
