 Gaussian 09, Revision D.01,
 Gaussian 09:  ES64L-G09RevD.01 24-Apr-2013

 --------------------
 #p B2PLYPD3/Def2QZVP
 --------------------

 --------
 acrolein
 --------
 Symbolic Z-matrix:
 Charge =  0 Multiplicity = 1

                         Standard orientation:
 ---------------------------------------------------------------------
 Center     Atomic      Atomic             Coordinates (Angstroms)
 Number     Number       Type             X           Y           Z
 ---------------------------------------------------------------------
      1          6           0       -0.675600    0.350929   -0.009635
      2          8           0       -1.785841   -0.131051    0.013289
      3          6           0        0.562064   -0.436650   -0.028895
      4          6           0        1.751931    0.137203    0.001323
      5          1           0        0.475169   -1.483151    0.033749
      6          1           0        1.816507    1.198557    0.034927
      7          1           0        2.696554   -0.417287    0.055918
      8          1           0       -0.531873    1.441391   -0.007663
 ---------------------------------------------------------------------

 SCF Done:  E(RB2PLYPD3) =  -191.616034149     A.U. after   12 cycles
 E2(B2PLYPD3) =    -0.2466012958D+00 E(B2PLYPD3) =    -0.19186263544470D+03

 The electronic state is 1-A.
 Alpha  occ. eigenvalues --  -19.72842 -10.71554 -10.65166 -10.63809  -1.19568
 Alpha  occ. eigenvalues --   -0.93380  -0.75472  -0.67526  -0.56860  -0.56512
 Alpha  occ. eigenvalues --   -0.50742  -0.47037  -0.46706  -0.34862  -0.33926
 Alpha virt. eigenvalues --   -0.01656   0.05769   0.07296   0.08282   0.09756
 Alpha virt. eigenvalues --    0.12578   0.14036   0.15371   0.17751   0.19837
 Alpha virt. eigenvalues --    0.19960   0.21477   0.25582   0.26375   0.28892

 Mulliken charges:
               1
     1  C    0.150888
     2  O   -0.347778
     3  C   -0.035530
     4  C   -0.128212
     5  H    0.106261
     6  H    0.080796
     7  H    0.100372
     8  H    0.073202
 Sum of Mulliken charges =   0.00000

 Dipole moment (field-independent basis, Debye):
    X=              3.4702    Y=              0.7918    Z=              0.0677  Tot=              3.5600
 Quadrupole moment (field-independent basis, Debye-Ang):
   XX=            -27.3196   YY=            -21.8403   ZZ=            -25.1102
   XY=             -1.0780   XZ=              0.2874   YZ=             -0.0538

 Normal termination of Gaussian 09 at Wed Aug 26 09:11:14 2020.
