 Gaussian 09, Revision D.01,
 Gaussian 09:  ES64L-G09RevD.01 24-Apr-2013

 --------------------
 #p B2PLYPD3/Def2QZVP
 --------------------

 --------
 acrolein
 --------
 Symbolic Z-matrix:
 Charge =  0 Multiplicity = 1

                         Standard orientation:
 ---------------------------------------------------------------------
 Center     Atomic      Atomic             Coordinates (Angstroms)
 Number     Number       Type             X           Y           Z
 ---------------------------------------------------------------------
      1          6           0       -0.674814    0.337637    0.018941
      2          8           0       -1.798654   -0.104284   -0.034426
      3          6           0        0.566990   -0.481680    0.029267
      4          6           0        1.759778    0.145601   -0.036957
      5          1           0        0.475898   -1.499253    0.086332
      6          1           0        1.893404    1.329425   -0.040244
      7          1           0        2.634026   -0.415465   -0.002477
      8          1           0       -0.525818    1.410217    0.164290
 ---------------------------------------------------------------------

 SCF Done:  E(RB2PLYPD3) =  -191.604916707     A.U. after   13 cycles
 E2(B2PLYPD3) =    -0.2474457623D+00 E(B2PLYPD3) =    -0.19185236246895D+03

 The electronic state is 1-A.
 Alpha  occ. eigenvalues --  -19.72722 -10.71436 -10.66282 -10.64326  -1.19537
 Alpha  occ. eigenvalues --   -0.92576  -0.75173  -0.67450  -0.56734  -0.55850
 Alpha  occ. eigenvalues --   -0.50763  -0.47066  -0.46457  -0.34499  -0.33673
 Alpha virt. eigenvalues --   -0.01719   0.05546   0.07189   0.08045   0.09534
 Alpha virt. eigenvalues --    0.12344   0.14039   0.15373   0.17901   0.18892
 Alpha virt. eigenvalues --    0.20062   0.21581   0.25017   0.26647   0.28631

 Mulliken charges:
               1
     1  C    0.159865
     2  O   -0.346961
     3  C   -0.059239
     4  C   -0.124651
     5  H    0.112100
     6  H    0.081277
     7  H    0.101668
     8  H    0.075941
 Sum of Mulliken charges =   0.00000

 Dipole moment (field-independent basis, Debye):
    X=              3.4930    Y=              0.6773    Z=              0.2013  Tot=              3.5637
 Quadrupole moment (field-independent basis, Debye-Ang):
   XX=            -27.6037   YY=            -21.5792   ZZ=            -25.2817
   XY=             -0.8176   XZ=             -0.2028   YZ=             -0.0977

 Normal termination of Gaussian 09 at Wed Aug 26 09:51:06 2020.
