 Gaussian 09, Revision D.01,
 Gaussian 09:  ES64L-G09RevD.01 24-Apr-2013

 --------------------
 #p B2PLYPD3/Def2QZVP
 --------------------

 --------
 acrolein
 --------
 Symbolic Z-matrix:
 Charge =  0 Multiplicity = 1

                         Standard orientation:
 ---------------------------------------------------------------------
 Center     Atomic      Atomic             Coordinates (Angstroms)
 Number     Number       Type             X           Y           Z
 ---------------------------------------------------------------------
      1          6           0       -0.647738    0.316716   -0.039337
      2          8           0       -1.805392   -0.096008    0.042080
      3          6           0        0.576308   -0.473258   -0.030261
      4          6           0        1.744908    0.161882    0.014688
      5          1           0        0.450695   -1.533107   -0.096682
      6          1           0        1.774153    1.218421    0.018116
      7          1           0        2.634538   -0.389611    0.145493
      8          1           0       -0.457111    1.440321   -0.074104
 ---------------------------------------------------------------------

 SCF Done:  E(RB2PLYPD3) =  -191.612144732     A.U. after   13 cycles
 E2(B2PLYPD3) =    -0.2482917815D+00 E(B2PLYPD3) =    -0.19186043651398D+03

 The electronic state is 1-A.
 Alpha  occ. eigenvalues --  -19.72829 -10.71940 -10.65310 -10.64531  -1.18154
 Alpha  occ. eigenvalues --   -0.93922  -0.76053  -0.67004  -0.56904  -0.56165
 Alpha  occ. eigenvalues --   -0.50146  -0.48113  -0.46067  -0.34900  -0.33670
 Alpha virt. eigenvalues --   -0.02184   0.05803   0.07026   0.08046   0.09747
 Alpha virt. eigenvalues --    0.12780   0.13801   0.15136   0.17327   0.19866
 Alpha virt. eigenvalues --    0.20108   0.21720   0.25137   0.26590   0.28859

 Mulliken charges:
               1
     1  C    0.154612
     2  O   -0.359927
     3  C   -0.021920
     4  C   -0.126102
     5  H    0.103877
     6  H    0.091685
     7  H    0.103911
     8  H    0.053864
 Sum of Mulliken charges =   0.00000

 Dipole moment (field-independent basis, Debye):
    X=              3.7273    Y=              0.5964    Z=             -0.1071  Tot=              3.7763
 Quadrupole moment (field-independent basis, Debye-Ang):
   XX=            -27.7038   YY=            -21.7850   ZZ=            -25.1534
   XY=             -0.6893   XZ=              0.5374   YZ=              0.0547

 Normal termination of Gaussian 09 at Wed Aug 26 09:01:51 2020.
