 Gaussian 09, Revision D.01,
 Gaussian 09:  ES64L-G09RevD.01 24-Apr-2013

 --------------------
 #p B2PLYPD3/Def2QZVP
 --------------------

 --------
 acrolein
 --------
 Symbolic Z-matrix:
 Charge =  0 Multiplicity = 1

                         Standard orientation:
 ---------------------------------------------------------------------
 Center     Atomic      Atomic             Coordinates (Angstroms)
 Number     Number       Type             X           Y           Z
 ---------------------------------------------------------------------
      1          6           0       -0.684788    0.316335    0.094006
      2          8           0       -1.803001   -0.084906   -0.064702
      3          6           0        0.581880   -0.489099    0.014173
      4          6           0        1.761249    0.138901   -0.047551
      5          1           0        0.433796   -1.497617    0.097681
      6          1           0        2.073709    1.380860   -0.090534
      7          1           0        2.517190   -0.439635    0.043077
      8          1           0       -0.550728    1.438816    0.103619
 ---------------------------------------------------------------------

 SCF Done:  E(RB2PLYPD3) =  -191.572593609     A.U. after   13 cycles
 E2(B2PLYPD3) =    -0.2475530670D+00 E(B2PLYPD3) =    -0.19182014667546D+03

 The electronic state is 1-A.
 Alpha  occ. eigenvalues --  -19.72853 -10.71541 -10.65967 -10.64521  -1.20212
 Alpha  occ. eigenvalues --   -0.92921  -0.75710  -0.66483  -0.57433  -0.55063
 Alpha  occ. eigenvalues --   -0.51097  -0.46853  -0.46421  -0.34813  -0.33187
 Alpha virt. eigenvalues --   -0.01596   0.05134   0.07317   0.07939   0.09256
 Alpha virt. eigenvalues --    0.12049   0.14052   0.15325   0.17774   0.18566
 Alpha virt. eigenvalues --    0.19969   0.22366   0.24889   0.26425   0.27992

 Mulliken charges:
               1
     1  C    0.165664
     2  O   -0.335832
     3  C   -0.064089
     4  C   -0.123589
     5  H    0.105506
     6  H    0.089859
     7  H    0.105779
     8  H    0.056703
 Sum of Mulliken charges =   0.00000

 Dipole moment (field-independent basis, Debye):
    X=              3.4441    Y=              0.5401    Z=              0.3341  Tot=              3.5021
 Quadrupole moment (field-independent basis, Debye-Ang):
   XX=            -27.4156   YY=            -21.6133   ZZ=            -25.2685
   XY=             -0.3826   XZ=             -0.2999   YZ=             -0.2944

 Normal termination of Gaussian 09 at Wed Aug 26 13:30:15 2020.
