 Gaussian 09, Revision D.01,
 Gaussian 09:  ES64L-G09RevD.01 24-Apr-2013

 --------------------
 #p B2PLYPD3/Def2QZVP
 --------------------

 --------
 acrolein
 --------
 Symbolic Z-matrix:
 Charge =  0 Multiplicity = 1

                         Standard orientation:
 ---------------------------------------------------------------------
 Center     Atomic      Atomic             Coordinates (Angstroms)
 Number     Number       Type             X           Y           Z
 ---------------------------------------------------------------------
      1          6           0       -0.676123    0.361047   -0.038259
      2          8           0       -1.793588   -0.138421    0.043788
      3          6           0        0.556427   -0.424574   -0.045244
      4          6           0        1.768159    0.132316    0.007388
      5          1           0        0.404549   -1.541689   -0.066863
      6          1           0        1.813580    1.135280    0.045096
      7          1           0        2.723595   -0.439701    0.172426
      8          1           0       -0.483801    1.540745   -0.044273
 ---------------------------------------------------------------------

 SCF Done:  E(RB2PLYPD3) =  -191.602210248     A.U. after   13 cycles
 E2(B2PLYPD3) =    -0.2491694523D+00 E(B2PLYPD3) =    -0.19185137970002D+03

 The electronic state is 1-A.
 Alpha  occ. eigenvalues --  -19.73343 -10.72876 -10.65323 -10.64999  -1.18906
 Alpha  occ. eigenvalues --   -0.93220  -0.75749  -0.65977  -0.56372  -0.56123
 Alpha  occ. eigenvalues --   -0.50327  -0.46758  -0.46237  -0.34726  -0.34011
 Alpha virt. eigenvalues --   -0.02303   0.05659   0.06738   0.08083   0.09843
 Alpha virt. eigenvalues --    0.12384   0.13672   0.15275   0.16947   0.19543
 Alpha virt. eigenvalues --    0.20292   0.21823   0.25280   0.26168   0.28783

 Mulliken charges:
               1
     1  C    0.160224
     2  O   -0.349698
     3  C   -0.025135
     4  C   -0.128510
     5  H    0.099966
     6  H    0.086537
     7  H    0.104191
     8  H    0.052424
 Sum of Mulliken charges =   0.00000

 Dipole moment (field-independent basis, Debye):
    X=              3.5300    Y=              0.7546    Z=             -0.0182  Tot=              3.6098
 Quadrupole moment (field-independent basis, Debye-Ang):
   XX=            -27.2955   YY=            -22.0313   ZZ=            -25.3140
   XY=             -0.9241   XZ=              0.6852   YZ=              0.0140

 Normal termination of Gaussian 09 at Wed Aug 26 08:53:08 2020.
