 Gaussian 09, Revision D.01,
 Gaussian 09:  ES64L-G09RevD.01 24-Apr-2013

 --------------------
 #p B2PLYPD3/Def2QZVP
 --------------------

 --------
 acrolein
 --------
 Symbolic Z-matrix:
 Charge =  0 Multiplicity = 1

                         Standard orientation:
 ---------------------------------------------------------------------
 Center     Atomic      Atomic             Coordinates (Angstroms)
 Number     Number       Type             X           Y           Z
 ---------------------------------------------------------------------
      1          6           0        0.657829    0.341487    0.018797
      2          8           0        1.789107   -0.118766   -0.023051
      3          6           0       -0.550153   -0.440940    0.051029
      4          6           0       -1.749741    0.136745   -0.031270
      5          1           0       -0.406758   -1.506902   -0.041935
      6          1           0       -1.805858    1.214104   -0.002841
      7          1           0       -2.742173   -0.435007   -0.023102
      8          1           0        0.494319    1.454178    0.020942
 ---------------------------------------------------------------------

 SCF Done:  E(RB2PLYPD3) =  -191.611424898     A.U. after   13 cycles
 E2(B2PLYPD3) =    -0.2483027133D+00 E(B2PLYPD3) =    -0.19185972761171D+03

 The electronic state is 1-A.
 Alpha  occ. eigenvalues --  -19.72771 -10.71624 -10.66461 -10.64355  -1.18830
 Alpha  occ. eigenvalues --   -0.93486  -0.75577  -0.66867  -0.56458  -0.55981
 Alpha  occ. eigenvalues --   -0.50160  -0.46799  -0.46401  -0.34810  -0.33874
 Alpha virt. eigenvalues --   -0.02247   0.05562   0.07018   0.08238   0.09782
 Alpha virt. eigenvalues --    0.12369   0.13686   0.15202   0.17583   0.19770
 Alpha virt. eigenvalues --    0.19939   0.21234   0.25156   0.26524   0.29031

 Mulliken charges:
               1
     1  C    0.155435
     2  O   -0.356751
     3  C   -0.029068
     4  C   -0.122891
     5  H    0.106977
     6  H    0.084435
     7  H    0.101517
     8  H    0.060347
 Sum of Mulliken charges =   0.00000

 Dipole moment (field-independent basis, Debye):
    X=             -3.6398    Y=              0.7223    Z=              0.0162  Tot=              3.7108
 Quadrupole moment (field-independent basis, Debye-Ang):
   XX=            -27.3440   YY=            -21.9331   ZZ=            -25.2585
   XY=              0.8862   XZ=              0.2001   YZ=              0.1074

 Normal termination of Gaussian 09 at Wed Aug 26 09:10:46 2020.
