 Gaussian 09, Revision D.01,
 Gaussian 09:  ES64L-G09RevD.01 24-Apr-2013

 --------------------
 #p B2PLYPD3/Def2QZVP
 --------------------

 --------
 acrolein
 --------
 Symbolic Z-matrix:
 Charge =  0 Multiplicity = 1

                         Standard orientation:
 ---------------------------------------------------------------------
 Center     Atomic      Atomic             Coordinates (Angstroms)
 Number     Number       Type             X           Y           Z
 ---------------------------------------------------------------------
      1          6           0        0.660596    0.325135    0.000431
      2          8           0        1.787259   -0.105902    0.022776
      3          6           0       -0.553068   -0.466852   -0.048896
      4          6           0       -1.749949    0.147631    0.014346
      5          1           0       -0.449461   -1.496040   -0.027075
      6          1           0       -1.853732    1.230608   -0.018728
      7          1           0       -2.657509   -0.402599    0.132678
      8          1           0        0.517161    1.479758   -0.064373
 ---------------------------------------------------------------------

 SCF Done:  E(RB2PLYPD3) =  -191.611880661     A.U. after   13 cycles
 E2(B2PLYPD3) =    -0.2474064393D+00 E(B2PLYPD3) =    -0.19185928710047D+03

 The electronic state is 1-A.
 Alpha  occ. eigenvalues --  -19.72662 -10.71732 -10.65890 -10.64260  -1.19675
 Alpha  occ. eigenvalues --   -0.93245  -0.75706  -0.66842  -0.56756  -0.56299
 Alpha  occ. eigenvalues --   -0.50288  -0.47888  -0.46897  -0.34596  -0.33498
 Alpha virt. eigenvalues --   -0.02060   0.05756   0.07156   0.08323   0.09701
 Alpha virt. eigenvalues --    0.12519   0.13976   0.15311   0.17559   0.19870
 Alpha virt. eigenvalues --    0.19896   0.21540   0.25142   0.26281   0.28720

 Mulliken charges:
               1
     1  C    0.157435
     2  O   -0.345767
     3  C   -0.037763
     4  C   -0.123523
     5  H    0.110229
     6  H    0.090248
     7  H    0.100060
     8  H    0.049081
 Sum of Mulliken charges =   0.00000

 Dipole moment (field-independent basis, Debye):
    X=             -3.6052    Y=              0.5946    Z=              0.0103  Tot=              3.6539
 Quadrupole moment (field-independent basis, Debye-Ang):
   XX=            -27.2630   YY=            -21.8792   ZZ=            -25.1917
   XY=              0.7250   XZ=             -0.4153   YZ=             -0.1032

 Normal termination of Gaussian 09 at Wed Aug 26 09:54:06 2020.
