 Gaussian 09, Revision D.01,
 Gaussian 09:  ES64L-G09RevD.01 24-Apr-2013

 --------------------
 #p B2PLYPD3/Def2QZVP
 --------------------

 --------
 acrolein
 --------
 Symbolic Z-matrix:
 Charge =  0 Multiplicity = 1

                         Standard orientation:
 ---------------------------------------------------------------------
 Center     Atomic      Atomic             Coordinates (Angstroms)
 Number     Number       Type             X           Y           Z
 ---------------------------------------------------------------------
      1          6           0       -0.673937    0.340878    0.039069
      2          8           0       -1.782791   -0.105438   -0.046914
      3          6           0        0.569968   -0.457350    0.041780
      4          6           0        1.776654    0.121497   -0.058476
      5          1           0        0.417110   -1.519148    0.066818
      6          1           0        1.944640    1.409507   -0.042770
      7          1           0        2.520738   -0.427481    0.052591
      8          1           0       -0.656274    1.350479    0.164438
 ---------------------------------------------------------------------

 SCF Done:  E(RB2PLYPD3) =  -191.566315313     A.U. after   13 cycles
 E2(B2PLYPD3) =    -0.2467500705D+00 E(B2PLYPD3) =    -0.19181306538325D+03

 The electronic state is 1-A.
 Alpha  occ. eigenvalues --  -19.72323 -10.70187 -10.65868 -10.64685  -1.20148
 Alpha  occ. eigenvalues --   -0.92820  -0.76528  -0.67827  -0.57641  -0.55779
 Alpha  occ. eigenvalues --   -0.51039  -0.46778  -0.45718  -0.34659  -0.33598
 Alpha virt. eigenvalues --   -0.01711   0.05144   0.07170   0.08415   0.09456
 Alpha virt. eigenvalues --    0.11879   0.14172   0.15533   0.17621   0.18307
 Alpha virt. eigenvalues --    0.19980   0.22576   0.24951   0.26431   0.28530

 Mulliken charges:
               1
     1  C    0.166907
     2  O   -0.346155
     3  C   -0.062121
     4  C   -0.134235
     5  H    0.104423
     6  H    0.077102
     7  H    0.118361
     8  H    0.075717
 Sum of Mulliken charges =   0.00000

 Dipole moment (field-independent basis, Debye):
    X=              3.3412    Y=              0.6994    Z=              0.2879  Tot=              3.4257
 Quadrupole moment (field-independent basis, Debye-Ang):
   XX=            -27.6885   YY=            -21.4172   ZZ=            -25.1935
   XY=             -1.0410   XZ=             -0.1642   YZ=             -0.0991

 Normal termination of Gaussian 09 at Wed Aug 26 14:02:29 2020.
