 Gaussian 09, Revision D.01,
 Gaussian 09:  ES64L-G09RevD.01 24-Apr-2013

 --------------------
 #p B2PLYPD3/Def2QZVP
 --------------------

 --------
 acrolein
 --------
 Symbolic Z-matrix:
 Charge =  0 Multiplicity = 1

                         Standard orientation:
 ---------------------------------------------------------------------
 Center     Atomic      Atomic             Coordinates (Angstroms)
 Number     Number       Type             X           Y           Z
 ---------------------------------------------------------------------
      1          6           0        0.685595    0.377292   -0.043927
      2          8           0        1.758933   -0.142922    0.034470
      3          6           0       -0.540564   -0.438038   -0.002552
      4          6           0       -1.762227    0.135386    0.002435
      5          1           0       -0.389813   -1.520746   -0.057459
      6          1           0       -1.855913    1.208201    0.147037
      7          1           0       -2.713390   -0.461163   -0.007060
      8          1           0        0.590830    1.469241   -0.094007
 ---------------------------------------------------------------------

 SCF Done:  E(RB2PLYPD3) =  -191.613446619     A.U. after   12 cycles
 E2(B2PLYPD3) =    -0.2468767334D+00 E(B2PLYPD3) =    -0.19186032335229D+03

 The electronic state is 1-A.
 Alpha  occ. eigenvalues --  -19.72626 -10.71266 -10.65863 -10.64560  -1.20528
 Alpha  occ. eigenvalues --   -0.92044  -0.74791  -0.67002  -0.56727  -0.55813
 Alpha  occ. eigenvalues --   -0.50480  -0.47220  -0.46481  -0.34204  -0.33770
 Alpha virt. eigenvalues --   -0.01565   0.05715   0.07211   0.08024   0.09783
 Alpha virt. eigenvalues --    0.12290   0.14004   0.15377   0.17562   0.19554
 Alpha virt. eigenvalues --    0.20049   0.21407   0.25155   0.26449   0.28917

 Mulliken charges:
               1
     1  C    0.158961
     2  O   -0.340473
     3  C   -0.055299
     4  C   -0.134244
     5  H    0.109832
     6  H    0.084602
     7  H    0.098689
     8  H    0.077930
 Sum of Mulliken charges =   0.00000

 Dipole moment (field-independent basis, Debye):
    X=             -3.2442    Y=              0.8701    Z=             -0.0912  Tot=              3.3601
 Quadrupole moment (field-independent basis, Debye-Ang):
   XX=            -27.3184   YY=            -21.6487   ZZ=            -25.2911
   XY=              1.1285   XZ=             -0.3606   YZ=              0.2345

 Normal termination of Gaussian 09 at Wed Aug 26 09:07:12 2020.
