 Gaussian 09, Revision D.01,
 Gaussian 09:  ES64L-G09RevD.01 24-Apr-2013

 --------------------
 #p B2PLYPD3/Def2QZVP
 --------------------

 --------
 acrolein
 --------
 Symbolic Z-matrix:
 Charge =  0 Multiplicity = 1

                         Standard orientation:
 ---------------------------------------------------------------------
 Center     Atomic      Atomic             Coordinates (Angstroms)
 Number     Number       Type             X           Y           Z
 ---------------------------------------------------------------------
      1          6           0        0.644657    0.326612    0.028809
      2          8           0        1.804140   -0.098979   -0.035652
      3          6           0       -0.567756   -0.457112    0.038741
      4          6           0       -1.742550    0.146468   -0.040400
      5          1           0       -0.448593   -1.544096    0.093398
      6          1           0       -1.878451    1.222547    0.066213
      7          1           0       -2.612744   -0.396338   -0.095609
      8          1           0        0.500563    1.413911    0.058311
 ---------------------------------------------------------------------

 SCF Done:  E(RB2PLYPD3) =  -191.610908718     A.U. after   13 cycles
 E2(B2PLYPD3) =    -0.2480072915D+00 E(B2PLYPD3) =    -0.19185891600950D+03

 The electronic state is 1-A.
 Alpha  occ. eigenvalues --  -19.72580 -10.71407 -10.65255 -10.64639  -1.17754
 Alpha  occ. eigenvalues --   -0.94004  -0.76609  -0.67001  -0.57138  -0.56517
 Alpha  occ. eigenvalues --   -0.50131  -0.47466  -0.45816  -0.34889  -0.33750
 Alpha virt. eigenvalues --   -0.02272   0.05713   0.06993   0.08214   0.09670
 Alpha virt. eigenvalues --    0.12716   0.14193   0.15181   0.17242   0.19962
 Alpha virt. eigenvalues --    0.20100   0.21913   0.25058   0.26522   0.28494

 Mulliken charges:
               1
     1  C    0.152939
     2  O   -0.365659
     3  C   -0.026417
     4  C   -0.121833
     5  H    0.102932
     6  H    0.088194
     7  H    0.101104
     8  H    0.068740
 Sum of Mulliken charges =   0.00000

 Dipole moment (field-independent basis, Debye):
    X=             -3.8048    Y=              0.6811    Z=              0.1912  Tot=              3.8700
 Quadrupole moment (field-independent basis, Debye-Ang):
   XX=            -27.5844   YY=            -21.7093   ZZ=            -25.1098
   XY=              0.6804   XZ=              0.2515   YZ=              0.0362

 Normal termination of Gaussian 09 at Wed Aug 26 09:32:20 2020.
