 Gaussian 09, Revision D.01,
 Gaussian 09:  ES64L-G09RevD.01 24-Apr-2013

 --------------------
 #p B2PLYPD3/Def2QZVP
 --------------------

 --------
 acrolein
 --------
 Symbolic Z-matrix:
 Charge =  0 Multiplicity = 1

                         Standard orientation:
 ---------------------------------------------------------------------
 Center     Atomic      Atomic             Coordinates (Angstroms)
 Number     Number       Type             X           Y           Z
 ---------------------------------------------------------------------
      1          6           0       -0.667533    0.344687   -0.005266
      2          8           0       -1.780839   -0.111389    0.010192
      3          6           0        0.560849   -0.455435   -0.039309
      4          6           0        1.755806    0.131222   -0.005131
      5          1           0        0.439692   -1.533307    0.090269
      6          1           0        1.883575    1.277792    0.056312
      7          1           0        2.596311   -0.381722    0.064631
      8          1           0       -0.567602    1.405511    0.005494
 ---------------------------------------------------------------------

 SCF Done:  E(RB2PLYPD3) =  -191.605312962     A.U. after   12 cycles
 E2(B2PLYPD3) =    -0.2463307306D+00 E(B2PLYPD3) =    -0.19185164369230D+03

 The electronic state is 1-A.
 Alpha  occ. eigenvalues --  -19.72476 -10.70828 -10.65162 -10.64495  -1.19824
 Alpha  occ. eigenvalues --   -0.93060  -0.76153  -0.67201  -0.57430  -0.56343
 Alpha  occ. eigenvalues --   -0.50912  -0.47092  -0.46273  -0.34722  -0.33731
 Alpha virt. eigenvalues --   -0.01649   0.05738   0.07239   0.08306   0.09638
 Alpha virt. eigenvalues --    0.12521   0.14214   0.15391   0.17578   0.19484
 Alpha virt. eigenvalues --    0.19945   0.22110   0.25255   0.26525   0.28836

 Mulliken charges:
               1
     1  C    0.157270
     2  O   -0.347156
     3  C   -0.047928
     4  C   -0.122224
     5  H    0.103862
     6  H    0.075741
     7  H    0.105636
     8  H    0.074798
 Sum of Mulliken charges =   0.00000

 Dipole moment (field-independent basis, Debye):
    X=              3.4805    Y=              0.7461    Z=              0.1624  Tot=              3.5633
 Quadrupole moment (field-independent basis, Debye-Ang):
   XX=            -27.3602   YY=            -21.6793   ZZ=            -25.1046
   XY=             -0.9147   XZ=              0.3688   YZ=             -0.1151

 Normal termination of Gaussian 09 at Wed Aug 26 10:31:06 2020.
