 Gaussian 09, Revision D.01,
 Gaussian 09:  ES64L-G09RevD.01 24-Apr-2013

 --------------------
 #p B2PLYPD3/Def2QZVP
 --------------------

 --------
 acrolein
 --------
 Symbolic Z-matrix:
 Charge =  0 Multiplicity = 1

                         Standard orientation:
 ---------------------------------------------------------------------
 Center     Atomic      Atomic             Coordinates (Angstroms)
 Number     Number       Type             X           Y           Z
 ---------------------------------------------------------------------
      1          6           0        0.673986    0.344869    0.000866
      2          8           0        1.786927   -0.120256    0.011220
      3          6           0       -0.563509   -0.461779   -0.027313
      4          6           0       -1.756453    0.147978    0.007730
      5          1           0       -0.464174   -1.512980   -0.006711
      6          1           0       -1.828559    1.227817   -0.010317
      7          1           0       -2.649619   -0.413235    0.068539
      8          1           0        0.522796    1.474039   -0.028968
 ---------------------------------------------------------------------

 SCF Done:  E(RB2PLYPD3) =  -191.615642472     A.U. after   12 cycles
 E2(B2PLYPD3) =    -0.2470513951D+00 E(B2PLYPD3) =    -0.19186269386672D+03

 The electronic state is 1-A.
 Alpha  occ. eigenvalues --  -19.72834 -10.71860 -10.65262 -10.64311  -1.19794
 Alpha  occ. eigenvalues --   -0.92895  -0.75288  -0.66914  -0.56743  -0.56268
 Alpha  occ. eigenvalues --   -0.50538  -0.47613  -0.46870  -0.34586  -0.33701
 Alpha virt. eigenvalues --   -0.01676   0.05824   0.07193   0.08116   0.09751
 Alpha virt. eigenvalues --    0.12582   0.13958   0.15367   0.17511   0.19852
 Alpha virt. eigenvalues --    0.19946   0.21634   0.25340   0.26331   0.28771

 Mulliken charges:
               1
     1  C    0.156285
     2  O   -0.343656
     3  C   -0.042831
     4  C   -0.130449
     5  H    0.107842
     6  H    0.087176
     7  H    0.102416
     8  H    0.063218
 Sum of Mulliken charges =   0.00000

 Dipole moment (field-independent basis, Debye):
    X=             -3.4608    Y=              0.7006    Z=              0.0149  Tot=              3.5310
 Quadrupole moment (field-independent basis, Debye-Ang):
   XX=            -27.4249   YY=            -21.7270   ZZ=            -25.2200
   XY=              0.9308   XZ=             -0.2174   YZ=             -0.0691

 Normal termination of Gaussian 09 at Wed Aug 26 18:31:53 2020.
