 Gaussian 09, Revision D.01,
 Gaussian 09:  ES64L-G09RevD.01 24-Apr-2013

 --------------------
 #p B2PLYPD3/Def2QZVP
 --------------------

 --------
 acrolein
 --------
 Symbolic Z-matrix:
 Charge =  0 Multiplicity = 1

                         Standard orientation:
 ---------------------------------------------------------------------
 Center     Atomic      Atomic             Coordinates (Angstroms)
 Number     Number       Type             X           Y           Z
 ---------------------------------------------------------------------
      1          6           0       -0.643661    0.331863   -0.048316
      2          8           0       -1.802873   -0.104501    0.032355
      3          6           0        0.563814   -0.455351   -0.006559
      4          6           0        1.752055    0.153811    0.009284
      5          1           0        0.416378   -1.612133   -0.034428
      6          1           0        1.779368    1.238950    0.100610
      7          1           0        2.680756   -0.421572    0.004708
      8          1           0       -0.486769    1.448821   -0.056185
 ---------------------------------------------------------------------

 SCF Done:  E(RB2PLYPD3) =  -191.607390683     A.U. after   13 cycles
 E2(B2PLYPD3) =    -0.2496716007D+00 E(B2PLYPD3) =    -0.19185706228378D+03

 The electronic state is 1-A.
 Alpha  occ. eigenvalues --  -19.72750 -10.71911 -10.66221 -10.65450  -1.17620
 Alpha  occ. eigenvalues --   -0.93561  -0.75864  -0.65888  -0.56297  -0.56048
 Alpha  occ. eigenvalues --   -0.49775  -0.46383  -0.45981  -0.34754  -0.33856
 Alpha virt. eigenvalues --   -0.02509   0.05633   0.06489   0.08039   0.09715
 Alpha virt. eigenvalues --    0.12520   0.13844   0.15146   0.16803   0.19776
 Alpha virt. eigenvalues --    0.20115   0.21464   0.25165   0.26400   0.29090

 Mulliken charges:
               1
     1  C    0.158148
     2  O   -0.364826
     3  C   -0.024100
     4  C   -0.125718
     5  H    0.097083
     6  H    0.090017
     7  H    0.108666
     8  H    0.060729
 Sum of Mulliken charges =   0.00000

 Dipole moment (field-independent basis, Debye):
    X=              3.7632    Y=              0.6852    Z=             -0.0861  Tot=              3.8261
 Quadrupole moment (field-independent basis, Debye-Ang):
   XX=            -27.7398   YY=            -21.7021   ZZ=            -25.3685
   XY=             -0.8350   XZ=              0.2920   YZ=              0.1587

 Normal termination of Gaussian 09 at Wed Aug 26 08:59:29 2020.
