 Gaussian 09, Revision D.01,
 Gaussian 09:  ES64L-G09RevD.01 24-Apr-2013

 --------------------
 #p B2PLYPD3/Def2QZVP
 --------------------

 --------
 acrolein
 --------
 Symbolic Z-matrix:
 Charge =  0 Multiplicity = 1

                         Standard orientation:
 ---------------------------------------------------------------------
 Center     Atomic      Atomic             Coordinates (Angstroms)
 Number     Number       Type             X           Y           Z
 ---------------------------------------------------------------------
      1          6           0        0.670091    0.335832   -0.012327
      2          8           0        1.788335   -0.104562    0.013681
      3          6           0       -0.556689   -0.454913   -0.027532
      4          6           0       -1.754416    0.148267    0.005073
      5          1           0       -0.449195   -1.556234    0.024185
      6          1           0       -1.852474    1.240022    0.007286
      7          1           0       -2.687096   -0.394583    0.061012
      8          1           0        0.528169    1.372176    0.006777
 ---------------------------------------------------------------------

 SCF Done:  E(RB2PLYPD3) =  -191.614327597     A.U. after   12 cycles
 E2(B2PLYPD3) =    -0.2465530936D+00 E(B2PLYPD3) =    -0.19186088069067D+03

 The electronic state is 1-A.
 Alpha  occ. eigenvalues --  -19.72508 -10.70632 -10.65822 -10.64705  -1.19865
 Alpha  occ. eigenvalues --   -0.92876  -0.75804  -0.67461  -0.56951  -0.56251
 Alpha  occ. eigenvalues --   -0.50661  -0.46976  -0.46613  -0.34590  -0.33814
 Alpha virt. eigenvalues --   -0.01796   0.05722   0.07201   0.08394   0.09643
 Alpha virt. eigenvalues --    0.12628   0.14268   0.15357   0.17515   0.19726
 Alpha virt. eigenvalues --    0.19976   0.21548   0.25350   0.26653   0.28743

 Mulliken charges:
               1
     1  C    0.155250
     2  O   -0.348378
     3  C   -0.037017
     4  C   -0.130992
     5  H    0.101822
     6  H    0.083145
     7  H    0.102222
     8  H    0.073948
 Sum of Mulliken charges =   0.00000

 Dipole moment (field-independent basis, Debye):
    X=             -3.5293    Y=              0.7574    Z=              0.0400  Tot=              3.6098
 Quadrupole moment (field-independent basis, Debye-Ang):
   XX=            -27.3442   YY=            -21.7287   ZZ=            -25.1773
   XY=              0.8072   XZ=             -0.2502   YZ=             -0.0709

 Normal termination of Gaussian 09 at Wed Aug 26 19:10:28 2020.
