 Gaussian 09, Revision D.01,
 Gaussian 09:  ES64L-G09RevD.01 24-Apr-2013

 --------------------
 #p B2PLYPD3/Def2QZVP
 --------------------

 --------
 acrolein
 --------
 Symbolic Z-matrix:
 Charge =  0 Multiplicity = 1

                         Standard orientation:
 ---------------------------------------------------------------------
 Center     Atomic      Atomic             Coordinates (Angstroms)
 Number     Number       Type             X           Y           Z
 ---------------------------------------------------------------------
      1          6           0        0.680384    0.352855   -0.024958
      2          8           0        1.765162   -0.141264    0.034246
      3          6           0       -0.538907   -0.439043   -0.041764
      4          6           0       -1.747558    0.130692    0.033934
      5          1           0       -0.478711   -1.434088   -0.091750
      6          1           0       -1.799698    1.243293   -0.062402
      7          1           0       -2.739697   -0.456495    0.109437
      8          1           0        0.533300    1.510380   -0.032522
 ---------------------------------------------------------------------

 SCF Done:  E(RB2PLYPD3) =  -191.603600743     A.U. after   13 cycles
 E2(B2PLYPD3) =    -0.2471535296D+00 E(B2PLYPD3) =    -0.19185075427246D+03

 The electronic state is 1-A.
 Alpha  occ. eigenvalues --  -19.72874 -10.71886 -10.66484 -10.63370  -1.20751
 Alpha  occ. eigenvalues --   -0.93012  -0.74522  -0.67237  -0.56485  -0.56050
 Alpha  occ. eigenvalues --   -0.50437  -0.47712  -0.46571  -0.34509  -0.33796
 Alpha virt. eigenvalues --   -0.01618   0.05573   0.07136   0.08344   0.09743
 Alpha virt. eigenvalues --    0.12154   0.13731   0.15390   0.18017   0.19577
 Alpha virt. eigenvalues --    0.19943   0.20959   0.25369   0.26154   0.29068

 Mulliken charges:
               1
     1  C    0.155455
     2  O   -0.334953
     3  C   -0.040237
     4  C   -0.126991
     5  H    0.111753
     6  H    0.079536
     7  H    0.098188
     8  H    0.057249
 Sum of Mulliken charges =   0.00000

 Dipole moment (field-independent basis, Debye):
    X=             -3.3509    Y=              0.6876    Z=             -0.1497  Tot=              3.4240
 Quadrupole moment (field-independent basis, Debye-Ang):
   XX=            -27.1360   YY=            -21.9784   ZZ=            -25.2324
   XY=              1.2310   XZ=             -0.2906   YZ=             -0.0484

 Normal termination of Gaussian 09 at Wed Aug 26 09:59:07 2020.
