 Gaussian 09, Revision D.01,
 Gaussian 09:  ES64L-G09RevD.01 24-Apr-2013

 --------------------
 #p B2PLYPD3/Def2QZVP
 --------------------

 --------
 acrolein
 --------
 Symbolic Z-matrix:
 Charge =  0 Multiplicity = 1

                         Standard orientation:
 ---------------------------------------------------------------------
 Center     Atomic      Atomic             Coordinates (Angstroms)
 Number     Number       Type             X           Y           Z
 ---------------------------------------------------------------------
      1          6           0        0.677287    0.357905   -0.011190
      2          8           0        1.790243   -0.149104    0.012403
      3          6           0       -0.541657   -0.418802   -0.010445
      4          6           0       -1.752533    0.117098   -0.012599
      5          1           0       -0.557437   -1.428506    0.061286
      6          1           0       -1.846912    1.203601    0.197016
      7          1           0       -2.653273   -0.487190   -0.053696
      8          1           0        0.437100    1.567728   -0.098430
 ---------------------------------------------------------------------

 SCF Done:  E(RB2PLYPD3) =  -191.596711847     A.U. after   13 cycles
 E2(B2PLYPD3) =    -0.2491442661D+00 E(B2PLYPD3) =    -0.19184585611304D+03

 The electronic state is 1-A.
 Alpha  occ. eigenvalues --  -19.73457 -10.73167 -10.65685 -10.63388  -1.19210
 Alpha  occ. eigenvalues --   -0.93834  -0.75492  -0.66619  -0.56838  -0.55588
 Alpha  occ. eigenvalues --   -0.50371  -0.47306  -0.46307  -0.34733  -0.34026
 Alpha virt. eigenvalues --   -0.02316   0.05613   0.06874   0.08005   0.09771
 Alpha virt. eigenvalues --    0.12493   0.13323   0.15321   0.17738   0.19294
 Alpha virt. eigenvalues --    0.20228   0.21303   0.25026   0.26326   0.28424

 Mulliken charges:
               1
     1  C    0.163545
     2  O   -0.342494
     3  C   -0.027153
     4  C   -0.118165
     5  H    0.099254
     6  H    0.076697
     7  H    0.100376
     8  H    0.047940
 Sum of Mulliken charges =   0.00000

 Dipole moment (field-independent basis, Debye):
    X=             -3.5633    Y=              0.6286    Z=              0.1103  Tot=              3.6200
 Quadrupole moment (field-independent basis, Debye-Ang):
   XX=            -27.3094   YY=            -22.1393   ZZ=            -25.1938
   XY=              1.2667   XZ=             -0.2705   YZ=              0.1311

 Normal termination of Gaussian 09 at Wed Aug 26 11:19:36 2020.
