 Gaussian 09, Revision D.01,
 Gaussian 09:  ES64L-G09RevD.01 24-Apr-2013

 --------------------
 #p B2PLYPD3/Def2QZVP
 --------------------

 --------
 acrolein
 --------
 Symbolic Z-matrix:
 Charge =  0 Multiplicity = 1

                         Standard orientation:
 ---------------------------------------------------------------------
 Center     Atomic      Atomic             Coordinates (Angstroms)
 Number     Number       Type             X           Y           Z
 ---------------------------------------------------------------------
      1          6           0        0.670787    0.339770   -0.010409
      2          8           0        1.792009   -0.108205    0.027654
      3          6           0       -0.562374   -0.467377   -0.038943
      4          6           0       -1.759348    0.156189    0.017875
      5          1           0       -0.472319   -1.531910   -0.056858
      6          1           0       -1.855798    1.253782   -0.016359
      7          1           0       -2.689148   -0.393207    0.115526
      8          1           0        0.586809    1.365478   -0.074674
 ---------------------------------------------------------------------

 SCF Done:  E(RB2PLYPD3) =  -191.611767649     A.U. after   13 cycles
 E2(B2PLYPD3) =    -0.2467532545D+00 E(B2PLYPD3) =    -0.19185852090371D+03

 The electronic state is 1-A.
 Alpha  occ. eigenvalues --  -19.72353 -10.70602 -10.65994 -10.64677  -1.19462
 Alpha  occ. eigenvalues --   -0.92566  -0.75450  -0.68110  -0.57044  -0.56168
 Alpha  occ. eigenvalues --   -0.50412  -0.47324  -0.46474  -0.34380  -0.33687
 Alpha virt. eigenvalues --   -0.01790   0.05692   0.07335   0.08120   0.09590
 Alpha virt. eigenvalues --    0.12524   0.14297   0.15366   0.17726   0.19663
 Alpha virt. eigenvalues --    0.19948   0.21407   0.25169   0.26393   0.28932

 Mulliken charges:
               1
     1  C    0.153422
     2  O   -0.351688
     3  C   -0.047601
     4  C   -0.130947
     5  H    0.109810
     6  H    0.085741
     7  H    0.099539
     8  H    0.081723
 Sum of Mulliken charges =   0.00000

 Dipole moment (field-independent basis, Debye):
    X=             -3.5277    Y=              0.7858    Z=             -0.0657  Tot=              3.6147
 Quadrupole moment (field-independent basis, Debye-Ang):
   XX=            -27.4869   YY=            -21.5722   ZZ=            -25.2014
   XY=              0.9330   XZ=             -0.3919   YZ=             -0.0457

 Normal termination of Gaussian 09 at Wed Aug 26 08:43:16 2020.
