 Gaussian 09, Revision D.01,
 Gaussian 09:  ES64L-G09RevD.01 24-Apr-2013

 --------------------
 #p B2PLYPD3/Def2QZVP
 --------------------

 --------
 acrolein
 --------
 Symbolic Z-matrix:
 Charge =  0 Multiplicity = 1

                         Standard orientation:
 ---------------------------------------------------------------------
 Center     Atomic      Atomic             Coordinates (Angstroms)
 Number     Number       Type             X           Y           Z
 ---------------------------------------------------------------------
      1          6           0        0.663909    0.327340   -0.026860
      2          8           0        1.798426   -0.096651    0.034228
      3          6           0       -0.569395   -0.452890   -0.036764
      4          6           0       -1.767512    0.146846    0.002331
      5          1           0       -0.385774   -1.571083   -0.070302
      6          1           0       -1.853149    1.264473   -0.019827
      7          1           0       -2.661819   -0.407387    0.202817
      8          1           0        0.551317    1.359432   -0.018750
 ---------------------------------------------------------------------

 SCF Done:  E(RB2PLYPD3) =  -191.608299539     A.U. after   13 cycles
 E2(B2PLYPD3) =    -0.2474321629D+00 E(B2PLYPD3) =    -0.19185573170166D+03

 The electronic state is 1-A.
 Alpha  occ. eigenvalues --  -19.72507 -10.70579 -10.66217 -10.65181  -1.19217
 Alpha  occ. eigenvalues --   -0.92947  -0.76013  -0.67174  -0.56695  -0.56172
 Alpha  occ. eigenvalues --   -0.50580  -0.46900  -0.46149  -0.34651  -0.33696
 Alpha virt. eigenvalues --   -0.02123   0.05653   0.07106   0.08340   0.09651
 Alpha virt. eigenvalues --    0.12481   0.13979   0.15321   0.17402   0.19402
 Alpha virt. eigenvalues --    0.19806   0.21763   0.25143   0.26836   0.28758

 Mulliken charges:
               1
     1  C    0.162165
     2  O   -0.356050
     3  C   -0.036147
     4  C   -0.128556
     5  H    0.098881
     6  H    0.085031
     7  H    0.107092
     8  H    0.067584
 Sum of Mulliken charges =   0.00000

 Dipole moment (field-independent basis, Debye):
    X=             -3.5832    Y=              0.7346    Z=             -0.0160  Tot=              3.6577
 Quadrupole moment (field-independent basis, Debye-Ang):
   XX=            -27.5607   YY=            -21.7441   ZZ=            -25.1922
   XY=              0.7185   XZ=             -0.6212   YZ=             -0.0525

 Normal termination of Gaussian 09 at Wed Aug 26 09:22:50 2020.
