 Gaussian 09, Revision D.01,
 Gaussian 09:  ES64L-G09RevD.01 24-Apr-2013

 --------------------
 #p B2PLYPD3/Def2QZVP
 --------------------

 --------
 acrolein
 --------
 Symbolic Z-matrix:
 Charge =  0 Multiplicity = 1

                         Standard orientation:
 ---------------------------------------------------------------------
 Center     Atomic      Atomic             Coordinates (Angstroms)
 Number     Number       Type             X           Y           Z
 ---------------------------------------------------------------------
      1          6           0        0.674097    0.363022    0.011060
      2          8           0        1.787255   -0.131418   -0.023153
      3          6           0       -0.549478   -0.437253    0.004048
      4          6           0       -1.762478    0.119905   -0.028800
      5          1           0       -0.452090   -1.465755    0.110904
      6          1           0       -1.872706    1.213270   -0.050780
      7          1           0       -2.665898   -0.411621    0.049468
      8          1           0        0.519810    1.441406    0.157790
 ---------------------------------------------------------------------

 SCF Done:  E(RB2PLYPD3) =  -191.613433342     A.U. after   12 cycles
 E2(B2PLYPD3) =    -0.2472166206D+00 E(B2PLYPD3) =    -0.19186064996305D+03

 The electronic state is 1-A.
 Alpha  occ. eigenvalues --  -19.72870 -10.71635 -10.65294 -10.63905  -1.19130
 Alpha  occ. eigenvalues --   -0.93089  -0.75932  -0.67573  -0.56939  -0.56505
 Alpha  occ. eigenvalues --   -0.50909  -0.47129  -0.46223  -0.34585  -0.34003
 Alpha virt. eigenvalues --   -0.01984   0.05758   0.07262   0.08184   0.09704
 Alpha virt. eigenvalues --    0.12535   0.14192   0.15343   0.17830   0.19346
 Alpha virt. eigenvalues --    0.20087   0.21725   0.25188   0.26744   0.28865

 Mulliken charges:
               1
     1  C    0.154395
     2  O   -0.351618
     3  C   -0.043555
     4  C   -0.126378
     5  H    0.110649
     6  H    0.075078
     7  H    0.101425
     8  H    0.080003
 Sum of Mulliken charges =   0.00000

 Dipole moment (field-independent basis, Debye):
    X=             -3.5112    Y=              0.8120    Z=              0.2240  Tot=              3.6108
 Quadrupole moment (field-independent basis, Debye-Ang):
   XX=            -27.3084   YY=            -21.8175   ZZ=            -25.1280
   XY=              1.0030   XZ=              0.0070   YZ=             -0.1663

 Normal termination of Gaussian 09 at Wed Aug 26 08:49:34 2020.
