 Gaussian 09, Revision D.01,
 Gaussian 09:  ES64L-G09RevD.01 24-Apr-2013

 --------------------
 #p B2PLYPD3/Def2QZVP
 --------------------

 --------
 acrolein
 --------
 Symbolic Z-matrix:
 Charge =  0 Multiplicity = 1

                         Standard orientation:
 ---------------------------------------------------------------------
 Center     Atomic      Atomic             Coordinates (Angstroms)
 Number     Number       Type             X           Y           Z
 ---------------------------------------------------------------------
      1          6           0        0.658555    0.354879    0.041288
      2          8           0        1.787417   -0.155636   -0.058513
      3          6           0       -0.543263   -0.413738    0.042645
      4          6           0       -1.735745    0.131460   -0.070529
      5          1           0       -0.496896   -1.364329    0.190809
      6          1           0       -1.708021    1.063831   -0.131988
      7          1           0       -2.780214   -0.479630    0.058621
      8          1           0        0.408507    1.589607    0.270243
 ---------------------------------------------------------------------

 SCF Done:  E(RB2PLYPD3) =  -191.552172467     A.U. after   13 cycles
 E2(B2PLYPD3) =    -0.2503397749D+00 E(B2PLYPD3) =    -0.19180251224191D+03

 The electronic state is 1-A.
 Alpha  occ. eigenvalues --  -19.73703 -10.73668 -10.65057 -10.62748  -1.18256
 Alpha  occ. eigenvalues --   -0.95169  -0.76297  -0.68421  -0.56181  -0.55671
 Alpha  occ. eigenvalues --   -0.49994  -0.48124  -0.45940  -0.35116  -0.34039
 Alpha virt. eigenvalues --   -0.02592   0.05416   0.06214   0.08178   0.09850
 Alpha virt. eigenvalues --    0.12187   0.13189   0.15127   0.17696   0.19281
 Alpha virt. eigenvalues --    0.20619   0.21203   0.24783   0.26416   0.28826

 Mulliken charges:
               1
     1  C    0.147725
     2  O   -0.352201
     3  C   -0.002097
     4  C   -0.134965
     5  H    0.108076
     6  H    0.094708
     7  H    0.099870
     8  H    0.038885
 Sum of Mulliken charges =   0.00000

 Dipole moment (field-independent basis, Debye):
    X=             -3.6273    Y=              0.6255    Z=              0.3527  Tot=              3.6977
 Quadrupole moment (field-independent basis, Debye-Ang):
   XX=            -27.2265   YY=            -22.3378   ZZ=            -25.0814
   XY=              1.1713   XZ=              0.1498   YZ=             -0.2989

 Normal termination of Gaussian 09 at Wed Aug 26 13:31:17 2020.
