 Gaussian 09, Revision D.01,
 Gaussian 09:  ES64L-G09RevD.01 24-Apr-2013

 --------------------
 #p B2PLYPD3/Def2QZVP
 --------------------

 --------
 acrolein
 --------
 Symbolic Z-matrix:
 Charge =  0 Multiplicity = 1

                         Standard orientation:
 ---------------------------------------------------------------------
 Center     Atomic      Atomic             Coordinates (Angstroms)
 Number     Number       Type             X           Y           Z
 ---------------------------------------------------------------------
      1          6           0       -0.657687    0.325047    0.021825
      2          8           0       -1.765574   -0.128112   -0.062816
      3          6           0        0.518914   -0.390559    0.039710
      4          6           0        1.762969    0.120744   -0.023106
      5          1           0        0.369428   -1.545852    0.193339
      6          1           0        1.774669    1.147919   -0.242026
      7          1           0        2.777196   -0.440706   -0.044748
      8          1           0       -0.541870    1.532142    0.365391
 ---------------------------------------------------------------------

 SCF Done:  E(RB2PLYPD3) =  -191.583404969     A.U. after   13 cycles
 E2(B2PLYPD3) =    -0.2497095044D+00 E(B2PLYPD3) =    -0.19183311447371D+03

 The electronic state is 1-A.
 Alpha  occ. eigenvalues --  -19.73076 -10.72168 -10.66814 -10.65187  -1.20524
 Alpha  occ. eigenvalues --   -0.93865  -0.76814  -0.64240  -0.56705  -0.56097
 Alpha  occ. eigenvalues --   -0.50783  -0.47782  -0.44607  -0.34928  -0.33383
 Alpha virt. eigenvalues --   -0.02925   0.05499   0.05970   0.08515   0.09807
 Alpha virt. eigenvalues --    0.12390   0.13889   0.15038   0.16854   0.18639
 Alpha virt. eigenvalues --    0.20455   0.21019   0.24738   0.27005   0.29005

 Mulliken charges:
               1
     1  C    0.151327
     2  O   -0.329796
     3  C   -0.020013
     4  C   -0.116909
     5  H    0.093312
     6  H    0.086450
     7  H    0.111480
     8  H    0.024150
 Sum of Mulliken charges =   0.00000

 Dipole moment (field-independent basis, Debye):
    X=              3.6228    Y=              0.4826    Z=              0.1384  Tot=              3.6574
 Quadrupole moment (field-independent basis, Debye-Ang):
   XX=            -26.5038   YY=            -22.7204   ZZ=            -25.2550
   XY=             -0.9535   XZ=             -0.6837   YZ=             -0.4171

 Normal termination of Gaussian 09 at Wed Aug 26 14:22:53 2020.
