 Gaussian 09, Revision D.01,
 Gaussian 09:  ES64L-G09RevD.01 24-Apr-2013

 --------------------
 #p B2PLYPD3/Def2QZVP
 --------------------

 --------
 acrolein
 --------
 Symbolic Z-matrix:
 Charge =  0 Multiplicity = 1

                         Standard orientation:
 ---------------------------------------------------------------------
 Center     Atomic      Atomic             Coordinates (Angstroms)
 Number     Number       Type             X           Y           Z
 ---------------------------------------------------------------------
      1          6           0       -0.697514    0.385374    0.036520
      2          8           0       -1.769283   -0.142889   -0.043973
      3          6           0        0.552267   -0.438559    0.006883
      4          6           0        1.764114    0.127956   -0.014791
      5          1           0        0.394577   -1.515126    0.160233
      6          1           0        1.899324    1.204931   -0.098168
      7          1           0        2.704274   -0.442091   -0.045019
      8          1           0       -0.557116    1.446774    0.163063
 ---------------------------------------------------------------------

 SCF Done:  E(RB2PLYPD3) =  -191.613871268     A.U. after   12 cycles
 E2(B2PLYPD3) =    -0.2466231083D+00 E(B2PLYPD3) =    -0.19186049437615D+03

 The electronic state is 1-A.
 Alpha  occ. eigenvalues --  -19.72926 -10.71463 -10.65345 -10.64495  -1.20495
 Alpha  occ. eigenvalues --   -0.91978  -0.74943  -0.67194  -0.56798  -0.55798
 Alpha  occ. eigenvalues --   -0.51098  -0.47233  -0.45934  -0.34392  -0.33836
 Alpha virt. eigenvalues --   -0.01300   0.05774   0.07185   0.07969   0.09673
 Alpha virt. eigenvalues --    0.12406   0.13993   0.15245   0.17811   0.19391
 Alpha virt. eigenvalues --    0.20018   0.21618   0.25083   0.26900   0.28696

 Mulliken charges:
               1
     1  C    0.160656
     2  O   -0.338584
     3  C   -0.060559
     4  C   -0.132040
     5  H    0.108995
     6  H    0.077802
     7  H    0.097501
     8  H    0.086229
 Sum of Mulliken charges =   0.00000

 Dipole moment (field-independent basis, Debye):
    X=              3.2019    Y=              0.9321    Z=              0.2185  Tot=              3.3420
 Quadrupole moment (field-independent basis, Debye-Ang):
   XX=            -27.2947   YY=            -21.6976   ZZ=            -25.2355
   XY=             -0.9782   XZ=             -0.4169   YZ=             -0.2490

 Normal termination of Gaussian 09 at Wed Aug 26 08:41:10 2020.
