 Gaussian 09, Revision D.01,
 Gaussian 09:  ES64L-G09RevD.01 24-Apr-2013

 --------------------
 #p B2PLYPD3/Def2QZVP
 --------------------

 --------
 acrolein
 --------
 Symbolic Z-matrix:
 Charge =  0 Multiplicity = 1

                         Standard orientation:
 ---------------------------------------------------------------------
 Center     Atomic      Atomic             Coordinates (Angstroms)
 Number     Number       Type             X           Y           Z
 ---------------------------------------------------------------------
      1          6           0        0.675910    0.357873   -0.010305
      2          8           0        1.775166   -0.129273    0.013644
      3          6           0       -0.558013   -0.446429   -0.013140
      4          6           0       -1.751448    0.141814    0.003054
      5          1           0       -0.436677   -1.531504   -0.040173
      6          1           0       -1.818683    1.228073   -0.015051
      7          1           0       -2.681186   -0.434655    0.076294
      8          1           0        0.536525    1.452725   -0.007874
 ---------------------------------------------------------------------

 SCF Done:  E(RB2PLYPD3) =  -191.616951307     A.U. after   12 cycles
 E2(B2PLYPD3) =    -0.2467516566D+00 E(B2PLYPD3) =    -0.19186370296386D+03

 The electronic state is 1-A.
 Alpha  occ. eigenvalues --  -19.72753 -10.71447 -10.65482 -10.64335  -1.20027
 Alpha  occ. eigenvalues --   -0.92825  -0.75049  -0.66895  -0.56556  -0.56273
 Alpha  occ. eigenvalues --   -0.50599  -0.47120  -0.46612  -0.34648  -0.33811
 Alpha virt. eigenvalues --   -0.01487   0.05762   0.07119   0.08210   0.09774
 Alpha virt. eigenvalues --    0.12471   0.13977   0.15383   0.17477   0.19731
 Alpha virt. eigenvalues --    0.19924   0.21544   0.25597   0.26414   0.28885

 Mulliken charges:
               1
     1  C    0.155455
     2  O   -0.344042
     3  C   -0.042077
     4  C   -0.132705
     5  H    0.105349
     6  H    0.083624
     7  H    0.102647
     8  H    0.071749
 Sum of Mulliken charges =   0.00000

 Dipole moment (field-independent basis, Debye):
    X=             -3.3782    Y=              0.7867    Z=             -0.0262  Tot=              3.4687
 Quadrupole moment (field-independent basis, Debye-Ang):
   XX=            -27.4369   YY=            -21.6952   ZZ=            -25.2225
   XY=              1.0387   XZ=             -0.2136   YZ=             -0.0129

 Normal termination of Gaussian 09 at Wed Aug 26 15:38:22 2020.
