 Gaussian 09, Revision D.01,
 Gaussian 09:  ES64L-G09RevD.01 24-Apr-2013

 --------------------
 #p B2PLYPD3/Def2QZVP
 --------------------

 --------
 acrolein
 --------
 Symbolic Z-matrix:
 Charge =  0 Multiplicity = 1

                         Standard orientation:
 ---------------------------------------------------------------------
 Center     Atomic      Atomic             Coordinates (Angstroms)
 Number     Number       Type             X           Y           Z
 ---------------------------------------------------------------------
      1          6           0        0.671774    0.345231    0.012743
      2          8           0        1.805668   -0.102416   -0.028249
      3          6           0       -0.585041   -0.483040    0.045811
      4          6           0       -1.758296    0.144228   -0.044153
      5          1           0       -0.415477   -1.565083    0.063023
      6          1           0       -1.882043    1.283298    0.063919
      7          1           0       -2.562245   -0.401626   -0.064067
      8          1           0        0.443802    1.464225    0.076707
 ---------------------------------------------------------------------

 SCF Done:  E(RB2PLYPD3) =  -191.599407252     A.U. after   13 cycles
 E2(B2PLYPD3) =    -0.2482882627D+00 E(B2PLYPD3) =    -0.19184769551442D+03

 The electronic state is 1-A.
 Alpha  occ. eigenvalues --  -19.73167 -10.72316 -10.65036 -10.64909  -1.19046
 Alpha  occ. eigenvalues --   -0.92954  -0.75719  -0.66136  -0.57325  -0.55124
 Alpha  occ. eigenvalues --   -0.50844  -0.47297  -0.46259  -0.34790  -0.33646
 Alpha virt. eigenvalues --   -0.01692   0.05661   0.07025   0.07799   0.09667
 Alpha virt. eigenvalues --    0.12589   0.13867   0.15285   0.17069   0.19553
 Alpha virt. eigenvalues --    0.19985   0.22167   0.24791   0.26634   0.28068

 Mulliken charges:
               1
     1  C    0.167520
     2  O   -0.348904
     3  C   -0.049610
     4  C   -0.126411
     5  H    0.104349
     6  H    0.085567
     7  H    0.105482
     8  H    0.062008
 Sum of Mulliken charges =   0.00000

 Dipole moment (field-independent basis, Debye):
    X=             -3.5006    Y=              0.6427    Z=              0.1553  Tot=              3.5625
 Quadrupole moment (field-independent basis, Debye-Ang):
   XX=            -27.7436   YY=            -21.6201   ZZ=            -25.2861
   XY=              0.5689   XZ=              0.1604   YZ=              0.0879

 Normal termination of Gaussian 09 at Wed Aug 26 08:38:53 2020.
