 Gaussian 09, Revision D.01,
 Gaussian 09:  ES64L-G09RevD.01 24-Apr-2013

 --------------------
 #p B2PLYPD3/Def2QZVP
 --------------------

 --------
 acrolein
 --------
 Symbolic Z-matrix:
 Charge =  0 Multiplicity = 1

                         Standard orientation:
 ---------------------------------------------------------------------
 Center     Atomic      Atomic             Coordinates (Angstroms)
 Number     Number       Type             X           Y           Z
 ---------------------------------------------------------------------
      1          6           0       -0.667758    0.344281   -0.002896
      2          8           0       -1.792738   -0.116231   -0.006479
      3          6           0        0.560300   -0.444836    0.021665
      4          6           0        1.760737    0.137804   -0.011703
      5          1           0        0.445538   -1.546089    0.010828
      6          1           0        1.839704    1.225957    0.045385
      7          1           0        2.665222   -0.398409   -0.052216
      8          1           0       -0.528231    1.424901    0.005442
 ---------------------------------------------------------------------

 SCF Done:  E(RB2PLYPD3) =  -191.615627572     A.U. after   12 cycles
 E2(B2PLYPD3) =    -0.2472750624D+00 E(B2PLYPD3) =    -0.19186290263449D+03

 The electronic state is 1-A.
 Alpha  occ. eigenvalues --  -19.72718 -10.71377 -10.65434 -10.64687  -1.19166
 Alpha  occ. eigenvalues --   -0.93113  -0.75955  -0.66901  -0.56845  -0.56461
 Alpha  occ. eigenvalues --   -0.50654  -0.46762  -0.46496  -0.34678  -0.33896
 Alpha virt. eigenvalues --   -0.01976   0.05762   0.07128   0.08273   0.09706
 Alpha virt. eigenvalues --    0.12576   0.14205   0.15330   0.17323   0.19793
 Alpha virt. eigenvalues --    0.19985   0.21728   0.25368   0.26448   0.28851

 Mulliken charges:
               1
     1  C    0.156011
     2  O   -0.352033
     3  C   -0.035325
     4  C   -0.128817
     5  H    0.101011
     6  H    0.081820
     7  H    0.105769
     8  H    0.071565
 Sum of Mulliken charges =   0.00000

 Dipole moment (field-independent basis, Debye):
    X=              3.5714    Y=              0.7587    Z=              0.0135  Tot=              3.6511
 Quadrupole moment (field-independent basis, Debye-Ang):
   XX=            -27.3712   YY=            -21.7749   ZZ=            -25.1982
   XY=             -0.9283   XZ=             -0.0946   YZ=              0.0852

 Normal termination of Gaussian 09 at Wed Aug 26 18:54:52 2020.
