 Gaussian 09, Revision D.01,
 Gaussian 09:  ES64L-G09RevD.01 24-Apr-2013

 --------------------
 #p B2PLYPD3/Def2QZVP
 --------------------

 --------
 acrolein
 --------
 Symbolic Z-matrix:
 Charge =  0 Multiplicity = 1

                         Standard orientation:
 ---------------------------------------------------------------------
 Center     Atomic      Atomic             Coordinates (Angstroms)
 Number     Number       Type             X           Y           Z
 ---------------------------------------------------------------------
      1          6           0        0.686696    0.346789   -0.046458
      2          8           0        1.768513   -0.136108    0.041901
      3          6           0       -0.548487   -0.432745   -0.051370
      4          6           0       -1.760852    0.154182    0.031259
      5          1           0       -0.489261   -1.501554   -0.024551
      6          1           0       -1.755160    1.137030   -0.012253
      7          1           0       -2.713595   -0.427345    0.100894
      8          1           0        0.545770    1.471380    0.000121
 ---------------------------------------------------------------------

 SCF Done:  E(RB2PLYPD3) =  -191.605826945     A.U. after   12 cycles
 E2(B2PLYPD3) =    -0.2463437666D+00 E(B2PLYPD3) =    -0.19185217071173D+03

 The electronic state is 1-A.
 Alpha  occ. eigenvalues --  -19.72832 -10.71571 -10.64827 -10.64132  -1.21030
 Alpha  occ. eigenvalues --   -0.92985  -0.75508  -0.67233  -0.57437  -0.56166
 Alpha  occ. eigenvalues --   -0.50574  -0.47675  -0.47456  -0.34384  -0.33785
 Alpha virt. eigenvalues --   -0.01673   0.05896   0.07131   0.08395   0.09879
 Alpha virt. eigenvalues --    0.12589   0.13984   0.15401   0.17547   0.19812
 Alpha virt. eigenvalues --    0.20462   0.21489   0.25175   0.26350   0.29089

 Mulliken charges:
               1
     1  C    0.145284
     2  O   -0.331580
     3  C   -0.028031
     4  C   -0.143614
     5  H    0.102230
     6  H    0.091077
     7  H    0.105504
     8  H    0.059129
 Sum of Mulliken charges =   0.00000

 Dipole moment (field-independent basis, Debye):
    X=             -3.3326    Y=              0.7365    Z=             -0.0838  Tot=              3.4140
 Quadrupole moment (field-independent basis, Debye-Ang):
   XX=            -27.0531   YY=            -21.9469   ZZ=            -25.1458
   XY=              1.2249   XZ=             -0.4266   YZ=             -0.0577

 Normal termination of Gaussian 09 at Wed Aug 26 08:42:46 2020.
