 Gaussian 09, Revision D.01,
 Gaussian 09:  ES64L-G09RevD.01 24-Apr-2013

 --------------------
 #p B2PLYPD3/Def2QZVP
 --------------------

 --------
 acrolein
 --------
 Symbolic Z-matrix:
 Charge =  0 Multiplicity = 1

                         Standard orientation:
 ---------------------------------------------------------------------
 Center     Atomic      Atomic             Coordinates (Angstroms)
 Number     Number       Type             X           Y           Z
 ---------------------------------------------------------------------
      1          6           0        0.679682    0.352130   -0.029293
      2          8           0        1.779416   -0.130071    0.021924
      3          6           0       -0.555790   -0.436122   -0.012438
      4          6           0       -1.751982    0.136976    0.005964
      5          1           0       -0.453770   -1.470818   -0.013687
      6          1           0       -1.822312    1.175247    0.063275
      7          1           0       -2.716068   -0.413530    0.017547
      8          1           0        0.525362    1.431764   -0.027928
 ---------------------------------------------------------------------

 SCF Done:  E(RB2PLYPD3) =  -191.614506390     A.U. after   12 cycles
 E2(B2PLYPD3) =    -0.2460924984D+00 E(B2PLYPD3) =    -0.19186059888837D+03

 The electronic state is 1-A.
 Alpha  occ. eigenvalues --  -19.72814 -10.71294 -10.65096 -10.63650  -1.20102
 Alpha  occ. eigenvalues --   -0.93253  -0.75554  -0.67891  -0.57102  -0.56404
 Alpha  occ. eigenvalues --   -0.50896  -0.47163  -0.47046  -0.34745  -0.33890
 Alpha virt. eigenvalues --   -0.01595   0.05777   0.07442   0.08351   0.09775
 Alpha virt. eigenvalues --    0.12609   0.14100   0.15414   0.17813   0.19860
 Alpha virt. eigenvalues --    0.20041   0.21447   0.25681   0.26377   0.28850

 Mulliken charges:
               1
     1  C    0.151094
     2  O   -0.344752
     3  C   -0.035756
     4  C   -0.132840
     5  H    0.108115
     6  H    0.082765
     7  H    0.098282
     8  H    0.073093
 Sum of Mulliken charges =   0.00000

 Dipole moment (field-independent basis, Debye):
    X=             -3.4142    Y=              0.7999    Z=             -0.0350  Tot=              3.5068
 Quadrupole moment (field-independent basis, Debye-Ang):
   XX=            -27.1931   YY=            -21.8764   ZZ=            -25.0731
   XY=              0.9980   XZ=             -0.2391   YZ=              0.0721

 Normal termination of Gaussian 09 at Wed Aug 26 16:32:32 2020.
