 Gaussian 09, Revision D.01,
 Gaussian 09:  ES64L-G09RevD.01 24-Apr-2013

 --------------------
 #p B2PLYPD3/Def2QZVP
 --------------------

 --------
 acrolein
 --------
 Symbolic Z-matrix:
 Charge =  0 Multiplicity = 1

                         Standard orientation:
 ---------------------------------------------------------------------
 Center     Atomic      Atomic             Coordinates (Angstroms)
 Number     Number       Type             X           Y           Z
 ---------------------------------------------------------------------
      1          6           0       -0.673163    0.335553    0.028247
      2          8           0       -1.793483   -0.107280   -0.022123
      3          6           0        0.566595   -0.457077    0.011422
      4          6           0        1.758024    0.145008   -0.022479
      5          1           0        0.418292   -1.541228    0.019085
      6          1           0        1.867455    1.225053   -0.056416
      7          1           0        2.650838   -0.409289    0.046892
      8          1           0       -0.497459    1.442797    0.064281
 ---------------------------------------------------------------------

 SCF Done:  E(RB2PLYPD3) =  -191.615855396     A.U. after   12 cycles
 E2(B2PLYPD3) =    -0.2470228461D+00 E(B2PLYPD3) =    -0.19186287824224D+03

 The electronic state is 1-A.
 Alpha  occ. eigenvalues --  -19.72881 -10.71589 -10.65359 -10.64659  -1.19814
 Alpha  occ. eigenvalues --   -0.92981  -0.75713  -0.66596  -0.56819  -0.56242
 Alpha  occ. eigenvalues --   -0.50785  -0.47088  -0.46897  -0.34745  -0.33687
 Alpha virt. eigenvalues --   -0.01807   0.05796   0.07176   0.08304   0.09741
 Alpha virt. eigenvalues --    0.12635   0.14000   0.15381   0.17307   0.19652
 Alpha virt. eigenvalues --    0.20010   0.21844   0.25369   0.26529   0.28516

 Mulliken charges:
               1
     1  C    0.159945
     2  O   -0.345426
     3  C   -0.037570
     4  C   -0.129818
     5  H    0.102568
     6  H    0.087013
     7  H    0.103434
     8  H    0.059855
 Sum of Mulliken charges =   0.00000

 Dipole moment (field-independent basis, Debye):
    X=              3.5014    Y=              0.6809    Z=              0.1099  Tot=              3.5686
 Quadrupole moment (field-independent basis, Debye-Ang):
   XX=            -27.3631   YY=            -21.8243   ZZ=            -25.2054
   XY=             -0.6729   XZ=             -0.0695   YZ=             -0.0986

 Normal termination of Gaussian 09 at Wed Aug 26 15:23:38 2020.
