 Gaussian 09, Revision D.01,
 Gaussian 09:  ES64L-G09RevD.01 24-Apr-2013

 --------------------
 #p B2PLYPD3/Def2QZVP
 --------------------

 --------
 acrolein
 --------
 Symbolic Z-matrix:
 Charge =  0 Multiplicity = 1

                         Standard orientation:
 ---------------------------------------------------------------------
 Center     Atomic      Atomic             Coordinates (Angstroms)
 Number     Number       Type             X           Y           Z
 ---------------------------------------------------------------------
      1          6           0       -0.684775    0.363197    0.003452
      2          8           0       -1.776365   -0.137179   -0.007639
      3          6           0        0.559713   -0.446479    0.020398
      4          6           0        1.761293    0.140349   -0.012937
      5          1           0        0.479169   -1.507103   -0.014103
      6          1           0        1.788357    1.204466    0.005217
      7          1           0        2.660336   -0.409333   -0.008240
      8          1           0       -0.534328    1.467002    0.012761
 ---------------------------------------------------------------------

 SCF Done:  E(RB2PLYPD3) =  -191.616042466     A.U. after   12 cycles
 E2(B2PLYPD3) =    -0.2464999178D+00 E(B2PLYPD3) =    -0.19186254238417D+03

 The electronic state is 1-A.
 Alpha  occ. eigenvalues --  -19.72905 -10.71759 -10.64728 -10.64082  -1.20227
 Alpha  occ. eigenvalues --   -0.92746  -0.75224  -0.67214  -0.56994  -0.56398
 Alpha  occ. eigenvalues --   -0.50859  -0.47216  -0.47076  -0.34484  -0.33886
 Alpha virt. eigenvalues --   -0.01469   0.05899   0.07276   0.08102   0.09817
 Alpha virt. eigenvalues --    0.12597   0.14052   0.15413   0.17585   0.19903
 Alpha virt. eigenvalues --    0.19928   0.21661   0.25525   0.26319   0.28966

 Mulliken charges:
               1
     1  C    0.152326
     2  O   -0.339182
     3  C   -0.043264
     4  C   -0.134584
     5  H    0.105320
     6  H    0.080659
     7  H    0.104411
     8  H    0.074313
 Sum of Mulliken charges =   0.00000

 Dipole moment (field-independent basis, Debye):
    X=              3.3306    Y=              0.8013    Z=              0.0073  Tot=              3.4256
 Quadrupole moment (field-independent basis, Debye-Ang):
   XX=            -27.3463   YY=            -21.7226   ZZ=            -25.1808
   XY=             -1.1889   XZ=             -0.0642   YZ=              0.0507

 Normal termination of Gaussian 09 at Wed Aug 26 20:20:24 2020.
