 Gaussian 09, Revision D.01,
 Gaussian 09:  ES64L-G09RevD.01 24-Apr-2013

 --------------------
 #p B2PLYPD3/Def2QZVP
 --------------------

 --------
 acrolein
 --------
 Symbolic Z-matrix:
 Charge =  0 Multiplicity = 1

                         Standard orientation:
 ---------------------------------------------------------------------
 Center     Atomic      Atomic             Coordinates (Angstroms)
 Number     Number       Type             X           Y           Z
 ---------------------------------------------------------------------
      1          6           0        0.682108    0.362582   -0.021891
      2          8           0        1.780510   -0.139462    0.010186
      3          6           0       -0.536368   -0.430559   -0.018338
      4          6           0       -1.761456    0.137767    0.017885
      5          1           0       -0.429596   -1.545041    0.011520
      6          1           0       -1.805309    1.203230   -0.076719
      7          1           0       -2.822514   -0.466686    0.035683
      8          1           0        0.507634    1.505452    0.082098
 ---------------------------------------------------------------------

 SCF Done:  E(RB2PLYPD3) =  -191.599986046     A.U. after   13 cycles
 E2(B2PLYPD3) =    -0.2490792358D+00 E(B2PLYPD3) =    -0.19184906528224D+03

 The electronic state is 1-A.
 Alpha  occ. eigenvalues --  -19.73053 -10.72211 -10.67005 -10.64952  -1.19933
 Alpha  occ. eigenvalues --   -0.92474  -0.74688  -0.66018  -0.56265  -0.55321
 Alpha  occ. eigenvalues --   -0.49779  -0.47116  -0.45762  -0.34441  -0.33963
 Alpha virt. eigenvalues --   -0.02109   0.05303   0.06665   0.08043   0.09725
 Alpha virt. eigenvalues --    0.12037   0.13791   0.15331   0.17337   0.19556
 Alpha virt. eigenvalues --    0.20203   0.20730   0.25039   0.26350   0.28915

 Mulliken charges:
               1
     1  C    0.157503
     2  O   -0.340908
     3  C   -0.036636
     4  C   -0.130742
     5  H    0.104949
     6  H    0.085554
     7  H    0.099766
     8  H    0.060513
 Sum of Mulliken charges =   0.00000

 Dipole moment (field-independent basis, Debye):
    X=             -3.4289    Y=              0.7735    Z=             -0.0460  Tot=              3.5153
 Quadrupole moment (field-independent basis, Debye-Ang):
   XX=            -27.2193   YY=            -21.9663   ZZ=            -25.4748
   XY=              1.1012   XZ=             -0.0146   YZ=             -0.1051

 Normal termination of Gaussian 09 at Wed Aug 26 08:35:24 2020.
