 Gaussian 09, Revision D.01,
 Gaussian 09:  ES64L-G09RevD.01 24-Apr-2013

 --------------------
 #p B2PLYPD3/Def2QZVP
 --------------------

 --------
 acrolein
 --------
 Symbolic Z-matrix:
 Charge =  0 Multiplicity = 1

                         Standard orientation:
 ---------------------------------------------------------------------
 Center     Atomic      Atomic             Coordinates (Angstroms)
 Number     Number       Type             X           Y           Z
 ---------------------------------------------------------------------
      1          6           0        0.670530    0.360154    0.017679
      2          8           0        1.749425   -0.146977    0.016819
      3          6           0       -0.534117   -0.403385   -0.056904
      4          6           0       -1.740352    0.114842   -0.010092
      5          1           0       -0.430971   -1.450374   -0.006123
      6          1           0       -1.842287    1.237133    0.007331
      7          1           0       -2.693311   -0.485977    0.206393
      8          1           0        0.594797    1.445372   -0.046248
 ---------------------------------------------------------------------

 SCF Done:  E(RB2PLYPD3) =  -191.607490186     A.U. after   13 cycles
 E2(B2PLYPD3) =    -0.2461068868D+00 E(B2PLYPD3) =    -0.19185359707294D+03

 The electronic state is 1-A.
 Alpha  occ. eigenvalues --  -19.72472 -10.70724 -10.66156 -10.63260  -1.20685
 Alpha  occ. eigenvalues --   -0.93527  -0.75271  -0.67257  -0.57090  -0.56180
 Alpha  occ. eigenvalues --   -0.50645  -0.47658  -0.45607  -0.34916  -0.33813
 Alpha virt. eigenvalues --   -0.01651   0.05579   0.07223   0.08637   0.09794
 Alpha virt. eigenvalues --    0.12196   0.14093   0.15381   0.17966   0.19347
 Alpha virt. eigenvalues --    0.19525   0.21551   0.25593   0.26512   0.28896

 Mulliken charges:
               1
     1  C    0.152885
     2  O   -0.341356
     3  C   -0.040570
     4  C   -0.118849
     5  H    0.107302
     6  H    0.072789
     7  H    0.098707
     8  H    0.069091
 Sum of Mulliken charges =   0.00000

 Dipole moment (field-independent basis, Debye):
    X=             -3.3312    Y=              0.8052    Z=              0.1517  Tot=              3.4305
 Quadrupole moment (field-independent basis, Debye-Ang):
   XX=            -27.2086   YY=            -21.9134   ZZ=            -25.0359
   XY=              1.3081   XZ=             -0.6382   YZ=             -0.1601

 Normal termination of Gaussian 09 at Wed Aug 26 13:25:31 2020.
