 Gaussian 09, Revision D.01,
 Gaussian 09:  ES64L-G09RevD.01 24-Apr-2013

 --------------------
 #p B2PLYPD3/Def2QZVP
 --------------------

 --------
 acrolein
 --------
 Symbolic Z-matrix:
 Charge =  0 Multiplicity = 1

                         Standard orientation:
 ---------------------------------------------------------------------
 Center     Atomic      Atomic             Coordinates (Angstroms)
 Number     Number       Type             X           Y           Z
 ---------------------------------------------------------------------
      1          6           0        0.673952    0.344909   -0.016434
      2          8           0        1.781134   -0.124879    0.010069
      3          6           0       -0.543943   -0.432367   -0.016429
      4          6           0       -1.761753    0.134807    0.005605
      5          1           0       -0.432400   -1.523635    0.020931
      6          1           0       -1.807090    1.178090   -0.007513
      7          1           0       -2.719648   -0.415467    0.034388
      8          1           0        0.500527    1.475948    0.035193
 ---------------------------------------------------------------------

 SCF Done:  E(RB2PLYPD3) =  -191.613406264     A.U. after   12 cycles
 E2(B2PLYPD3) =    -0.2473714361D+00 E(B2PLYPD3) =    -0.19186077769975D+03

 The electronic state is 1-A.
 Alpha  occ. eigenvalues --  -19.72900 -10.71729 -10.65620 -10.64493  -1.20091
 Alpha  occ. eigenvalues --   -0.93088  -0.75810  -0.66507  -0.56687  -0.56391
 Alpha  occ. eigenvalues --   -0.50649  -0.47261  -0.46658  -0.34588  -0.33870
 Alpha virt. eigenvalues --   -0.02063   0.05765   0.07030   0.08499   0.09800
 Alpha virt. eigenvalues --    0.12527   0.13991   0.15367   0.17330   0.19849
 Alpha virt. eigenvalues --    0.20102   0.21490   0.25486   0.26352   0.28923

 Mulliken charges:
               1
     1  C    0.154805
     2  O   -0.342271
     3  C   -0.027163
     4  C   -0.132500
     5  H    0.101135
     6  H    0.084807
     7  H    0.105774
     8  H    0.055414
 Sum of Mulliken charges =   0.00000

 Dipole moment (field-independent basis, Debye):
    X=             -3.5089    Y=              0.7100    Z=              0.0133  Tot=              3.5801
 Quadrupole moment (field-independent basis, Debye-Ang):
   XX=            -27.0603   YY=            -22.0278   ZZ=            -25.2256
   XY=              0.9445   XZ=             -0.1348   YZ=             -0.0507

 Normal termination of Gaussian 09 at Wed Aug 26 16:25:11 2020.
