 Gaussian 09, Revision D.01,
 Gaussian 09:  ES64L-G09RevD.01 24-Apr-2013

 --------------------
 #p B2PLYPD3/Def2QZVP
 --------------------

 --------
 acrolein
 --------
 Symbolic Z-matrix:
 Charge =  0 Multiplicity = 1

                         Standard orientation:
 ---------------------------------------------------------------------
 Center     Atomic      Atomic             Coordinates (Angstroms)
 Number     Number       Type             X           Y           Z
 ---------------------------------------------------------------------
      1          6           0        0.683952    0.362916    0.000411
      2          8           0        1.782875   -0.132720    0.024228
      3          6           0       -0.551585   -0.444297   -0.051969
      4          6           0       -1.769493    0.125702    0.018871
      5          1           0       -0.435810   -1.561613   -0.035031
      6          1           0       -1.841526    1.265149   -0.020677
      7          1           0       -2.677718   -0.424355    0.125948
      8          1           0        0.514813    1.516650   -0.067939
 ---------------------------------------------------------------------

 SCF Done:  E(RB2PLYPD3) =  -191.609347090     A.U. after   12 cycles
 E2(B2PLYPD3) =    -0.2483858046D+00 E(B2PLYPD3) =    -0.19185773289498D+03

 The electronic state is 1-A.
 Alpha  occ. eigenvalues --  -19.73106 -10.72383 -10.66090 -10.65043  -1.20051
 Alpha  occ. eigenvalues --   -0.92247  -0.74960  -0.65548  -0.56636  -0.55477
 Alpha  occ. eigenvalues --   -0.50728  -0.47104  -0.45862  -0.34461  -0.33850
 Alpha virt. eigenvalues --   -0.01853   0.05652   0.06837   0.08051   0.09698
 Alpha virt. eigenvalues --    0.12199   0.13934   0.15373   0.17126   0.19544
 Alpha virt. eigenvalues --    0.19838   0.21547   0.25180   0.26264   0.28801

 Mulliken charges:
               1
     1  C    0.165655
     2  O   -0.337994
     3  C   -0.046806
     4  C   -0.127493
     5  H    0.101500
     6  H    0.076324
     7  H    0.108890
     8  H    0.059925
 Sum of Mulliken charges =   0.00000

 Dipole moment (field-independent basis, Debye):
    X=             -3.3947    Y=              0.7253    Z=             -0.0038  Tot=              3.4713
 Quadrupole moment (field-independent basis, Debye-Ang):
   XX=            -27.3053   YY=            -21.8501   ZZ=            -25.4188
   XY=              1.0452   XZ=             -0.4082   YZ=             -0.1118

 Normal termination of Gaussian 09 at Wed Aug 26 08:54:54 2020.
