 Gaussian 09, Revision D.01,
 Gaussian 09:  ES64L-G09RevD.01 24-Apr-2013

 --------------------
 #p B2PLYPD3/Def2QZVP
 --------------------

 --------
 acrolein
 --------
 Symbolic Z-matrix:
 Charge =  0 Multiplicity = 1

                         Standard orientation:
 ---------------------------------------------------------------------
 Center     Atomic      Atomic             Coordinates (Angstroms)
 Number     Number       Type             X           Y           Z
 ---------------------------------------------------------------------
      1          6           0       -0.681754    0.369428   -0.001480
      2          8           0       -1.790052   -0.140276    0.015417
      3          6           0        0.579294   -0.440693   -0.031731
      4          6           0        1.753633    0.143680    0.003684
      5          1           0        0.490842   -1.512807   -0.010428
      6          1           0        1.792998    1.180576    0.017185
      7          1           0        2.627609   -0.429951    0.090863
      8          1           0       -0.498072    1.449903   -0.043791
 ---------------------------------------------------------------------

 SCF Done:  E(RB2PLYPD3) =  -191.613128013     A.U. after   12 cycles
 E2(B2PLYPD3) =    -0.2468442663D+00 E(B2PLYPD3) =    -0.19185997227889D+03

 The electronic state is 1-A.
 Alpha  occ. eigenvalues --  -19.73137 -10.72061 -10.64019 -10.63868  -1.19114
 Alpha  occ. eigenvalues --   -0.93409  -0.75450  -0.67445  -0.57214  -0.56312
 Alpha  occ. eigenvalues --   -0.50848  -0.47209  -0.46472  -0.34916  -0.33967
 Alpha virt. eigenvalues --   -0.01431   0.05897   0.07241   0.07900   0.09842
 Alpha virt. eigenvalues --    0.12757   0.13950   0.15368   0.17502   0.19803
 Alpha virt. eigenvalues --    0.20074   0.21916   0.25576   0.26512   0.28623

 Mulliken charges:
               1
     1  C    0.152227
     2  O   -0.348633
     3  C   -0.037471
     4  C   -0.134192
     5  H    0.102227
     6  H    0.081748
     7  H    0.102476
     8  H    0.081618
 Sum of Mulliken charges =   0.00000

 Dipole moment (field-independent basis, Debye):
    X=              3.3864    Y=              0.8580    Z=              0.0368  Tot=              3.4936
 Quadrupole moment (field-independent basis, Debye-Ang):
   XX=            -27.6581   YY=            -21.6341   ZZ=            -25.0981
   XY=             -1.1550   XZ=              0.3356   YZ=             -0.0570

 Normal termination of Gaussian 09 at Wed Aug 26 08:51:20 2020.
