 Gaussian 09, Revision D.01,
 Gaussian 09:  ES64L-G09RevD.01 24-Apr-2013

 --------------------
 #p B2PLYPD3/Def2QZVP
 --------------------

 --------
 acrolein
 --------
 Symbolic Z-matrix:
 Charge =  0 Multiplicity = 1

                         Standard orientation:
 ---------------------------------------------------------------------
 Center     Atomic      Atomic             Coordinates (Angstroms)
 Number     Number       Type             X           Y           Z
 ---------------------------------------------------------------------
      1          6           0       -0.689324    0.348129    0.042333
      2          8           0       -1.788167   -0.111308   -0.047003
      3          6           0        0.590991   -0.472657    0.015130
      4          6           0        1.759082    0.153486   -0.031066
      5          1           0        0.450095   -1.570443    0.145665
      6          1           0        1.856128    1.247634   -0.060352
      7          1           0        2.577990   -0.365375   -0.033545
      8          1           0       -0.543375    1.404896    0.165875
 ---------------------------------------------------------------------

 SCF Done:  E(RB2PLYPD3) =  -191.604252020     A.U. after   12 cycles
 E2(B2PLYPD3) =    -0.2458039073D+00 E(B2PLYPD3) =    -0.19185005592763D+03

 The electronic state is 1-A.
 Alpha  occ. eigenvalues --  -19.72901 -10.71337 -10.64768 -10.63902  -1.20517
 Alpha  occ. eigenvalues --   -0.92661  -0.75580  -0.66996  -0.57251  -0.56399
 Alpha  occ. eigenvalues --   -0.51394  -0.47486  -0.46582  -0.34751  -0.33562
 Alpha virt. eigenvalues --   -0.00976   0.05978   0.07168   0.08048   0.09647
 Alpha virt. eigenvalues --    0.12767   0.14267   0.15280   0.17406   0.19514
 Alpha virt. eigenvalues --    0.20090   0.22279   0.25160   0.26817   0.28490

 Mulliken charges:
               1
     1  C    0.158281
     2  O   -0.335793
     3  C   -0.054685
     4  C   -0.133780
     5  H    0.100163
     6  H    0.082075
     7  H    0.105401
     8  H    0.078338
 Sum of Mulliken charges =   0.00000

 Dipole moment (field-independent basis, Debye):
    X=              3.2717    Y=              0.7730    Z=              0.2622  Tot=              3.3720
 Quadrupole moment (field-independent basis, Debye-Ang):
   XX=            -27.4935   YY=            -21.5762   ZZ=            -25.1052
   XY=             -0.7813   XZ=             -0.3380   YZ=             -0.2077

 Normal termination of Gaussian 09 at Wed Aug 26 08:42:19 2020.
