 Gaussian 09, Revision D.01,
 Gaussian 09:  ES64L-G09RevD.01 24-Apr-2013

 --------------------
 #p B2PLYPD3/Def2QZVP
 --------------------

 --------
 acrolein
 --------
 Symbolic Z-matrix:
 Charge =  0 Multiplicity = 1

                         Standard orientation:
 ---------------------------------------------------------------------
 Center     Atomic      Atomic             Coordinates (Angstroms)
 Number     Number       Type             X           Y           Z
 ---------------------------------------------------------------------
      1          6           0        0.685030    0.367975   -0.030435
      2          8           0        1.745286   -0.146242    0.013299
      3          6           0       -0.542342   -0.422644    0.032160
      4          6           0       -1.745414    0.122389   -0.029162
      5          1           0       -0.426013   -1.416398   -0.046905
      6          1           0       -1.894155    1.207606    0.137292
      7          1           0       -2.658358   -0.457219    0.000283
      8          1           0        0.632597    1.429629   -0.032440
 ---------------------------------------------------------------------

 SCF Done:  E(RB2PLYPD3) =  -191.607803459     A.U. after   13 cycles
 E2(B2PLYPD3) =    -0.2446132872D+00 E(B2PLYPD3) =    -0.19185241674660D+03

 The electronic state is 1-A.
 Alpha  occ. eigenvalues --  -19.72369 -10.70404 -10.65085 -10.62989  -1.21451
 Alpha  occ. eigenvalues --   -0.93017  -0.75219  -0.68326  -0.57491  -0.56630
 Alpha  occ. eigenvalues --   -0.51125  -0.47808  -0.46606  -0.34678  -0.33687
 Alpha virt. eigenvalues --   -0.01178   0.05835   0.07709   0.08340   0.09822
 Alpha virt. eigenvalues --    0.12458   0.14093   0.15332   0.18290   0.19704
 Alpha virt. eigenvalues --    0.19753   0.21771   0.25008   0.26515   0.28514

 Mulliken charges:
               1
     1  C    0.158547
     2  O   -0.335062
     3  C   -0.061384
     4  C   -0.121112
     5  H    0.114411
     6  H    0.075704
     7  H    0.091854
     8  H    0.077042
 Sum of Mulliken charges =   0.00000

 Dipole moment (field-independent basis, Debye):
    X=             -3.1858    Y=              0.8458    Z=             -0.0074  Tot=              3.2962
 Quadrupole moment (field-independent basis, Debye-Ang):
   XX=            -27.0691   YY=            -21.7821   ZZ=            -24.9401
   XY=              1.2296   XZ=             -0.2568   YZ=              0.2461

 Normal termination of Gaussian 09 at Wed Aug 26 12:21:01 2020.
