 Gaussian 09, Revision D.01,
 Gaussian 09:  ES64L-G09RevD.01 24-Apr-2013

 --------------------
 #p B2PLYPD3/Def2QZVP
 --------------------

 --------
 acrolein
 --------
 Symbolic Z-matrix:
 Charge =  0 Multiplicity = 1

                         Standard orientation:
 ---------------------------------------------------------------------
 Center     Atomic      Atomic             Coordinates (Angstroms)
 Number     Number       Type             X           Y           Z
 ---------------------------------------------------------------------
      1          6           0       -0.670017    0.393963   -0.074294
      2          8           0       -1.764379   -0.172810    0.074301
      3          6           0        0.586589   -0.423344   -0.079728
      4          6           0        1.713676    0.127524    0.056651
      5          1           0        0.554124   -1.528101   -0.144257
      6          1           0        1.726870    1.123158   -0.039916
      7          1           0        2.619114   -0.342285    0.218369
      8          1           0       -0.566559    1.540849   -0.044383
 ---------------------------------------------------------------------

 SCF Done:  E(RB2PLYPD3) =  -191.594285828     A.U. after   13 cycles
 E2(B2PLYPD3) =    -0.2474921538D+00 E(B2PLYPD3) =    -0.19184177798165D+03

 The electronic state is 1-A.
 Alpha  occ. eigenvalues --  -19.73178 -10.73044 -10.63677 -10.62282  -1.17998
 Alpha  occ. eigenvalues --   -0.94705  -0.75056  -0.67028  -0.57692  -0.56638
 Alpha  occ. eigenvalues --   -0.50585  -0.46806  -0.45369  -0.35405  -0.34089
 Alpha virt. eigenvalues --   -0.01068   0.05916   0.06884   0.07659   0.09841
 Alpha virt. eigenvalues --    0.12487   0.14421   0.15258   0.17027   0.19616
 Alpha virt. eigenvalues --    0.20575   0.22227   0.25226   0.26422   0.28973

 Mulliken charges:
               1
     1  C    0.148977
     2  O   -0.352195
     3  C   -0.025702
     4  C   -0.119634
     5  H    0.097313
     6  H    0.070406
     7  H    0.097223
     8  H    0.083613
 Sum of Mulliken charges =   0.00000

 Dipole moment (field-independent basis, Debye):
    X=              3.3839    Y=              0.9917    Z=             -0.2350  Tot=              3.5340
 Quadrupole moment (field-independent basis, Debye-Ang):
   XX=            -27.4641   YY=            -21.6552   ZZ=            -24.9355
   XY=             -1.5086   XZ=              0.7176   YZ=             -0.0201

 Normal termination of Gaussian 09 at Wed Aug 26 11:49:28 2020.
