 Gaussian 09, Revision D.01,
 Gaussian 09:  ES64L-G09RevD.01 24-Apr-2013

 --------------------
 #p B2PLYPD3/Def2QZVP
 --------------------

 --------
 acrolein
 --------
 Symbolic Z-matrix:
 Charge =  0 Multiplicity = 1

                         Standard orientation:
 ---------------------------------------------------------------------
 Center     Atomic      Atomic             Coordinates (Angstroms)
 Number     Number       Type             X           Y           Z
 ---------------------------------------------------------------------
      1          6           0       -0.654051    0.333716   -0.027712
      2          8           0       -1.801161   -0.101673    0.036951
      3          6           0        0.579346   -0.475974   -0.055587
      4          6           0        1.730419    0.168859    0.009768
      5          1           0        0.445995   -1.596334    0.021683
      6          1           0        1.837770    1.242920    0.085644
      7          1           0        2.701144   -0.408824    0.114587
      8          1           0       -0.509906    1.416019   -0.076335
 ---------------------------------------------------------------------

 SCF Done:  E(RB2PLYPD3) =  -191.609960989     A.U. after   12 cycles
 E2(B2PLYPD3) =    -0.2483374634D+00 E(B2PLYPD3) =    -0.19185829845285D+03

 The electronic state is 1-A.
 Alpha  occ. eigenvalues --  -19.72662 -10.71601 -10.66058 -10.65157  -1.18276
 Alpha  occ. eigenvalues --   -0.93369  -0.74991  -0.66795  -0.56651  -0.55662
 Alpha  occ. eigenvalues --   -0.50060  -0.46337  -0.46059  -0.35017  -0.33706
 Alpha virt. eigenvalues --   -0.01751   0.05589   0.06755   0.07830   0.09638
 Alpha virt. eigenvalues --    0.12534   0.13964   0.15245   0.17172   0.19693
 Alpha virt. eigenvalues --    0.20043   0.21355   0.25068   0.26463   0.28547

 Mulliken charges:
               1
     1  C    0.154336
     2  O   -0.360070
     3  C   -0.036237
     4  C   -0.120515
     5  H    0.106320
     6  H    0.090957
     7  H    0.092591
     8  H    0.072617
 Sum of Mulliken charges =   0.00000

 Dipole moment (field-independent basis, Debye):
    X=              3.6231    Y=              0.7365    Z=              0.0461  Tot=              3.6974
 Quadrupole moment (field-independent basis, Debye-Ang):
   XX=            -27.8737   YY=            -21.5566   ZZ=            -25.2912
   XY=             -0.6572   XZ=              0.6197   YZ=             -0.0418

 Normal termination of Gaussian 09 at Wed Aug 26 09:28:05 2020.
