 Gaussian 09, Revision D.01,
 Gaussian 09:  ES64L-G09RevD.01 24-Apr-2013

 --------------------
 #p B2PLYPD3/Def2QZVP
 --------------------

 --------
 acrolein
 --------
 Symbolic Z-matrix:
 Charge =  0 Multiplicity = 1

                         Standard orientation:
 ---------------------------------------------------------------------
 Center     Atomic      Atomic             Coordinates (Angstroms)
 Number     Number       Type             X           Y           Z
 ---------------------------------------------------------------------
      1          6           0       -0.673970    0.353609    0.006097
      2          8           0       -1.781460   -0.129613   -0.013543
      3          6           0        0.552725   -0.437066    0.007069
      4          6           0        1.755371    0.139231   -0.010383
      5          1           0        0.427437   -1.548704    0.043879
      6          1           0        1.834815    1.180633   -0.045042
      7          1           0        2.704670   -0.428548    0.009214
      8          1           0       -0.519998    1.498884    0.083605
 ---------------------------------------------------------------------

 SCF Done:  E(RB2PLYPD3) =  -191.612970231     A.U. after   12 cycles
 E2(B2PLYPD3) =    -0.2475881779D+00 E(B2PLYPD3) =    -0.19186055840903D+03

 The electronic state is 1-A.
 Alpha  occ. eigenvalues --  -19.72947 -10.72042 -10.65392 -10.64742  -1.19779
 Alpha  occ. eigenvalues --   -0.93008  -0.75441  -0.66175  -0.56657  -0.56200
 Alpha  occ. eigenvalues --   -0.50427  -0.47035  -0.46512  -0.34705  -0.33838
 Alpha virt. eigenvalues --   -0.01842   0.05761   0.06857   0.08299   0.09782
 Alpha virt. eigenvalues --    0.12467   0.13963   0.15354   0.17123   0.19778
 Alpha virt. eigenvalues --    0.20174   0.21574   0.25474   0.26317   0.28785

 Mulliken charges:
               1
     1  C    0.156801
     2  O   -0.343591
     3  C   -0.033719
     4  C   -0.130433
     5  H    0.102016
     6  H    0.086864
     7  H    0.102588
     8  H    0.059475
 Sum of Mulliken charges =   0.00000

 Dipole moment (field-independent basis, Debye):
    X=              3.4704    Y=              0.7444    Z=              0.0689  Tot=              3.5500
 Quadrupole moment (field-independent basis, Debye-Ang):
   XX=            -27.2395   YY=            -21.8839   ZZ=            -25.2712
   XY=             -0.9177   XZ=             -0.0960   YZ=             -0.0849

 Normal termination of Gaussian 09 at Wed Aug 26 17:07:35 2020.
