 Gaussian 09, Revision D.01,
 Gaussian 09:  ES64L-G09RevD.01 24-Apr-2013

 --------------------
 #p B2PLYPD3/Def2QZVP
 --------------------

 --------
 acrolein
 --------
 Symbolic Z-matrix:
 Charge =  0 Multiplicity = 1

                         Standard orientation:
 ---------------------------------------------------------------------
 Center     Atomic      Atomic             Coordinates (Angstroms)
 Number     Number       Type             X           Y           Z
 ---------------------------------------------------------------------
      1          6           0       -0.678984    0.355861    0.016711
      2          8           0       -1.780775   -0.127914   -0.021823
      3          6           0        0.550529   -0.435532    0.010540
      4          6           0        1.760267    0.128743   -0.003110
      5          1           0        0.430949   -1.500984    0.066856
      6          1           0        1.846156    1.234918   -0.036762
      7          1           0        2.708462   -0.431985   -0.063580
      8          1           0       -0.530246    1.426932    0.063224
 ---------------------------------------------------------------------

 SCF Done:  E(RB2PLYPD3) =  -191.615753213     A.U. after   13 cycles
 E2(B2PLYPD3) =    -0.2468209401D+00 E(B2PLYPD3) =    -0.19186257415302D+03

 The electronic state is 1-A.
 Alpha  occ. eigenvalues --  -19.72774 -10.71220 -10.65949 -10.64165  -1.19966
 Alpha  occ. eigenvalues --   -0.92816  -0.75417  -0.67248  -0.56661  -0.56216
 Alpha  occ. eigenvalues --   -0.50835  -0.47110  -0.46243  -0.34625  -0.33935
 Alpha virt. eigenvalues --   -0.01747   0.05672   0.07282   0.08326   0.09712
 Alpha virt. eigenvalues --    0.12413   0.14039   0.15365   0.17745   0.19532
 Alpha virt. eigenvalues --    0.19892   0.21432   0.25553   0.26534   0.28880

 Mulliken charges:
               1
     1  C    0.156415
     2  O   -0.346211
     3  C   -0.041308
     4  C   -0.129766
     5  H    0.106113
     6  H    0.077180
     7  H    0.102906
     8  H    0.074671
 Sum of Mulliken charges =   0.00000

 Dipole moment (field-independent basis, Debye):
    X=              3.4289    Y=              0.7949    Z=              0.0631  Tot=              3.5204
 Quadrupole moment (field-independent basis, Debye-Ang):
   XX=            -27.2734   YY=            -21.8314   ZZ=            -25.2033
   XY=             -1.0257   XZ=             -0.2943   YZ=             -0.0760

 Normal termination of Gaussian 09 at Wed Aug 26 10:38:06 2020.
