 Gaussian 09, Revision D.01,
 Gaussian 09:  ES64L-G09RevD.01 24-Apr-2013

 --------------------
 #p B2PLYPD3/Def2QZVP
 --------------------

 --------
 acrolein
 --------
 Symbolic Z-matrix:
 Charge =  0 Multiplicity = 1

                         Standard orientation:
 ---------------------------------------------------------------------
 Center     Atomic      Atomic             Coordinates (Angstroms)
 Number     Number       Type             X           Y           Z
 ---------------------------------------------------------------------
      1          6           0        0.675747    0.347753   -0.009096
      2          8           0        1.789124   -0.114787    0.022373
      3          6           0       -0.567646   -0.463885   -0.035380
      4          6           0       -1.754866    0.143608    0.009168
      5          1           0       -0.457552   -1.504031   -0.023385
      6          1           0       -1.866544    1.268479    0.013484
      7          1           0       -2.650944   -0.409563    0.098961
      8          1           0        0.542633    1.398552   -0.056197
 ---------------------------------------------------------------------

 SCF Done:  E(RB2PLYPD3) =  -191.613414008     A.U. after   12 cycles
 E2(B2PLYPD3) =    -0.2464594915D+00 E(B2PLYPD3) =    -0.19185987349992D+03

 The electronic state is 1-A.
 Alpha  occ. eigenvalues --  -19.72640 -10.71049 -10.65592 -10.64134  -1.19694
 Alpha  occ. eigenvalues --   -0.92802  -0.75346  -0.67818  -0.56631  -0.56494
 Alpha  occ. eigenvalues --   -0.50853  -0.47058  -0.46696  -0.34637  -0.33751
 Alpha virt. eigenvalues --   -0.01508   0.05710   0.07435   0.08081   0.09646
 Alpha virt. eigenvalues --    0.12536   0.14130   0.15389   0.17809   0.19471
 Alpha virt. eigenvalues --    0.19936   0.21646   0.25345   0.26555   0.28694

 Mulliken charges:
               1
     1  C    0.157057
     2  O   -0.348733
     3  C   -0.052025
     4  C   -0.128224
     5  H    0.110232
     6  H    0.081150
     7  H    0.100493
     8  H    0.080050
 Sum of Mulliken charges =   0.00000

 Dipole moment (field-independent basis, Debye):
    X=             -3.4457    Y=              0.7699    Z=             -0.0019  Tot=              3.5307
 Quadrupole moment (field-independent basis, Debye-Ang):
   XX=            -27.5139   YY=            -21.6094   ZZ=            -25.1620
   XY=              0.9081   XZ=             -0.3816   YZ=             -0.0441

 Normal termination of Gaussian 09 at Wed Aug 26 16:27:55 2020.
