 Gaussian 09, Revision D.01,
 Gaussian 09:  ES64L-G09RevD.01 24-Apr-2013

 --------------------
 #p B2PLYPD3/Def2QZVP
 --------------------

 --------
 acrolein
 --------
 Symbolic Z-matrix:
 Charge =  0 Multiplicity = 1

                         Standard orientation:
 ---------------------------------------------------------------------
 Center     Atomic      Atomic             Coordinates (Angstroms)
 Number     Number       Type             X           Y           Z
 ---------------------------------------------------------------------
      1          6           0       -0.680951    0.352339    0.022384
      2          8           0       -1.783974   -0.125035   -0.021103
      3          6           0        0.552951   -0.444874   -0.000313
      4          6           0        1.761478    0.133878   -0.013566
      5          1           0        0.408476   -1.525554    0.078572
      6          1           0        1.864715    1.231774   -0.035424
      7          1           0        2.731256   -0.428690    0.002600
      8          1           0       -0.533527    1.474692    0.072047
 ---------------------------------------------------------------------

 SCF Done:  E(RB2PLYPD3) =  -191.614483813     A.U. after   13 cycles
 E2(B2PLYPD3) =    -0.2474561085D+00 E(B2PLYPD3) =    -0.19186193992194D+03

 The electronic state is 1-A.
 Alpha  occ. eigenvalues --  -19.72898 -10.71765 -10.66218 -10.64666  -1.20110
 Alpha  occ. eigenvalues --   -0.92529  -0.74999  -0.66416  -0.56535  -0.55855
 Alpha  occ. eigenvalues --   -0.50627  -0.47134  -0.46217  -0.34599  -0.33810
 Alpha virt. eigenvalues --   -0.01756   0.05643   0.07071   0.08260   0.09697
 Alpha virt. eigenvalues --    0.12281   0.13950   0.15341   0.17493   0.19625
 Alpha virt. eigenvalues --    0.19951   0.21298   0.25383   0.26438   0.28822

 Mulliken charges:
               1
     1  C    0.159696
     2  O   -0.341999
     3  C   -0.042785
     4  C   -0.128177
     5  H    0.106044
     6  H    0.082504
     7  H    0.100978
     8  H    0.063737
 Sum of Mulliken charges =   0.00000

 Dipole moment (field-independent basis, Debye):
    X=              3.4216    Y=              0.7499    Z=              0.1377  Tot=              3.5056
 Quadrupole moment (field-independent basis, Debye-Ang):
   XX=            -27.2155   YY=            -21.8868   ZZ=            -25.3229
   XY=             -0.8680   XZ=             -0.1085   YZ=             -0.1355

 Normal termination of Gaussian 09 at Wed Aug 26 19:31:38 2020.
