 Gaussian 09, Revision D.01,
 Gaussian 09:  ES64L-G09RevD.01 24-Apr-2013

 --------------------
 #p B2PLYPD3/Def2QZVP
 --------------------

 --------
 acrolein
 --------
 Symbolic Z-matrix:
 Charge =  0 Multiplicity = 1

                         Standard orientation:
 ---------------------------------------------------------------------
 Center     Atomic      Atomic             Coordinates (Angstroms)
 Number     Number       Type             X           Y           Z
 ---------------------------------------------------------------------
      1          6           0       -0.674774    0.365221   -0.026777
      2          8           0       -1.789816   -0.130249    0.009953
      3          6           0        0.551582   -0.448380   -0.015675
      4          6           0        1.764841    0.125577    0.010741
      5          1           0        0.407321   -1.515975    0.030005
      6          1           0        1.854080    1.243729   -0.048306
      7          1           0        2.702610   -0.436426    0.035481
      8          1           0       -0.495373    1.496156    0.093464
 ---------------------------------------------------------------------

 SCF Done:  E(RB2PLYPD3) =  -191.612013453     A.U. after   13 cycles
 E2(B2PLYPD3) =    -0.2486392841D+00 E(B2PLYPD3) =    -0.19186065273663D+03

 The electronic state is 1-A.
 Alpha  occ. eigenvalues --  -19.73062 -10.72283 -10.66200 -10.64631  -1.19100
 Alpha  occ. eigenvalues --   -0.92593  -0.75102  -0.66363  -0.56438  -0.55620
 Alpha  occ. eigenvalues --   -0.50491  -0.46637  -0.46372  -0.34564  -0.33883
 Alpha virt. eigenvalues --   -0.02031   0.05603   0.07039   0.07829   0.09738
 Alpha virt. eigenvalues --    0.12292   0.13828   0.15337   0.17463   0.19424
 Alpha virt. eigenvalues --    0.20037   0.21418   0.25084   0.26631   0.28829

 Mulliken charges:
               1
     1  C    0.164553
     2  O   -0.350271
     3  C   -0.046808
     4  C   -0.127175
     5  H    0.110047
     6  H    0.079644
     7  H    0.104198
     8  H    0.065812
 Sum of Mulliken charges =   0.00000

 Dipole moment (field-independent basis, Debye):
    X=              3.4936    Y=              0.7517    Z=             -0.0011  Tot=              3.5736
 Quadrupole moment (field-independent basis, Debye-Ang):
   XX=            -27.4106   YY=            -21.8114   ZZ=            -25.3699
   XY=             -0.9346   XZ=              0.0674   YZ=             -0.0882

 Normal termination of Gaussian 09 at Wed Aug 26 08:42:57 2020.
