 Gaussian 09, Revision D.01,
 Gaussian 09:  ES64L-G09RevD.01 24-Apr-2013

 --------------------
 #p B2PLYPD3/Def2QZVP
 --------------------

 --------
 acrolein
 --------
 Symbolic Z-matrix:
 Charge =  0 Multiplicity = 1

                         Standard orientation:
 ---------------------------------------------------------------------
 Center     Atomic      Atomic             Coordinates (Angstroms)
 Number     Number       Type             X           Y           Z
 ---------------------------------------------------------------------
      1          6           0       -0.668036    0.335942    0.033068
      2          8           0       -1.789782   -0.106395   -0.024762
      3          6           0        0.557568   -0.459287    0.010296
      4          6           0        1.752616    0.147302   -0.017588
      5          1           0        0.423761   -1.534225    0.026064
      6          1           0        1.861619    1.255815   -0.059152
      7          1           0        2.676579   -0.437258    0.020668
      8          1           0       -0.496595    1.423088    0.055862
 ---------------------------------------------------------------------

 SCF Done:  E(RB2PLYPD3) =  -191.615606640     A.U. after   13 cycles
 E2(B2PLYPD3) =    -0.2473033749D+00 E(B2PLYPD3) =    -0.19186291001535D+03

 The electronic state is 1-A.
 Alpha  occ. eigenvalues --  -19.72709 -10.71269 -10.66182 -10.64538  -1.19641
 Alpha  occ. eigenvalues --   -0.92908  -0.75398  -0.66876  -0.56445  -0.56115
 Alpha  occ. eigenvalues --   -0.50505  -0.46898  -0.46844  -0.34640  -0.33728
 Alpha virt. eigenvalues --   -0.01866   0.05654   0.07128   0.08290   0.09707
 Alpha virt. eigenvalues --    0.12507   0.13932   0.15346   0.17529   0.19488
 Alpha virt. eigenvalues --    0.20010   0.21517   0.25379   0.26570   0.28648

 Mulliken charges:
               1
     1  C    0.158571
     2  O   -0.349009
     3  C   -0.037787
     4  C   -0.131183
     5  H    0.105270
     6  H    0.087840
     7  H    0.101903
     8  H    0.064395
 Sum of Mulliken charges =   0.00000

 Dipole moment (field-independent basis, Debye):
    X=              3.5285    Y=              0.6925    Z=              0.1026  Tot=              3.5973
 Quadrupole moment (field-independent basis, Debye-Ang):
   XX=            -27.4755   YY=            -21.7340   ZZ=            -25.2573
   XY=             -0.7375   XZ=             -0.1465   YZ=             -0.1054

 Normal termination of Gaussian 09 at Wed Aug 26 20:23:31 2020.
