 Gaussian 09, Revision D.01,
 Gaussian 09:  ES64L-G09RevD.01 24-Apr-2013

 --------------------
 #p B2PLYPD3/Def2QZVP
 --------------------

 --------
 acrolein
 --------
 Symbolic Z-matrix:
 Charge =  0 Multiplicity = 1

                         Standard orientation:
 ---------------------------------------------------------------------
 Center     Atomic      Atomic             Coordinates (Angstroms)
 Number     Number       Type             X           Y           Z
 ---------------------------------------------------------------------
      1          6           0        0.651023    0.344681    0.057350
      2          8           0        1.785050   -0.131302   -0.043520
      3          6           0       -0.556480   -0.411595    0.023047
      4          6           0       -1.747590    0.135291   -0.036197
      5          1           0       -0.417553   -1.518543    0.061656
      6          1           0       -1.763656    1.163662   -0.074664
      7          1           0       -2.711828   -0.451148    0.019127
      8          1           0        0.530920    1.446181    0.076837
 ---------------------------------------------------------------------

 SCF Done:  E(RB2PLYPD3) =  -191.607733879     A.U. after   12 cycles
 E2(B2PLYPD3) =    -0.2481378787D+00 E(B2PLYPD3) =    -0.19185587175733D+03

 The electronic state is 1-A.
 Alpha  occ. eigenvalues --  -19.72768 -10.71534 -10.65415 -10.64211  -1.18164
 Alpha  occ. eigenvalues --   -0.94283  -0.76302  -0.66885  -0.57058  -0.56305
 Alpha  occ. eigenvalues --   -0.50228  -0.46453  -0.46153  -0.35043  -0.34010
 Alpha virt. eigenvalues --   -0.02341   0.05667   0.06848   0.08489   0.09872
 Alpha virt. eigenvalues --    0.12483   0.13887   0.15282   0.17228   0.19762
 Alpha virt. eigenvalues --    0.20149   0.21463   0.25744   0.26385   0.29321

 Mulliken charges:
               1
     1  C    0.149775
     2  O   -0.362036
     3  C   -0.013563
     4  C   -0.130416
     5  H    0.096837
     6  H    0.086172
     7  H    0.108412
     8  H    0.064819
 Sum of Mulliken charges =   0.00000

 Dipole moment (field-independent basis, Debye):
    X=             -3.6631    Y=              0.7884    Z=              0.1938  Tot=              3.7520
 Quadrupole moment (field-independent basis, Debye-Ang):
   XX=            -27.3957   YY=            -21.9144   ZZ=            -25.1308
   XY=              1.1353   XZ=              0.2257   YZ=             -0.1446

 Normal termination of Gaussian 09 at Wed Aug 26 08:35:16 2020.
