 Gaussian 09, Revision D.01,
 Gaussian 09:  ES64L-G09RevD.01 24-Apr-2013

 --------------------
 #p B2PLYPD3/Def2QZVP
 --------------------

 --------
 acrolein
 --------
 Symbolic Z-matrix:
 Charge =  0 Multiplicity = 1

                         Standard orientation:
 ---------------------------------------------------------------------
 Center     Atomic      Atomic             Coordinates (Angstroms)
 Number     Number       Type             X           Y           Z
 ---------------------------------------------------------------------
      1          6           0        0.668514    0.352265    0.016768
      2          8           0        1.783814   -0.127426   -0.008331
      3          6           0       -0.559576   -0.439954   -0.002398
      4          6           0       -1.749515    0.137154   -0.008081
      5          1           0       -0.450570   -1.538554    0.008377
      6          1           0       -1.818406    1.202704   -0.029584
      7          1           0       -2.684598   -0.406256    0.036642
      8          1           0        0.526522    1.464720    0.013478
 ---------------------------------------------------------------------

 SCF Done:  E(RB2PLYPD3) =  -191.616215477     A.U. after   12 cycles
 E2(B2PLYPD3) =    -0.2471993829D+00 E(B2PLYPD3) =    -0.19186341486021D+03

 The electronic state is 1-A.
 Alpha  occ. eigenvalues --  -19.72830 -10.71752 -10.65173 -10.64426  -1.19336
 Alpha  occ. eigenvalues --   -0.93313  -0.75530  -0.66688  -0.56700  -0.56479
 Alpha  occ. eigenvalues --   -0.50558  -0.46769  -0.46530  -0.34855  -0.33895
 Alpha virt. eigenvalues --   -0.01752   0.05777   0.07032   0.08265   0.09762
 Alpha virt. eigenvalues --    0.12540   0.14126   0.15349   0.17266   0.19896
 Alpha virt. eigenvalues --    0.19978   0.21625   0.25633   0.26305   0.28927

 Mulliken charges:
               1
     1  C    0.154122
     2  O   -0.348903
     3  C   -0.033272
     4  C   -0.127997
     5  H    0.102322
     6  H    0.081947
     7  H    0.103102
     8  H    0.068679
 Sum of Mulliken charges =   0.00000

 Dipole moment (field-independent basis, Debye):
    X=             -3.5061    Y=              0.7738    Z=              0.0566  Tot=              3.5909
 Quadrupole moment (field-independent basis, Debye-Ang):
   XX=            -27.3444   YY=            -21.8022   ZZ=            -25.1914
   XY=              0.9946   XZ=             -0.0177   YZ=             -0.0641

 Normal termination of Gaussian 09 at Wed Aug 26 16:05:25 2020.
