 Gaussian 09, Revision D.01,
 Gaussian 09:  ES64L-G09RevD.01 24-Apr-2013

 --------------------
 #p B2PLYPD3/Def2QZVP
 --------------------

 --------
 acrolein
 --------
 Symbolic Z-matrix:
 Charge =  0 Multiplicity = 1

                         Standard orientation:
 ---------------------------------------------------------------------
 Center     Atomic      Atomic             Coordinates (Angstroms)
 Number     Number       Type             X           Y           Z
 ---------------------------------------------------------------------
      1          6           0       -0.667623    0.349300   -0.014019
      2          8           0       -1.791204   -0.128673    0.019855
      3          6           0        0.566987   -0.440693   -0.028230
      4          6           0        1.743514    0.147325    0.018977
      5          1           0        0.465862   -1.531025   -0.041679
      6          1           0        1.813070    1.164725   -0.042771
      7          1           0        2.695627   -0.423014    0.079929
      8          1           0       -0.502196    1.483108   -0.014689
 ---------------------------------------------------------------------

 SCF Done:  E(RB2PLYPD3) =  -191.611748556     A.U. after   13 cycles
 E2(B2PLYPD3) =    -0.2475905135D+00 E(B2PLYPD3) =    -0.19185933906982D+03

 The electronic state is 1-A.
 Alpha  occ. eigenvalues --  -19.72990 -10.72177 -10.64922 -10.64348  -1.18959
 Alpha  occ. eigenvalues --   -0.93652  -0.75494  -0.66828  -0.56774  -0.56278
 Alpha  occ. eigenvalues --   -0.50324  -0.47072  -0.46460  -0.34982  -0.33881
 Alpha virt. eigenvalues --   -0.01780   0.05757   0.06937   0.08153   0.09792
 Alpha virt. eigenvalues --    0.12576   0.13947   0.15292   0.17208   0.19891
 Alpha virt. eigenvalues --    0.20330   0.21581   0.25413   0.26345   0.28722

 Mulliken charges:
               1
     1  C    0.152822
     2  O   -0.350985
     3  C   -0.026784
     4  C   -0.129830
     5  H    0.103046
     6  H    0.088541
     7  H    0.099368
     8  H    0.063822
 Sum of Mulliken charges =   0.00000

 Dipole moment (field-independent basis, Debye):
    X=              3.5432    Y=              0.7560    Z=             -0.0700  Tot=              3.6236
 Quadrupole moment (field-independent basis, Debye-Ang):
   XX=            -27.4437   YY=            -21.8286   ZZ=            -25.1751
   XY=             -0.9475   XZ=              0.2011   YZ=             -0.0546

 Normal termination of Gaussian 09 at Wed Aug 26 16:15:21 2020.
