 Gaussian 09, Revision D.01,
 Gaussian 09:  ES64L-G09RevD.01 24-Apr-2013

 --------------------
 #p B2PLYPD3/Def2QZVP
 --------------------

 --------
 acrolein
 --------
 Symbolic Z-matrix:
 Charge =  0 Multiplicity = 1

                         Standard orientation:
 ---------------------------------------------------------------------
 Center     Atomic      Atomic             Coordinates (Angstroms)
 Number     Number       Type             X           Y           Z
 ---------------------------------------------------------------------
      1          6           0       -0.683611    0.376936    0.034144
      2          8           0       -1.761940   -0.143343   -0.030872
      3          6           0        0.544277   -0.428481    0.026015
      4          6           0        1.759371    0.133420   -0.040077
      5          1           0        0.438868   -1.543322    0.007752
      6          1           0        1.779278    1.200407   -0.101218
      7          1           0        2.705554   -0.428579    0.104585
      8          1           0       -0.548408    1.426990    0.115369
 ---------------------------------------------------------------------

 SCF Done:  E(RB2PLYPD3) =  -191.611550238     A.U. after   13 cycles
 E2(B2PLYPD3) =    -0.2467651468D+00 E(B2PLYPD3) =    -0.19185831538523D+03

 The electronic state is 1-A.
 Alpha  occ. eigenvalues --  -19.72738 -10.71102 -10.65357 -10.64423  -1.20323
 Alpha  occ. eigenvalues --   -0.92506  -0.75296  -0.67262  -0.56883  -0.56072
 Alpha  occ. eigenvalues --   -0.50767  -0.47130  -0.46116  -0.34451  -0.33854
 Alpha virt. eigenvalues --   -0.01665   0.05789   0.07129   0.08166   0.09831
 Alpha virt. eigenvalues --    0.12426   0.14044   0.15530   0.17427   0.19333
 Alpha virt. eigenvalues --    0.19960   0.21636   0.25584   0.26506   0.29172

 Mulliken charges:
               1
     1  C    0.151634
     2  O   -0.341198
     3  C   -0.044614
     4  C   -0.133582
     5  H    0.102489
     6  H    0.076139
     7  H    0.105153
     8  H    0.083979
 Sum of Mulliken charges =   0.00000

 Dipole moment (field-independent basis, Debye):
    X=              3.2734    Y=              0.9052    Z=              0.1644  Tot=              3.4002
 Quadrupole moment (field-independent basis, Debye-Ang):
   XX=            -27.3696   YY=            -21.6969   ZZ=            -25.2105
   XY=             -1.2684   XZ=             -0.0301   YZ=             -0.1170

 Normal termination of Gaussian 09 at Wed Aug 26 10:00:49 2020.
