 Gaussian 09, Revision D.01,
 Gaussian 09:  ES64L-G09RevD.01 24-Apr-2013

 --------------------
 #p B2PLYPD3/Def2QZVP
 --------------------

 --------
 acrolein
 --------
 Symbolic Z-matrix:
 Charge =  0 Multiplicity = 1

                         Standard orientation:
 ---------------------------------------------------------------------
 Center     Atomic      Atomic             Coordinates (Angstroms)
 Number     Number       Type             X           Y           Z
 ---------------------------------------------------------------------
      1          6           0       -0.674824    0.342295    0.020753
      2          8           0       -1.792843   -0.103484   -0.033581
      3          6           0        0.573751   -0.461921    0.010197
      4          6           0        1.756609    0.142538   -0.013109
      5          1           0        0.450596   -1.555170    0.107834
      6          1           0        1.944343    1.297397   -0.080975
      7          1           0        2.594031   -0.404244   -0.033913
      8          1           0       -0.579447    1.352413    0.168660
 ---------------------------------------------------------------------

 SCF Done:  E(RB2PLYPD3) =  -191.601476107     A.U. after   12 cycles
 E2(B2PLYPD3) =    -0.2463019989D+00 E(B2PLYPD3) =    -0.19184777810583D+03

 The electronic state is 1-A.
 Alpha  occ. eigenvalues --  -19.72495 -10.70550 -10.65301 -10.64745  -1.19699
 Alpha  occ. eigenvalues --   -0.92833  -0.75987  -0.67506  -0.57008  -0.56312
 Alpha  occ. eigenvalues --   -0.50971  -0.46832  -0.46122  -0.34812  -0.33660
 Alpha virt. eigenvalues --   -0.01437   0.05695   0.07194   0.08130   0.09510
 Alpha virt. eigenvalues --    0.12539   0.14316   0.15282   0.17621   0.19138
 Alpha virt. eigenvalues --    0.20050   0.22058   0.25107   0.26850   0.28456

 Mulliken charges:
               1
     1  C    0.161300
     2  O   -0.348560
     3  C   -0.058179
     4  C   -0.126347
     5  H    0.104488
     6  H    0.080373
     7  H    0.103660
     8  H    0.083264
 Sum of Mulliken charges =   0.00000

 Dipole moment (field-independent basis, Debye):
    X=              3.4672    Y=              0.7600    Z=              0.1653  Tot=              3.5533
 Quadrupole moment (field-independent basis, Debye-Ang):
   XX=            -27.5045   YY=            -21.5366   ZZ=            -25.1336
   XY=             -0.7908   XZ=             -0.3546   YZ=             -0.1803

 Normal termination of Gaussian 09 at Wed Aug 26 07:43:15 2020.
