 Gaussian 09, Revision D.01,
 Gaussian 09:  ES64L-G09RevD.01 24-Apr-2013

 --------------------
 #p B2PLYPD3/Def2QZVP
 --------------------

 --------
 acrolein
 --------
 Symbolic Z-matrix:
 Charge =  0 Multiplicity = 1

                         Standard orientation:
 ---------------------------------------------------------------------
 Center     Atomic      Atomic             Coordinates (Angstroms)
 Number     Number       Type             X           Y           Z
 ---------------------------------------------------------------------
      1          6           0        0.664191    0.343631    0.006247
      2          8           0        1.801457   -0.107162   -0.026240
      3          6           0       -0.573913   -0.485508    0.017510
      4          6           0       -1.743671    0.162816   -0.007999
      5          1           0       -0.473539   -1.546818    0.083448
      6          1           0       -1.820812    1.217746   -0.100019
      7          1           0       -2.622305   -0.406914   -0.043036
      8          1           0        0.425354    1.467649    0.174978
 ---------------------------------------------------------------------

 SCF Done:  E(RB2PLYPD3) =  -191.610479223     A.U. after   13 cycles
 E2(B2PLYPD3) =    -0.2483561796D+00 E(B2PLYPD3) =    -0.19185883540238D+03

 The electronic state is 1-A.
 Alpha  occ. eigenvalues --  -19.73106 -10.72462 -10.64954 -10.64622  -1.18788
 Alpha  occ. eigenvalues --   -0.93149  -0.75309  -0.66836  -0.56618  -0.55863
 Alpha  occ. eigenvalues --   -0.50378  -0.47981  -0.46219  -0.34746  -0.33648
 Alpha virt. eigenvalues --   -0.01787   0.05825   0.06897   0.07631   0.09738
 Alpha virt. eigenvalues --    0.12856   0.13827   0.15195   0.17331   0.19551
 Alpha virt. eigenvalues --    0.20285   0.21653   0.24773   0.26834   0.28289

 Mulliken charges:
               1
     1  C    0.158778
     2  O   -0.350189
     3  C   -0.041556
     4  C   -0.127780
     5  H    0.109107
     6  H    0.090137
     7  H    0.098355
     8  H    0.063148
 Sum of Mulliken charges =   0.00000

 Dipole moment (field-independent basis, Debye):
    X=             -3.5531    Y=              0.6464    Z=              0.0745  Tot=              3.6122
 Quadrupole moment (field-independent basis, Debye-Ang):
   XX=            -27.7809   YY=            -21.6399   ZZ=            -25.2418
   XY=              0.6711   XZ=              0.3508   YZ=             -0.1465

 Normal termination of Gaussian 09 at Wed Aug 26 21:10:02 2020.
