 Gaussian 09, Revision D.01,
 Gaussian 09:  ES64L-G09RevD.01 24-Apr-2013

 --------------------
 #p B2PLYPD3/Def2QZVP
 --------------------

 --------
 acrolein
 --------
 Symbolic Z-matrix:
 Charge =  0 Multiplicity = 1

                         Standard orientation:
 ---------------------------------------------------------------------
 Center     Atomic      Atomic             Coordinates (Angstroms)
 Number     Number       Type             X           Y           Z
 ---------------------------------------------------------------------
      1          6           0        0.665839    0.348494    0.014821
      2          8           0        1.795934   -0.111722   -0.022004
      3          6           0       -0.568346   -0.472899    0.016409
      4          6           0       -1.750261    0.152958   -0.008540
      5          1           0       -0.451811   -1.542679    0.037020
      6          1           0       -1.832995    1.256871   -0.070170
      7          1           0       -2.652978   -0.421190   -0.024123
      8          1           0        0.486926    1.429456    0.097159
 ---------------------------------------------------------------------

 SCF Done:  E(RB2PLYPD3) =  -191.615216314     A.U. after   12 cycles
 E2(B2PLYPD3) =    -0.2477948158D+00 E(B2PLYPD3) =    -0.19186301112983D+03

 The electronic state is 1-A.
 Alpha  occ. eigenvalues --  -19.72804 -10.71686 -10.65680 -10.64584  -1.18843
 Alpha  occ. eigenvalues --   -0.92896  -0.75228  -0.67126  -0.56394  -0.56075
 Alpha  occ. eigenvalues --   -0.50422  -0.47227  -0.46315  -0.34620  -0.33800
 Alpha virt. eigenvalues --   -0.01748   0.05697   0.07127   0.07832   0.09699
 Alpha virt. eigenvalues --    0.12603   0.13927   0.15307   0.17479   0.19502
 Alpha virt. eigenvalues --    0.20100   0.21571   0.25183   0.26629   0.28652

 Mulliken charges:
               1
     1  C    0.156874
     2  O   -0.354267
     3  C   -0.044471
     4  C   -0.130218
     5  H    0.108503
     6  H    0.086659
     7  H    0.101262
     8  H    0.075658
 Sum of Mulliken charges =   0.00000

 Dipole moment (field-independent basis, Debye):
    X=             -3.5353    Y=              0.7369    Z=              0.0539  Tot=              3.6117
 Quadrupole moment (field-independent basis, Debye-Ang):
   XX=            -27.7455   YY=            -21.5522   ZZ=            -25.2745
   XY=              0.8283   XZ=              0.2680   YZ=             -0.0821

 Normal termination of Gaussian 09 at Wed Aug 26 15:43:21 2020.
