 Gaussian 09, Revision D.01,
 Gaussian 09:  ES64L-G09RevD.01 24-Apr-2013

 --------------------
 #p B2PLYPD3/Def2QZVP
 --------------------

 --------
 acrolein
 --------
 Symbolic Z-matrix:
 Charge =  0 Multiplicity = 1

                         Standard orientation:
 ---------------------------------------------------------------------
 Center     Atomic      Atomic             Coordinates (Angstroms)
 Number     Number       Type             X           Y           Z
 ---------------------------------------------------------------------
      1          6           0        0.660660    0.329471   -0.014921
      2          8           0        1.796818   -0.102457    0.033505
      3          6           0       -0.565460   -0.467625   -0.049691
      4          6           0       -1.745903    0.171731    0.006851
      5          1           0       -0.449140   -1.606669   -0.043528
      6          1           0       -1.796765    1.219250    0.010238
      7          1           0       -2.716968   -0.421547    0.179321
      8          1           0        0.492543    1.427159   -0.067509
 ---------------------------------------------------------------------

 SCF Done:  E(RB2PLYPD3) =  -191.608341295     A.U. after   12 cycles
 E2(B2PLYPD3) =    -0.2484107757D+00 E(B2PLYPD3) =    -0.19185675207104D+03

 The electronic state is 1-A.
 Alpha  occ. eigenvalues --  -19.72718 -10.71617 -10.66254 -10.65371  -1.19057
 Alpha  occ. eigenvalues --   -0.93034  -0.75166  -0.66530  -0.56652  -0.55595
 Alpha  occ. eigenvalues --   -0.49822  -0.46957  -0.46407  -0.34651  -0.33710
 Alpha virt. eigenvalues --   -0.02028   0.05625   0.06662   0.08067   0.09677
 Alpha virt. eigenvalues --    0.12507   0.13965   0.15257   0.17060   0.19733
 Alpha virt. eigenvalues --    0.20133   0.21346   0.25025   0.26417   0.28666

 Mulliken charges:
               1
     1  C    0.152678
     2  O   -0.351933
     3  C   -0.027501
     4  C   -0.130871
     5  H    0.101163
     6  H    0.093939
     7  H    0.099278
     8  H    0.063248
 Sum of Mulliken charges =   0.00000

 Dipole moment (field-independent basis, Debye):
    X=             -3.5835    Y=              0.6945    Z=              0.0098  Tot=              3.6502
 Quadrupole moment (field-independent basis, Debye-Ang):
   XX=            -27.7221   YY=            -21.6853   ZZ=            -25.3318
   XY=              0.7521   XZ=             -0.6141   YZ=             -0.0697

 Normal termination of Gaussian 09 at Wed Aug 26 10:10:16 2020.
