 Gaussian 09, Revision D.01,
 Gaussian 09:  ES64L-G09RevD.01 24-Apr-2013

 --------------------
 #p B2PLYPD3/Def2QZVP
 --------------------

 --------
 acrolein
 --------
 Symbolic Z-matrix:
 Charge =  0 Multiplicity = 1

                         Standard orientation:
 ---------------------------------------------------------------------
 Center     Atomic      Atomic             Coordinates (Angstroms)
 Number     Number       Type             X           Y           Z
 ---------------------------------------------------------------------
      1          6           0       -0.686087    0.369667    0.017697
      2          8           0       -1.776645   -0.133410   -0.020026
      3          6           0        0.550662   -0.443350    0.002603
      4          6           0        1.765605    0.132091   -0.019618
      5          1           0        0.424126   -1.516626    0.086730
      6          1           0        1.851360    1.204673   -0.012506
      7          1           0        2.688932   -0.418569    0.005403
      8          1           0       -0.532336    1.447355    0.076491
 ---------------------------------------------------------------------

 SCF Done:  E(RB2PLYPD3) =  -191.616463446     A.U. after   12 cycles
 E2(B2PLYPD3) =    -0.2467178494D+00 E(B2PLYPD3) =    -0.19186318129503D+03

 The electronic state is 1-A.
 Alpha  occ. eigenvalues --  -19.72846 -10.71459 -10.65268 -10.64417  -1.20162
 Alpha  occ. eigenvalues --   -0.92377  -0.75366  -0.67249  -0.56680  -0.56333
 Alpha  occ. eigenvalues --   -0.50913  -0.47229  -0.46551  -0.34342  -0.33914
 Alpha virt. eigenvalues --   -0.01612   0.05798   0.07277   0.08135   0.09747
 Alpha virt. eigenvalues --    0.12513   0.14109   0.15402   0.17605   0.19712
 Alpha virt. eigenvalues --    0.19972   0.21647   0.25438   0.26533   0.28826

 Mulliken charges:
               1
     1  C    0.156332
     2  O   -0.342542
     3  C   -0.047696
     4  C   -0.134571
     5  H    0.107055
     6  H    0.079935
     7  H    0.102284
     8  H    0.079204
 Sum of Mulliken charges =   0.00000

 Dipole moment (field-independent basis, Debye):
    X=              3.3439    Y=              0.8485    Z=              0.1645  Tot=              3.4538
 Quadrupole moment (field-independent basis, Debye-Ang):
   XX=            -27.2825   YY=            -21.7290   ZZ=            -25.2252
   XY=             -1.0014   XZ=             -0.0546   YZ=             -0.1075

 Normal termination of Gaussian 09 at Wed Aug 26 19:08:28 2020.
