 Gaussian 09, Revision D.01,
 Gaussian 09:  ES64L-G09RevD.01 24-Apr-2013

 --------------------
 #p B2PLYPD3/Def2QZVP
 --------------------

 --------
 acrolein
 --------
 Symbolic Z-matrix:
 Charge =  0 Multiplicity = 1

                         Standard orientation:
 ---------------------------------------------------------------------
 Center     Atomic      Atomic             Coordinates (Angstroms)
 Number     Number       Type             X           Y           Z
 ---------------------------------------------------------------------
      1          6           0       -0.658402    0.343586   -0.027418
      2          8           0       -1.792208   -0.123360    0.020130
      3          6           0        0.556005   -0.441046   -0.006980
      4          6           0        1.747769    0.140233    0.005654
      5          1           0        0.467730   -1.517618   -0.027390
      6          1           0        1.782971    1.198316    0.054959
      7          1           0        2.695370   -0.419675    0.016171
      8          1           0       -0.480634    1.469218   -0.032315
 ---------------------------------------------------------------------

 SCF Done:  E(RB2PLYPD3) =  -191.613831636     A.U. after   12 cycles
 E2(B2PLYPD3) =    -0.2481371285D+00 E(B2PLYPD3) =    -0.19186196876406D+03

 The electronic state is 1-A.
 Alpha  occ. eigenvalues --  -19.72901 -10.72005 -10.65529 -10.64231  -1.18580
 Alpha  occ. eigenvalues --   -0.93731  -0.75753  -0.66857  -0.56524  -0.56373
 Alpha  occ. eigenvalues --   -0.50253  -0.46938  -0.46483  -0.34851  -0.33963
 Alpha virt. eigenvalues --   -0.02138   0.05714   0.06955   0.08231   0.09781
 Alpha virt. eigenvalues --    0.12589   0.13902   0.15265   0.17368   0.19894
 Alpha virt. eigenvalues --    0.20096   0.21419   0.25537   0.26296   0.29038

 Mulliken charges:
               1
     1  C    0.152751
     2  O   -0.355706
     3  C   -0.022880
     4  C   -0.127998
     5  H    0.102917
     6  H    0.084260
     7  H    0.104088
     8  H    0.062568
 Sum of Mulliken charges =   0.00000

 Dipole moment (field-independent basis, Debye):
    X=              3.6423    Y=              0.7157    Z=             -0.0504  Tot=              3.7123
 Quadrupole moment (field-independent basis, Debye-Ang):
   XX=            -27.4367   YY=            -21.8636   ZZ=            -25.2040
   XY=             -1.0088   XZ=              0.1983   YZ=              0.0841

 Normal termination of Gaussian 09 at Wed Aug 26 16:38:47 2020.
