 Gaussian 09, Revision D.01,
 Gaussian 09:  ES64L-G09RevD.01 24-Apr-2013

 --------------------
 #p B2PLYPD3/Def2QZVP
 --------------------

 --------
 acrolein
 --------
 Symbolic Z-matrix:
 Charge =  0 Multiplicity = 1

                         Standard orientation:
 ---------------------------------------------------------------------
 Center     Atomic      Atomic             Coordinates (Angstroms)
 Number     Number       Type             X           Y           Z
 ---------------------------------------------------------------------
      1          6           0        0.686271    0.367552   -0.021090
      2          8           0        1.781901   -0.135119    0.026094
      3          6           0       -0.547923   -0.457307   -0.045838
      4          6           0       -1.757024    0.135344    0.006702
      5          1           0       -0.471915   -1.477431    0.045501
      6          1           0       -1.869821    1.189371    0.080095
      7          1           0       -2.693337   -0.415635    0.065054
      8          1           0        0.491922    1.511117   -0.038050
 ---------------------------------------------------------------------

 SCF Done:  E(RB2PLYPD3) =  -191.610856756     A.U. after   12 cycles
 E2(B2PLYPD3) =    -0.2474642997D+00 E(B2PLYPD3) =    -0.19185832105564D+03

 The electronic state is 1-A.
 Alpha  occ. eigenvalues --  -19.73072 -10.72332 -10.65323 -10.64066  -1.19985
 Alpha  occ. eigenvalues --   -0.92539  -0.75040  -0.67276  -0.56446  -0.56263
 Alpha  occ. eigenvalues --   -0.50615  -0.47515  -0.46871  -0.34369  -0.33816
 Alpha virt. eigenvalues --   -0.01710   0.05739   0.07305   0.07857   0.09739
 Alpha virt. eigenvalues --    0.12543   0.13806   0.15400   0.17822   0.19735
 Alpha virt. eigenvalues --    0.20042   0.21406   0.25279   0.26289   0.28596

 Mulliken charges:
               1
     1  C    0.157152
     2  O   -0.340352
     3  C   -0.048875
     4  C   -0.126318
     5  H    0.113497
     6  H    0.080818
     7  H    0.094789
     8  H    0.069290
 Sum of Mulliken charges =   0.00000

 Dipole moment (field-independent basis, Debye):
    X=             -3.3938    Y=              0.7821    Z=              0.0784  Tot=              3.4837
 Quadrupole moment (field-independent basis, Debye-Ang):
   XX=            -27.2587   YY=            -21.8089   ZZ=            -25.2518
   XY=              0.9132   XZ=             -0.4576   YZ=             -0.0439

 Normal termination of Gaussian 09 at Wed Aug 26 08:35:15 2020.
