 Gaussian 09, Revision D.01,
 Gaussian 09:  ES64L-G09RevD.01 24-Apr-2013

 --------------------
 #p B2PLYPD3/Def2QZVP
 --------------------

 --------
 acrolein
 --------
 Symbolic Z-matrix:
 Charge =  0 Multiplicity = 1

                         Standard orientation:
 ---------------------------------------------------------------------
 Center     Atomic      Atomic             Coordinates (Angstroms)
 Number     Number       Type             X           Y           Z
 ---------------------------------------------------------------------
      1          6           0       -0.664478    0.352580   -0.025240
      2          8           0       -1.795963   -0.129940    0.029849
      3          6           0        0.566782   -0.426129   -0.025860
      4          6           0        1.762607    0.129058    0.007666
      5          1           0        0.459285   -1.521054   -0.009899
      6          1           0        1.820990    1.236346    0.139182
      7          1           0        2.608104   -0.456707    0.010061
      8          1           0       -0.510141    1.447884   -0.117531
 ---------------------------------------------------------------------

 SCF Done:  E(RB2PLYPD3) =  -191.611349347     A.U. after   13 cycles
 E2(B2PLYPD3) =    -0.2480245736D+00 E(B2PLYPD3) =    -0.19185937392042D+03

 The electronic state is 1-A.
 Alpha  occ. eigenvalues --  -19.72956 -10.71877 -10.65167 -10.64303  -1.18354
 Alpha  occ. eigenvalues --   -0.93652  -0.76210  -0.66508  -0.57247  -0.56057
 Alpha  occ. eigenvalues --   -0.50661  -0.46460  -0.46231  -0.34902  -0.34044
 Alpha virt. eigenvalues --   -0.02134   0.05747   0.07006   0.08146   0.09791
 Alpha virt. eigenvalues --    0.12578   0.13853   0.15347   0.17312   0.19216
 Alpha virt. eigenvalues --    0.20157   0.22032   0.25338   0.26489   0.28791

 Mulliken charges:
               1
     1  C    0.157765
     2  O   -0.357734
     3  C   -0.033371
     4  C   -0.127279
     5  H    0.097913
     6  H    0.081423
     7  H    0.109536
     8  H    0.071748
 Sum of Mulliken charges =   0.00000

 Dipole moment (field-independent basis, Debye):
    X=              3.5873    Y=              0.7611    Z=             -0.0179  Tot=              3.6672
 Quadrupole moment (field-independent basis, Debye-Ang):
   XX=            -27.6630   YY=            -21.7461   ZZ=            -25.1710
   XY=             -1.1496   XZ=              0.3898   YZ=              0.1128

 Normal termination of Gaussian 09 at Wed Aug 26 09:45:53 2020.
