 Gaussian 09, Revision D.01,
 Gaussian 09:  ES64L-G09RevD.01 24-Apr-2013

 --------------------
 #p B2PLYPD3/Def2QZVP
 --------------------

 --------
 acrolein
 --------
 Symbolic Z-matrix:
 Charge =  0 Multiplicity = 1

                         Standard orientation:
 ---------------------------------------------------------------------
 Center     Atomic      Atomic             Coordinates (Angstroms)
 Number     Number       Type             X           Y           Z
 ---------------------------------------------------------------------
      1          6           0        0.678023    0.338772    0.022661
      2          8           0        1.818858   -0.105694   -0.047508
      3          6           0       -0.605904   -0.508179    0.037178
      4          6           0       -1.747661    0.155551   -0.057778
      5          1           0       -0.554764   -1.552666    0.151298
      6          1           0       -1.872185    1.268687   -0.073342
      7          1           0       -2.511784   -0.312356    0.017881
      8          1           0        0.441120    1.525027    0.271863
 ---------------------------------------------------------------------

 SCF Done:  E(RB2PLYPD3) =  -191.568580281     A.U. after   13 cycles
 E2(B2PLYPD3) =    -0.2489131681D+00 E(B2PLYPD3) =    -0.19181749344863D+03

 The electronic state is 1-A.
 Alpha  occ. eigenvalues --  -19.73617 -10.73673 -10.64854 -10.63394  -1.18887
 Alpha  occ. eigenvalues --   -0.93459  -0.75843  -0.66120  -0.58006  -0.54809
 Alpha  occ. eigenvalues --   -0.50867  -0.48115  -0.45953  -0.35031  -0.33516
 Alpha virt. eigenvalues --   -0.01443   0.05686   0.06434   0.07742   0.09508
 Alpha virt. eigenvalues --    0.12778   0.14034   0.15292   0.17087   0.19281
 Alpha virt. eigenvalues --    0.20061   0.22218   0.24524   0.26822   0.27995

 Mulliken charges:
               1
     1  C    0.167959
     2  O   -0.338063
     3  C   -0.048133
     4  C   -0.136553
     5  H    0.105100
     6  H    0.079766
     7  H    0.115181
     8  H    0.054743
 Sum of Mulliken charges =   0.00000

 Dipole moment (field-independent basis, Debye):
    X=             -3.4909    Y=              0.5580    Z=              0.3074  Tot=              3.5486
 Quadrupole moment (field-independent basis, Debye-Ang):
   XX=            -27.6723   YY=            -21.6565   ZZ=            -25.2059
   XY=              0.5895   XZ=              0.1808   YZ=             -0.1941

 Normal termination of Gaussian 09 at Wed Aug 26 13:50:25 2020.
