 Gaussian 09, Revision D.01,
 Gaussian 09:  ES64L-G09RevD.01 24-Apr-2013

 --------------------
 #p B2PLYPD3/Def2QZVP
 --------------------

 --------
 acrolein
 --------
 Symbolic Z-matrix:
 Charge =  0 Multiplicity = 1

                         Standard orientation:
 ---------------------------------------------------------------------
 Center     Atomic      Atomic             Coordinates (Angstroms)
 Number     Number       Type             X           Y           Z
 ---------------------------------------------------------------------
      1          6           0        0.674793    0.347633   -0.021459
      2          8           0        1.785240   -0.109704    0.015941
      3          6           0       -0.567154   -0.467262   -0.001425
      4          6           0       -1.757817    0.146450   -0.001267
      5          1           0       -0.409999   -1.561325   -0.011584
      6          1           0       -1.873338    1.276457    0.079782
      7          1           0       -2.646140   -0.411753   -0.004252
      8          1           0        0.548625    1.413324   -0.046562
 ---------------------------------------------------------------------

 SCF Done:  E(RB2PLYPD3) =  -191.612818548     A.U. after   12 cycles
 E2(B2PLYPD3) =    -0.2467831650D+00 E(B2PLYPD3) =    -0.19185960171314D+03

 The electronic state is 1-A.
 Alpha  occ. eigenvalues --  -19.72612 -10.71056 -10.65715 -10.64852  -1.19964
 Alpha  occ. eigenvalues --   -0.92468  -0.75245  -0.66956  -0.56589  -0.56092
 Alpha  occ. eigenvalues --   -0.50747  -0.46883  -0.46634  -0.34567  -0.33668
 Alpha virt. eigenvalues --   -0.01503   0.05700   0.07209   0.08104   0.09661
 Alpha virt. eigenvalues --    0.12484   0.14106   0.15374   0.17399   0.19432
 Alpha virt. eigenvalues --    0.20022   0.21737   0.25266   0.26578   0.28638

 Mulliken charges:
               1
     1  C    0.161521
     2  O   -0.346035
     3  C   -0.052212
     4  C   -0.130252
     5  H    0.105407
     6  H    0.084274
     7  H    0.103526
     8  H    0.073769
 Sum of Mulliken charges =   0.00000

 Dipole moment (field-independent basis, Debye):
    X=             -3.4109    Y=              0.7492    Z=             -0.0239  Tot=              3.4923
 Quadrupole moment (field-independent basis, Debye-Ang):
   XX=            -27.5153   YY=            -21.5779   ZZ=            -25.2610
   XY=              0.8032   XZ=             -0.1940   YZ=              0.1083

 Normal termination of Gaussian 09 at Wed Aug 26 11:53:18 2020.
