 Gaussian 09, Revision D.01,
 Gaussian 09:  ES64L-G09RevD.01 24-Apr-2013

 --------------------
 #p B2PLYPD3/Def2QZVP
 --------------------

 --------
 acrolein
 --------
 Symbolic Z-matrix:
 Charge =  0 Multiplicity = 1

                         Standard orientation:
 ---------------------------------------------------------------------
 Center     Atomic      Atomic             Coordinates (Angstroms)
 Number     Number       Type             X           Y           Z
 ---------------------------------------------------------------------
      1          6           0       -0.657402    0.322963   -0.004609
      2          8           0       -1.811955   -0.080738   -0.032169
      3          6           0        0.560595   -0.497033    0.028247
      4          6           0        1.789069    0.144749   -0.012655
      5          1           0        0.347945   -1.607392    0.115489
      6          1           0        1.944645    1.359057   -0.078703
      7          1           0        2.595891   -0.406480   -0.078375
      8          1           0       -0.546412    1.476646    0.233043
 ---------------------------------------------------------------------

 SCF Done:  E(RB2PLYPD3) =  -191.581181542     A.U. after   13 cycles
 E2(B2PLYPD3) =    -0.2506551656D+00 E(B2PLYPD3) =    -0.19183183670732D+03

 The electronic state is 1-A.
 Alpha  occ. eigenvalues --  -19.72723 -10.72166 -10.67136 -10.66440  -1.18644
 Alpha  occ. eigenvalues --   -0.92038  -0.76120  -0.64829  -0.56955  -0.54543
 Alpha  occ. eigenvalues --   -0.49968  -0.47108  -0.45816  -0.34247  -0.33164
 Alpha virt. eigenvalues --   -0.02716   0.05233   0.06544   0.07768   0.09385
 Alpha virt. eigenvalues --    0.11985   0.13889   0.15155   0.17003   0.18917
 Alpha virt. eigenvalues --    0.20010   0.21725   0.24324   0.26516   0.28574

 Mulliken charges:
               1
     1  C    0.168383
     2  O   -0.351925
     3  C   -0.061114
     4  C   -0.124558
     5  H    0.110269
     6  H    0.093636
     7  H    0.113416
     8  H    0.051894
 Sum of Mulliken charges =   0.00000

 Dipole moment (field-independent basis, Debye):
    X=              3.6844    Y=              0.5127    Z=              0.1087  Tot=              3.7215
 Quadrupole moment (field-independent basis, Debye-Ang):
   XX=            -27.5972   YY=            -21.6262   ZZ=            -25.5826
   XY=             -0.3911   XZ=             -0.4768   YZ=             -0.1454

 Normal termination of Gaussian 09 at Wed Aug 26 13:31:02 2020.
