 Gaussian 09, Revision D.01,
 Gaussian 09:  ES64L-G09RevD.01 24-Apr-2013

 --------------------
 #p B2PLYPD3/Def2QZVP
 --------------------

 --------
 acrolein
 --------
 Symbolic Z-matrix:
 Charge =  0 Multiplicity = 1

                         Standard orientation:
 ---------------------------------------------------------------------
 Center     Atomic      Atomic             Coordinates (Angstroms)
 Number     Number       Type             X           Y           Z
 ---------------------------------------------------------------------
      1          6           0        0.663299    0.361056    0.018953
      2          8           0        1.782362   -0.129349   -0.014748
      3          6           0       -0.572830   -0.444920    0.010655
      4          6           0       -1.744667    0.142871   -0.024031
      5          1           0       -0.452612   -1.586555   -0.018392
      6          1           0       -1.785610    1.230982   -0.088094
      7          1           0       -2.622975   -0.414903    0.109969
      8          1           0        0.527492    1.451229    0.081043
 ---------------------------------------------------------------------

 SCF Done:  E(RB2PLYPD3) =  -191.611146221     A.U. after   13 cycles
 E2(B2PLYPD3) =    -0.2475457728D+00 E(B2PLYPD3) =    -0.19185869199379D+03

 The electronic state is 1-A.
 Alpha  occ. eigenvalues --  -19.72828 -10.71754 -10.64803 -10.64654  -1.18834
 Alpha  occ. eigenvalues --   -0.93439  -0.75436  -0.66383  -0.56792  -0.56300
 Alpha  occ. eigenvalues --   -0.50500  -0.46552  -0.46118  -0.34952  -0.33878
 Alpha virt. eigenvalues --   -0.01628   0.05820   0.06814   0.08006   0.09804
 Alpha virt. eigenvalues --    0.12524   0.13984   0.15389   0.17017   0.19413
 Alpha virt. eigenvalues --    0.20095   0.21991   0.25526   0.26475   0.28992

 Mulliken charges:
               1
     1  C    0.154327
     2  O   -0.352447
     3  C   -0.037450
     4  C   -0.126411
     5  H    0.098460
     6  H    0.080590
     7  H    0.106395
     8  H    0.076537
 Sum of Mulliken charges =   0.00000

 Dipole moment (field-independent basis, Debye):
    X=             -3.4633    Y=              0.8165    Z=              0.0892  Tot=              3.5594
 Quadrupole moment (field-independent basis, Debye-Ang):
   XX=            -27.7372   YY=            -21.5813   ZZ=            -25.1911
   XY=              1.0916   XZ=             -0.0565   YZ=             -0.0922

 Normal termination of Gaussian 09 at Wed Aug 26 08:56:55 2020.
