 Gaussian 09, Revision D.01,
 Gaussian 09:  ES64L-G09RevD.01 24-Apr-2013

 --------------------
 #p B2PLYPD3/Def2QZVP
 --------------------

 --------
 acrolein
 --------
 Symbolic Z-matrix:
 Charge =  0 Multiplicity = 1

                         Standard orientation:
 ---------------------------------------------------------------------
 Center     Atomic      Atomic             Coordinates (Angstroms)
 Number     Number       Type             X           Y           Z
 ---------------------------------------------------------------------
      1          6           0        0.659673    0.330046    0.034469
      2          8           0        1.812705   -0.102278   -0.030071
      3          6           0       -0.564020   -0.450572    0.028350
      4          6           0       -1.758081    0.137941   -0.041670
      5          1           0       -0.447758   -1.543764   -0.001556
      6          1           0       -1.843404    1.217109   -0.083264
      7          1           0       -2.667947   -0.390342    0.091587
      8          1           0        0.432034    1.430732    0.106908
 ---------------------------------------------------------------------

 SCF Done:  E(RB2PLYPD3) =  -191.611773880     A.U. after   13 cycles
 E2(B2PLYPD3) =    -0.2487297058D+00 E(B2PLYPD3) =    -0.19186050358589D+03

 The electronic state is 1-A.
 Alpha  occ. eigenvalues --  -19.73061 -10.72016 -10.65684 -10.64758  -1.18220
 Alpha  occ. eigenvalues --   -0.93598  -0.76331  -0.66633  -0.56903  -0.55953
 Alpha  occ. eigenvalues --   -0.50536  -0.46893  -0.46164  -0.34838  -0.33926
 Alpha virt. eigenvalues --   -0.02550   0.05696   0.07032   0.08167   0.09740
 Alpha virt. eigenvalues --    0.12657   0.13881   0.15344   0.17284   0.19387
 Alpha virt. eigenvalues --    0.20005   0.21862   0.25196   0.26548   0.28686

 Mulliken charges:
               1
     1  C    0.157551
     2  O   -0.358288
     3  C   -0.025038
     4  C   -0.120958
     5  H    0.100746
     6  H    0.080751
     7  H    0.104562
     8  H    0.060674
 Sum of Mulliken charges =   0.00000

 Dipole moment (field-independent basis, Debye):
    X=             -3.7366    Y=              0.6675    Z=              0.1462  Tot=              3.7986
 Quadrupole moment (field-independent basis, Debye-Ang):
   XX=            -27.4849   YY=            -21.9428   ZZ=            -25.2157
   XY=              0.6423   XZ=              0.0444   YZ=             -0.0842

 Normal termination of Gaussian 09 at Wed Aug 26 09:20:11 2020.
