 Gaussian 09, Revision D.01,
 Gaussian 09:  ES64L-G09RevD.01 24-Apr-2013

 --------------------
 #p B2PLYPD3/Def2QZVP
 --------------------

 --------
 acrolein
 --------
 Symbolic Z-matrix:
 Charge =  0 Multiplicity = 1

                         Standard orientation:
 ---------------------------------------------------------------------
 Center     Atomic      Atomic             Coordinates (Angstroms)
 Number     Number       Type             X           Y           Z
 ---------------------------------------------------------------------
      1          6           0        0.648828    0.318529    0.062114
      2          8           0        1.805568   -0.094041   -0.058286
      3          6           0       -0.598632   -0.491263    0.000233
      4          6           0       -1.714069    0.184454   -0.036591
      5          1           0       -0.479011   -1.562363    0.222021
      6          1           0       -1.807046    1.253349   -0.035110
      7          1           0       -2.749857   -0.360317   -0.058895
      8          1           0        0.574612    1.351334    0.183733
 ---------------------------------------------------------------------

 SCF Done:  E(RB2PLYPD3) =  -191.601202422     A.U. after   12 cycles
 E2(B2PLYPD3) =    -0.2479492812D+00 E(B2PLYPD3) =    -0.19184915170328D+03

 The electronic state is 1-A.
 Alpha  occ. eigenvalues --  -19.72473 -10.71108 -10.66031 -10.64888  -1.17910
 Alpha  occ. eigenvalues --   -0.93749  -0.74741  -0.67827  -0.57198  -0.55601
 Alpha  occ. eigenvalues --   -0.50627  -0.46151  -0.45283  -0.35319  -0.33521
 Alpha virt. eigenvalues --   -0.01432   0.05572   0.06532   0.07781   0.09487
 Alpha virt. eigenvalues --    0.12474   0.13970   0.15006   0.17591   0.19681
 Alpha virt. eigenvalues --    0.20103   0.21084   0.24864   0.26852   0.29164

 Mulliken charges:
               1
     1  C    0.146747
     2  O   -0.361406
     3  C   -0.033626
     4  C   -0.117457
     5  H    0.110306
     6  H    0.091404
     7  H    0.084107
     8  H    0.079925
 Sum of Mulliken charges =   0.00000

 Dipole moment (field-independent basis, Debye):
    X=             -3.6206    Y=              0.7768    Z=              0.4035  Tot=              3.7250
 Quadrupole moment (field-independent basis, Debye-Ang):
   XX=            -27.9998   YY=            -21.5495   ZZ=            -25.1553
   XY=              0.6484   XZ=              0.3768   YZ=             -0.2960

 Normal termination of Gaussian 09 at Wed Aug 26 14:23:26 2020.
