 Gaussian 09, Revision D.01,
 Gaussian 09:  ES64L-G09RevD.01 24-Apr-2013

 --------------------
 #p B2PLYPD3/Def2QZVP
 --------------------

 --------
 acrolein
 --------
 Symbolic Z-matrix:
 Charge =  0 Multiplicity = 1

                         Standard orientation:
 ---------------------------------------------------------------------
 Center     Atomic      Atomic             Coordinates (Angstroms)
 Number     Number       Type             X           Y           Z
 ---------------------------------------------------------------------
      1          6           0       -0.678764    0.367781    0.023225
      2          8           0       -1.771858   -0.140551   -0.027565
      3          6           0        0.547222   -0.451875    0.027060
      4          6           0        1.747208    0.133651   -0.040507
      5          1           0        0.469584   -1.508576    0.047073
      6          1           0        1.817603    1.212411   -0.031189
      7          1           0        2.731300   -0.398701    0.046717
      8          1           0       -0.537623    1.521938    0.099253
 ---------------------------------------------------------------------

 SCF Done:  E(RB2PLYPD3) =  -191.611728431     A.U. after   12 cycles
 E2(B2PLYPD3) =    -0.2476464609D+00 E(B2PLYPD3) =    -0.19185937489238D+03

 The electronic state is 1-A.
 Alpha  occ. eigenvalues --  -19.72956 -10.72289 -10.65657 -10.64276  -1.19967
 Alpha  occ. eigenvalues --   -0.92667  -0.74586  -0.66731  -0.56364  -0.56111
 Alpha  occ. eigenvalues --   -0.50441  -0.46985  -0.46577  -0.34543  -0.33859
 Alpha virt. eigenvalues --   -0.01621   0.05703   0.07010   0.08025   0.09733
 Alpha virt. eigenvalues --    0.12297   0.14033   0.15411   0.17524   0.19624
 Alpha virt. eigenvalues --    0.19972   0.21335   0.25445   0.26089   0.28969

 Mulliken charges:
               1
     1  C    0.154269
     2  O   -0.339501
     3  C   -0.045990
     4  C   -0.122466
     5  H    0.111798
     6  H    0.077029
     7  H    0.095440
     8  H    0.069421
 Sum of Mulliken charges =   0.00000

 Dipole moment (field-independent basis, Debye):
    X=              3.3578    Y=              0.7851    Z=              0.1751  Tot=              3.4528
 Quadrupole moment (field-independent basis, Debye-Ang):
   XX=            -27.2785   YY=            -21.7939   ZZ=            -25.3069
   XY=             -1.0768   XZ=             -0.0320   YZ=             -0.0653

 Normal termination of Gaussian 09 at Wed Aug 26 09:10:05 2020.
