 Gaussian 09, Revision D.01,
 Gaussian 09:  ES64L-G09RevD.01 24-Apr-2013

 --------------------
 #p B2PLYPD3/Def2QZVP
 --------------------

 --------
 acrolein
 --------
 Symbolic Z-matrix:
 Charge =  0 Multiplicity = 1

                         Standard orientation:
 ---------------------------------------------------------------------
 Center     Atomic      Atomic             Coordinates (Angstroms)
 Number     Number       Type             X           Y           Z
 ---------------------------------------------------------------------
      1          6           0        0.670413    0.365111    0.035347
      2          8           0        1.800488   -0.115631   -0.034789
      3          6           0       -0.577896   -0.469343    0.045794
      4          6           0       -1.758223    0.142956   -0.035789
      5          1           0       -0.409020   -1.551577   -0.017923
      6          1           0       -1.894756    1.294783   -0.062646
      7          1           0       -2.620546   -0.448966    0.009739
      8          1           0        0.514650    1.398464    0.077026
 ---------------------------------------------------------------------

 SCF Done:  E(RB2PLYPD3) =  -191.606616088     A.U. after   13 cycles
 E2(B2PLYPD3) =    -0.2481589824D+00 E(B2PLYPD3) =    -0.19185477507027D+03

 The electronic state is 1-A.
 Alpha  occ. eigenvalues --  -19.72811 -10.71393 -10.65799 -10.64828  -1.18291
 Alpha  occ. eigenvalues --   -0.92651  -0.75453  -0.67339  -0.56336  -0.55810
 Alpha  occ. eigenvalues --   -0.50546  -0.46621  -0.45864  -0.34690  -0.33790
 Alpha virt. eigenvalues --   -0.01721   0.05554   0.07203   0.07607   0.09633
 Alpha virt. eigenvalues --    0.12398   0.13756   0.15392   0.17568   0.18956
 Alpha virt. eigenvalues --    0.20028   0.21895   0.25159   0.26817   0.28490

 Mulliken charges:
               1
     1  C    0.163968
     2  O   -0.361342
     3  C   -0.058368
     4  C   -0.127451
     5  H    0.109935
     6  H    0.083192
     7  H    0.102576
     8  H    0.087491
 Sum of Mulliken charges =   0.00000

 Dipole moment (field-independent basis, Debye):
    X=             -3.5039    Y=              0.8342    Z=              0.0888  Tot=              3.6029
 Quadrupole moment (field-independent basis, Debye-Ang):
   XX=            -27.9350   YY=            -21.3748   ZZ=            -25.3163
   XY=              0.8080   XZ=              0.2634   YZ=              0.0067

 Normal termination of Gaussian 09 at Wed Aug 26 10:26:20 2020.
