 Gaussian 09, Revision D.01,
 Gaussian 09:  ES64L-G09RevD.01 24-Apr-2013

 --------------------
 #p B2PLYPD3/Def2QZVP
 --------------------

 --------
 acrolein
 --------
 Symbolic Z-matrix:
 Charge =  0 Multiplicity = 1

                         Standard orientation:
 ---------------------------------------------------------------------
 Center     Atomic      Atomic             Coordinates (Angstroms)
 Number     Number       Type             X           Y           Z
 ---------------------------------------------------------------------
      1          6           0       -0.683028    0.362571    0.022552
      2          8           0       -1.776971   -0.138327   -0.022027
      3          6           0        0.559426   -0.440799    0.003840
      4          6           0        1.758810    0.143767   -0.001628
      5          1           0        0.457331   -1.500607    0.060261
      6          1           0        1.814118    1.170004   -0.071399
      7          1           0        2.679540   -0.428974   -0.028911
      8          1           0       -0.546472    1.472962    0.067678
 ---------------------------------------------------------------------

 SCF Done:  E(RB2PLYPD3) =  -191.614982531     A.U. after   12 cycles
 E2(B2PLYPD3) =    -0.2465504799D+00 E(B2PLYPD3) =    -0.19186153301129D+03

 The electronic state is 1-A.
 Alpha  occ. eigenvalues --  -19.72882 -10.71759 -10.64702 -10.64118  -1.20026
 Alpha  occ. eigenvalues --   -0.92894  -0.75308  -0.67281  -0.57005  -0.56347
 Alpha  occ. eigenvalues --   -0.50663  -0.47423  -0.46930  -0.34562  -0.33849
 Alpha virt. eigenvalues --   -0.01542   0.05871   0.07252   0.08108   0.09827
 Alpha virt. eigenvalues --    0.12606   0.13978   0.15347   0.17581   0.19788
 Alpha virt. eigenvalues --    0.20187   0.21667   0.25403   0.26369   0.28846

 Mulliken charges:
               1
     1  C    0.151378
     2  O   -0.342020
     3  C   -0.041217
     4  C   -0.134518
     5  H    0.107063
     6  H    0.085491
     7  H    0.100731
     8  H    0.073093
 Sum of Mulliken charges =   0.00000

 Dipole moment (field-independent basis, Debye):
    X=              3.3540    Y=              0.8138    Z=              0.0637  Tot=              3.4519
 Quadrupole moment (field-independent basis, Debye-Ang):
   XX=            -27.3406   YY=            -21.7413   ZZ=            -25.1577
   XY=             -1.1096   XZ=             -0.2592   YZ=             -0.1295

 Normal termination of Gaussian 09 at Wed Aug 26 19:09:11 2020.
