 Gaussian 09, Revision D.01,
 Gaussian 09:  ES64L-G09RevD.01 24-Apr-2013

 --------------------
 #p B2PLYPD3/Def2QZVP
 --------------------

 --------
 acrolein
 --------
 Symbolic Z-matrix:
 Charge =  0 Multiplicity = 1

                         Standard orientation:
 ---------------------------------------------------------------------
 Center     Atomic      Atomic             Coordinates (Angstroms)
 Number     Number       Type             X           Y           Z
 ---------------------------------------------------------------------
      1          6           0       -0.679300    0.366098    0.009249
      2          8           0       -1.770869   -0.137291   -0.017001
      3          6           0        0.552821   -0.448112    0.028917
      4          6           0        1.755378    0.144459   -0.021933
      5          1           0        0.456078   -1.499246    0.020335
      6          1           0        1.796818    1.201571    0.020275
      7          1           0        2.691495   -0.431978   -0.035431
      8          1           0       -0.550831    1.453313    0.033435
 ---------------------------------------------------------------------

 SCF Done:  E(RB2PLYPD3) =  -191.615771881     A.U. after   12 cycles
 E2(B2PLYPD3) =    -0.2465780963D+00 E(B2PLYPD3) =    -0.19186234997781D+03

 The electronic state is 1-A.
 Alpha  occ. eigenvalues --  -19.72702 -10.71420 -10.65239 -10.64047  -1.20048
 Alpha  occ. eigenvalues --   -0.92678  -0.75038  -0.67613  -0.56970  -0.56124
 Alpha  occ. eigenvalues --   -0.50513  -0.47361  -0.46965  -0.34382  -0.33851
 Alpha virt. eigenvalues --   -0.01507   0.05811   0.07277   0.08077   0.09812
 Alpha virt. eigenvalues --    0.12514   0.13991   0.15408   0.17695   0.19916
 Alpha virt. eigenvalues --    0.19958   0.21448   0.25458   0.26312   0.29011

 Mulliken charges:
               1
     1  C    0.150887
     2  O   -0.343753
     3  C   -0.045480
     4  C   -0.135573
     5  H    0.110063
     6  H    0.084536
     7  H    0.100766
     8  H    0.078555
 Sum of Mulliken charges =   0.00000

 Dipole moment (field-independent basis, Debye):
    X=              3.3438    Y=              0.8303    Z=              0.0628  Tot=              3.4459
 Quadrupole moment (field-independent basis, Debye-Ang):
   XX=            -27.4117   YY=            -21.6425   ZZ=            -25.2007
   XY=             -1.1781   XZ=             -0.1350   YZ=              0.0488

 Normal termination of Gaussian 09 at Wed Aug 26 15:31:06 2020.
