 Gaussian 09, Revision D.01,
 Gaussian 09:  ES64L-G09RevD.01 24-Apr-2013

 --------------------
 #p B2PLYPD3/Def2QZVP
 --------------------

 --------
 acrolein
 --------
 Symbolic Z-matrix:
 Charge =  0 Multiplicity = 1

                         Standard orientation:
 ---------------------------------------------------------------------
 Center     Atomic      Atomic             Coordinates (Angstroms)
 Number     Number       Type             X           Y           Z
 ---------------------------------------------------------------------
      1          6           0       -0.658641    0.339842   -0.007064
      2          8           0       -1.784610   -0.123290    0.014250
      3          6           0        0.550428   -0.441300   -0.026895
      4          6           0        1.749007    0.146346    0.008688
      5          1           0        0.482926   -1.492321   -0.035341
      6          1           0        1.774894    1.210021   -0.070894
      7          1           0        2.728097   -0.417164    0.120587
      8          1           0       -0.553806    1.416451    0.023273
 ---------------------------------------------------------------------

 SCF Done:  E(RB2PLYPD3) =  -191.612115284     A.U. after   13 cycles
 E2(B2PLYPD3) =    -0.2473340168D+00 E(B2PLYPD3) =    -0.19185944930080D+03

 The electronic state is 1-A.
 Alpha  occ. eigenvalues --  -19.72466 -10.71089 -10.66050 -10.64001  -1.18960
 Alpha  occ. eigenvalues --   -0.93542  -0.75560  -0.67762  -0.57162  -0.56037
 Alpha  occ. eigenvalues --   -0.50090  -0.47252  -0.46502  -0.34590  -0.33869
 Alpha virt. eigenvalues --   -0.02074   0.05637   0.07158   0.08322   0.09714
 Alpha virt. eigenvalues --    0.12460   0.14079   0.15325   0.17692   0.19647
 Alpha virt. eigenvalues --    0.20174   0.21241   0.25308   0.26333   0.29313

 Mulliken charges:
               1
     1  C    0.144144
     2  O   -0.355424
     3  C   -0.027244
     4  C   -0.130736
     5  H    0.107554
     6  H    0.085802
     7  H    0.102119
     8  H    0.073785
 Sum of Mulliken charges =   0.00000

 Dipole moment (field-independent basis, Debye):
    X=              3.6161    Y=              0.7642    Z=             -0.0167  Tot=              3.6960
 Quadrupole moment (field-independent basis, Debye-Ang):
   XX=            -27.3926   YY=            -21.7959   ZZ=            -25.1456
   XY=             -1.1710   XZ=              0.2494   YZ=             -0.1061

 Normal termination of Gaussian 09 at Wed Aug 26 08:36:03 2020.
