 Gaussian 09, Revision D.01,
 Gaussian 09:  ES64L-G09RevD.01 24-Apr-2013

 --------------------
 #p B2PLYPD3/Def2QZVP
 --------------------

 --------
 acrolein
 --------
 Symbolic Z-matrix:
 Charge =  0 Multiplicity = 1

                         Standard orientation:
 ---------------------------------------------------------------------
 Center     Atomic      Atomic             Coordinates (Angstroms)
 Number     Number       Type             X           Y           Z
 ---------------------------------------------------------------------
      1          6           0       -0.647901   -0.325584    0.088724
      2          8           0       -1.795900    0.108145   -0.051266
      3          6           0        0.573781    0.438044    0.000263
      4          6           0        1.739667   -0.161797   -0.051449
      5          1           0        0.468476    1.555918    0.087504
      6          1           0        1.677905   -1.128846   -0.087547
      7          1           0        2.700779    0.366286    0.106462
      8          1           0       -0.473235   -1.362496    0.078483
 ---------------------------------------------------------------------

 SCF Done:  E(RB2PLYPD3) =  -191.594843638     A.U. after   13 cycles
 E2(B2PLYPD3) =    -0.2478473776D+00 E(B2PLYPD3) =    -0.19184269101599D+03

 The electronic state is 1-A.
 Alpha  occ. eigenvalues --  -19.72872 -10.71170 -10.64483 -10.64322  -1.18067
 Alpha  occ. eigenvalues --   -0.94726  -0.76654  -0.67912  -0.57670  -0.56359
 Alpha  occ. eigenvalues --   -0.50520  -0.46841  -0.46153  -0.35082  -0.34000
 Alpha virt. eigenvalues --   -0.02413   0.05840   0.06952   0.08083   0.09855
 Alpha virt. eigenvalues --    0.12894   0.14194   0.15138   0.17278   0.19490
 Alpha virt. eigenvalues --    0.20583   0.21925   0.25280   0.26594   0.29552

 Mulliken charges:
               1
     1  C    0.142998
     2  O   -0.360862
     3  C   -0.001991
     4  C   -0.135925
     5  H    0.090077
     6  H    0.086699
     7  H    0.107715
     8  H    0.071289
 Sum of Mulliken charges =   0.00000

 Dipole moment (field-independent basis, Debye):
    X=              3.6622    Y=             -0.7667    Z=              0.3440  Tot=              3.7574
 Quadrupole moment (field-independent basis, Debye-Ang):
   XX=            -27.5746   YY=            -21.9199   ZZ=            -24.9743
   XY=              0.9764   XZ=             -0.0133   YZ=              0.2472

 Normal termination of Gaussian 09 at Wed Aug 26 10:58:15 2020.
