 Gaussian 09, Revision D.01,
 Gaussian 09:  ES64L-G09RevD.01 24-Apr-2013

 --------------------
 #p B2PLYPD3/Def2QZVP
 --------------------

 --------
 acrolein
 --------
 Symbolic Z-matrix:
 Charge =  0 Multiplicity = 1

                         Standard orientation:
 ---------------------------------------------------------------------
 Center     Atomic      Atomic             Coordinates (Angstroms)
 Number     Number       Type             X           Y           Z
 ---------------------------------------------------------------------
      1          6           0        0.660014    0.371807    0.049716
      2          8           0        1.776205   -0.134842   -0.032551
      3          6           0       -0.522929   -0.434896    0.052041
      4          6           0       -1.745128    0.100555   -0.037427
      5          1           0       -0.414734   -1.406350   -0.035371
      6          1           0       -1.896141    1.221326    0.048893
      7          1           0       -2.715585   -0.434306   -0.056521
      8          1           0        0.465081    1.473267   -0.082574
 ---------------------------------------------------------------------

 SCF Done:  E(RB2PLYPD3) =  -191.600327725     A.U. after   13 cycles
 E2(B2PLYPD3) =    -0.2484781665D+00 E(B2PLYPD3) =    -0.19184880589175D+03

 The electronic state is 1-A.
 Alpha  occ. eigenvalues --  -19.72831 -10.71746 -10.66485 -10.63270  -1.18602
 Alpha  occ. eigenvalues --   -0.93532  -0.75731  -0.68056  -0.56867  -0.56052
 Alpha  occ. eigenvalues --   -0.50470  -0.46644  -0.46250  -0.34690  -0.33922
 Alpha virt. eigenvalues --   -0.02387   0.05501   0.07449   0.07813   0.09732
 Alpha virt. eigenvalues --    0.12268   0.13929   0.15277   0.18221   0.19501
 Alpha virt. eigenvalues --    0.19878   0.21260   0.24776   0.26881   0.28949

 Mulliken charges:
               1
     1  C    0.160120
     2  O   -0.359989
     3  C   -0.043721
     4  C   -0.116962
     5  H    0.120769
     6  H    0.069289
     7  H    0.096463
     8  H    0.074031
 Sum of Mulliken charges =   0.00000

 Dipole moment (field-independent basis, Debye):
    X=             -3.6217    Y=              0.7853    Z=              0.0506  Tot=              3.7062
 Quadrupole moment (field-independent basis, Debye-Ang):
   XX=            -27.1726   YY=            -21.9443   ZZ=            -25.1613
   XY=              0.9325   XZ=              0.2348   YZ=              0.1266

 Normal termination of Gaussian 09 at Wed Aug 26 13:39:07 2020.
