 Gaussian 09, Revision D.01,
 Gaussian 09:  ES64L-G09RevD.01 24-Apr-2013

 --------------------
 #p B2PLYPD3/Def2QZVP
 --------------------

 --------
 acrolein
 --------
 Symbolic Z-matrix:
 Charge =  0 Multiplicity = 1

                         Standard orientation:
 ---------------------------------------------------------------------
 Center     Atomic      Atomic             Coordinates (Angstroms)
 Number     Number       Type             X           Y           Z
 ---------------------------------------------------------------------
      1          6           0       -0.647012    0.352312   -0.079995
      2          8           0       -1.782341   -0.131138    0.064547
      3          6           0        0.524644   -0.385238   -0.016357
      4          6           0        1.763920    0.118078    0.009754
      5          1           0        0.433101   -1.504942   -0.105747
      6          1           0        1.697711    1.061879    0.278258
      7          1           0        2.732326   -0.390737    0.017152
      8          1           0       -0.453723    1.371989   -0.186459
 ---------------------------------------------------------------------

 SCF Done:  E(RB2PLYPD3) =  -191.586339664     A.U. after   14 cycles
 E2(B2PLYPD3) =    -0.2491262307D+00 E(B2PLYPD3) =    -0.19183546589439D+03

 The electronic state is 1-A.
 Alpha  occ. eigenvalues --  -19.72771 -10.70809 -10.65086 -10.64218  -1.17729
 Alpha  occ. eigenvalues --   -0.94841  -0.78168  -0.67781  -0.57383  -0.57177
 Alpha  occ. eigenvalues --   -0.51146  -0.46322  -0.45220  -0.34545  -0.34274
 Alpha virt. eigenvalues --   -0.03366   0.05739   0.07104   0.08311   0.09770
 Alpha virt. eigenvalues --    0.12832   0.14361   0.14956   0.17042   0.19121
 Alpha virt. eigenvalues --    0.20562   0.21896   0.24597   0.26811   0.29237

 Mulliken charges:
               1
     1  C    0.141067
     2  O   -0.366529
     3  C   -0.001413
     4  C   -0.131257
     5  H    0.090297
     6  H    0.077927
     7  H    0.110402
     8  H    0.079507
 Sum of Mulliken charges =   0.00000

 Dipole moment (field-independent basis, Debye):
    X=              3.8064    Y=              0.8409    Z=             -0.1451  Tot=              3.9009
 Quadrupole moment (field-independent basis, Debye-Ang):
   XX=            -27.0810   YY=            -22.2302   ZZ=            -24.9156
   XY=             -1.2561   XZ=              0.6719   YZ=              0.3249

 Normal termination of Gaussian 09 at Wed Aug 26 10:38:29 2020.
