 Gaussian 09, Revision D.01,
 Gaussian 09:  ES64L-G09RevD.01 24-Apr-2013

 --------------------
 #p B2PLYPD3/Def2QZVP
 --------------------

 --------
 acrolein
 --------
 Symbolic Z-matrix:
 Charge =  0 Multiplicity = 1

                         Standard orientation:
 ---------------------------------------------------------------------
 Center     Atomic      Atomic             Coordinates (Angstroms)
 Number     Number       Type             X           Y           Z
 ---------------------------------------------------------------------
      1          6           0       -0.676705    0.349886    0.029291
      2          8           0       -1.776592   -0.129160   -0.037776
      3          6           0        0.535268   -0.443190    0.064240
      4          6           0        1.757897    0.130935   -0.042218
      5          1           0        0.462949   -1.447421    0.005538
      6          1           0        1.801928    1.236545    0.015733
      7          1           0        2.740954   -0.442329   -0.069032
      8          1           0       -0.491856    1.460701    0.042097
 ---------------------------------------------------------------------

 SCF Done:  E(RB2PLYPD3) =  -191.607582650     A.U. after   13 cycles
 E2(B2PLYPD3) =    -0.2475737688D+00 E(B2PLYPD3) =    -0.19185515641847D+03

 The electronic state is 1-A.
 Alpha  occ. eigenvalues --  -19.72815 -10.71567 -10.66652 -10.63664  -1.20155
 Alpha  occ. eigenvalues --   -0.92864  -0.75093  -0.67618  -0.56384  -0.56143
 Alpha  occ. eigenvalues --   -0.50455  -0.47224  -0.46929  -0.34374  -0.33907
 Alpha virt. eigenvalues --   -0.02038   0.05586   0.07289   0.08261   0.09758
 Alpha virt. eigenvalues --    0.12339   0.13742   0.15313   0.18093   0.19681
 Alpha virt. eigenvalues --    0.19846   0.21047   0.24992   0.26365   0.29025

 Mulliken charges:
               1
     1  C    0.153397
     2  O   -0.343101
     3  C   -0.037582
     4  C   -0.127499
     5  H    0.111918
     6  H    0.078090
     7  H    0.100620
     8  H    0.064156
 Sum of Mulliken charges =   0.00000

 Dipole moment (field-independent basis, Debye):
    X=              3.4713    Y=              0.7140    Z=              0.0799  Tot=              3.5449
 Quadrupole moment (field-independent basis, Debye-Ang):
   XX=            -27.1610   YY=            -21.9482   ZZ=            -25.2579
   XY=             -1.1053   XZ=             -0.3447   YZ=              0.1056

 Normal termination of Gaussian 09 at Wed Aug 26 09:23:23 2020.
