 Gaussian 09, Revision D.01,
 Gaussian 09:  ES64L-G09RevD.01 24-Apr-2013

 --------------------
 #p B2PLYPD3/Def2QZVP
 --------------------

 --------
 acrolein
 --------
 Symbolic Z-matrix:
 Charge =  0 Multiplicity = 1

                         Standard orientation:
 ---------------------------------------------------------------------
 Center     Atomic      Atomic             Coordinates (Angstroms)
 Number     Number       Type             X           Y           Z
 ---------------------------------------------------------------------
      1          6           0        0.670788    0.363960    0.034014
      2          8           0        1.784085   -0.141113   -0.030635
      3          6           0       -0.552853   -0.443364    0.047867
      4          6           0       -1.736369    0.131324   -0.026473
      5          1           0       -0.506169   -1.438574   -0.027781
      6          1           0       -1.817274    1.227154   -0.029163
      7          1           0       -2.702984   -0.464387   -0.041168
      8          1           0        0.464357    1.493196    0.010741
 ---------------------------------------------------------------------

 SCF Done:  E(RB2PLYPD3) =  -191.605791009     A.U. after   13 cycles
 E2(B2PLYPD3) =    -0.2480025480D+00 E(B2PLYPD3) =    -0.19185379355672D+03

 The electronic state is 1-A.
 Alpha  occ. eigenvalues --  -19.73084 -10.72366 -10.65807 -10.63210  -1.18902
 Alpha  occ. eigenvalues --   -0.93630  -0.74829  -0.67719  -0.56350  -0.56026
 Alpha  occ. eigenvalues --   -0.50363  -0.46956  -0.46475  -0.34934  -0.33978
 Alpha virt. eigenvalues --   -0.01743   0.05579   0.07160   0.07929   0.09758
 Alpha virt. eigenvalues --    0.12414   0.13574   0.15285   0.18090   0.19602
 Alpha virt. eigenvalues --    0.19862   0.21169   0.25419   0.26425   0.28845

 Mulliken charges:
               1
     1  C    0.153981
     2  O   -0.351388
     3  C   -0.037723
     4  C   -0.120765
     5  H    0.112579
     6  H    0.077899
     7  H    0.094487
     8  H    0.070930
 Sum of Mulliken charges =   0.00000

 Dipole moment (field-independent basis, Debye):
    X=             -3.4982    Y=              0.7780    Z=              0.0233  Tot=              3.5837
 Quadrupole moment (field-independent basis, Debye-Ang):
   XX=            -27.5349   YY=            -21.7886   ZZ=            -25.2019
   XY=              1.1340   XZ=              0.3076   YZ=              0.0582

 Normal termination of Gaussian 09 at Wed Aug 26 09:42:30 2020.
