 Gaussian 09, Revision D.01,
 Gaussian 09:  ES64L-G09RevD.01 24-Apr-2013

 --------------------
 #p B2PLYPD3/Def2QZVP
 --------------------

 --------
 acrolein
 --------
 Symbolic Z-matrix:
 Charge =  0 Multiplicity = 1

                         Standard orientation:
 ---------------------------------------------------------------------
 Center     Atomic      Atomic             Coordinates (Angstroms)
 Number     Number       Type             X           Y           Z
 ---------------------------------------------------------------------
      1          6           0       -0.673559    0.359528    0.032868
      2          8           0       -1.779733   -0.126946   -0.031240
      3          6           0        0.564976   -0.442960    0.008574
      4          6           0        1.755032    0.134505   -0.003955
      5          1           0        0.422540   -1.581352    0.083621
      6          1           0        1.850899    1.221376   -0.062098
      7          1           0        2.644799   -0.394525   -0.067989
      8          1           0       -0.559070    1.463628    0.071471
 ---------------------------------------------------------------------

 SCF Done:  E(RB2PLYPD3) =  -191.612418159     A.U. after   12 cycles
 E2(B2PLYPD3) =    -0.2470786257D+00 E(B2PLYPD3) =    -0.19185949678504D+03

 The electronic state is 1-A.
 Alpha  occ. eigenvalues --  -19.72800 -10.71673 -10.65009 -10.64815  -1.19591
 Alpha  occ. eigenvalues --   -0.92938  -0.75555  -0.66272  -0.56941  -0.56298
 Alpha  occ. eigenvalues --   -0.50753  -0.46867  -0.45941  -0.34827  -0.33848
 Alpha virt. eigenvalues --   -0.01564   0.05829   0.06937   0.08135   0.09697
 Alpha virt. eigenvalues --    0.12529   0.14200   0.15261   0.17112   0.19719
 Alpha virt. eigenvalues --    0.19960   0.21996   0.25427   0.26364   0.28840

 Mulliken charges:
               1
     1  C    0.158264
     2  O   -0.345563
     3  C   -0.042916
     4  C   -0.124180
     5  H    0.098929
     6  H    0.078279
     7  H    0.104340
     8  H    0.072846
 Sum of Mulliken charges =   0.00000

 Dipole moment (field-independent basis, Debye):
    X=              3.4209    Y=              0.8068    Z=              0.0926  Tot=              3.5160
 Quadrupole moment (field-independent basis, Debye-Ang):
   XX=            -27.3655   YY=            -21.7080   ZZ=            -25.2174
   XY=             -0.9549   XZ=             -0.3801   YZ=             -0.1346

 Normal termination of Gaussian 09 at Wed Aug 26 08:53:57 2020.
