 Gaussian 09, Revision D.01,
 Gaussian 09:  ES64L-G09RevD.01 24-Apr-2013

 --------------------
 #p B2PLYPD3/Def2QZVP
 --------------------

 --------
 acrolein
 --------
 Symbolic Z-matrix:
 Charge =  0 Multiplicity = 1

                         Standard orientation:
 ---------------------------------------------------------------------
 Center     Atomic      Atomic             Coordinates (Angstroms)
 Number     Number       Type             X           Y           Z
 ---------------------------------------------------------------------
      1          6           0        0.677037    0.345980   -0.026227
      2          8           0        1.786398   -0.099896    0.031128
      3          6           0       -0.553105   -0.483997   -0.031566
      4          6           0       -1.753214    0.158147    0.015043
      5          1           0       -0.448397   -1.592308    0.009276
      6          1           0       -1.925300    1.267895    0.119287
      7          1           0       -2.665208   -0.401987   -0.003880
      8          1           0        0.523408    1.404783   -0.117209
 ---------------------------------------------------------------------

 SCF Done:  E(RB2PLYPD3) =  -191.610859551     A.U. after   12 cycles
 E2(B2PLYPD3) =    -0.2472187805D+00 E(B2PLYPD3) =    -0.19185807833196D+03

 The electronic state is 1-A.
 Alpha  occ. eigenvalues --  -19.72522 -10.71016 -10.66156 -10.65291  -1.20170
 Alpha  occ. eigenvalues --   -0.91952  -0.75086  -0.66970  -0.56565  -0.55801
 Alpha  occ. eigenvalues --   -0.50443  -0.47033  -0.46673  -0.34176  -0.33619
 Alpha virt. eigenvalues --   -0.01676   0.05661   0.07119   0.07971   0.09560
 Alpha virt. eigenvalues --    0.12518   0.14201   0.15468   0.17430   0.19349
 Alpha virt. eigenvalues --    0.20111   0.21535   0.25046   0.26482   0.28316

 Mulliken charges:
               1
     1  C    0.157840
     2  O   -0.342448
     3  C   -0.054853
     4  C   -0.129985
     5  H    0.107604
     6  H    0.086506
     7  H    0.097154
     8  H    0.078181
 Sum of Mulliken charges =   0.00000

 Dipole moment (field-independent basis, Debye):
    X=             -3.4480    Y=              0.7380    Z=             -0.0308  Tot=              3.5262
 Quadrupole moment (field-independent basis, Debye-Ang):
   XX=            -27.4681   YY=            -21.5103   ZZ=            -25.3439
   XY=              0.6278   XZ=             -0.3721   YZ=              0.0769

 Normal termination of Gaussian 09 at Wed Aug 26 09:18:10 2020.
