 Gaussian 09, Revision D.01,
 Gaussian 09:  ES64L-G09RevD.01 24-Apr-2013

 --------------------
 #p B2PLYPD3/Def2QZVP
 --------------------

 --------
 acrolein
 --------
 Symbolic Z-matrix:
 Charge =  0 Multiplicity = 1

                         Standard orientation:
 ---------------------------------------------------------------------
 Center     Atomic      Atomic             Coordinates (Angstroms)
 Number     Number       Type             X           Y           Z
 ---------------------------------------------------------------------
      1          6           0       -0.666973    0.352430   -0.022588
      2          8           0       -1.796862   -0.112017    0.025119
      3          6           0        0.574998   -0.462578   -0.020649
      4          6           0        1.758613    0.143000    0.005845
      5          1           0        0.431436   -1.563510   -0.048097
      6          1           0        1.859724    1.243283    0.024004
      7          1           0        2.590620   -0.398407    0.090538
      8          1           0       -0.506713    1.417661   -0.043046
 ---------------------------------------------------------------------

 SCF Done:  E(RB2PLYPD3) =  -191.609475508     A.U. after   12 cycles
 E2(B2PLYPD3) =    -0.2473537378D+00 E(B2PLYPD3) =    -0.19185682924574D+03

 The electronic state is 1-A.
 Alpha  occ. eigenvalues --  -19.72804 -10.71504 -10.64846 -10.64686  -1.18737
 Alpha  occ. eigenvalues --   -0.93111  -0.76078  -0.67036  -0.57103  -0.56247
 Alpha  occ. eigenvalues --   -0.50687  -0.47089  -0.46213  -0.34729  -0.33841
 Alpha virt. eigenvalues --   -0.01743   0.05792   0.07195   0.07930   0.09694
 Alpha virt. eigenvalues --    0.12674   0.14133   0.15307   0.17267   0.19692
 Alpha virt. eigenvalues --    0.19959   0.22178   0.25302   0.26609   0.28571

 Mulliken charges:
               1
     1  C    0.158718
     2  O   -0.355955
     3  C   -0.043369
     4  C   -0.129828
     5  H    0.102820
     6  H    0.083388
     7  H    0.105392
     8  H    0.078833
 Sum of Mulliken charges =   0.00000

 Dipole moment (field-independent basis, Debye):
    X=              3.5323    Y=              0.7760    Z=             -0.0407  Tot=              3.6167
 Quadrupole moment (field-independent basis, Debye-Ang):
   XX=            -27.6878   YY=            -21.5399   ZZ=            -25.1811
   XY=             -0.8004   XZ=              0.3656   YZ=              0.0234

 Normal termination of Gaussian 09 at Wed Aug 26 08:35:47 2020.
