 Gaussian 09, Revision D.01,
 Gaussian 09:  ES64L-G09RevD.01 24-Apr-2013

 --------------------
 #p B2PLYPD3/Def2QZVP
 --------------------

 --------
 acrolein
 --------
 Symbolic Z-matrix:
 Charge =  0 Multiplicity = 1

                         Standard orientation:
 ---------------------------------------------------------------------
 Center     Atomic      Atomic             Coordinates (Angstroms)
 Number     Number       Type             X           Y           Z
 ---------------------------------------------------------------------
      1          6           0       -0.655743   -0.346578    0.004518
      2          8           0       -1.783605    0.110416    0.022697
      3          6           0        0.559260    0.472139   -0.068929
      4          6           0        1.718152   -0.175213   -0.000808
      5          1           0        0.504386    1.589268    0.062548
      6          1           0        1.763216   -1.206903    0.030202
      7          1           0        2.847345    0.351325    0.164705
      8          1           0       -0.576117   -1.319104   -0.047715
 ---------------------------------------------------------------------

 SCF Done:  E(RB2PLYPD3) =  -191.583134676     A.U. after   13 cycles
 E2(B2PLYPD3) =    -0.2476728454D+00 E(B2PLYPD3) =    -0.19183080752145D+03

 The electronic state is 1-A.
 Alpha  occ. eigenvalues --  -19.72261 -10.70267 -10.66606 -10.64980  -1.18950
 Alpha  occ. eigenvalues --   -0.93322  -0.75153  -0.68794  -0.58063  -0.54771
 Alpha  occ. eigenvalues --   -0.49909  -0.46498  -0.45388  -0.34764  -0.33895
 Alpha virt. eigenvalues --   -0.01634   0.05186   0.06860   0.07736   0.09404
 Alpha virt. eigenvalues --    0.12346   0.14265   0.15327   0.17492   0.19635
 Alpha virt. eigenvalues --    0.20232   0.20764   0.24872   0.26376   0.29184

 Mulliken charges:
               1
     1  C    0.149981
     2  O   -0.357078
     3  C   -0.035096
     4  C   -0.120605
     5  H    0.107643
     6  H    0.086808
     7  H    0.080967
     8  H    0.087380
 Sum of Mulliken charges =   0.00000

 Dipole moment (field-independent basis, Debye):
    X=              3.5091    Y=             -0.9167    Z=              0.1507  Tot=              3.6300
 Quadrupole moment (field-independent basis, Debye-Ang):
   XX=            -27.7808   YY=            -21.5459   ZZ=            -25.2037
   XY=              0.9150   XZ=              0.6237   YZ=              0.1835

 Normal termination of Gaussian 09 at Wed Aug 26 11:29:19 2020.
