 Gaussian 09, Revision D.01,
 Gaussian 09:  ES64L-G09RevD.01 24-Apr-2013

 --------------------
 #p B2PLYPD3/Def2QZVP
 --------------------

 --------
 acrolein
 --------
 Symbolic Z-matrix:
 Charge =  0 Multiplicity = 1

                         Standard orientation:
 ---------------------------------------------------------------------
 Center     Atomic      Atomic             Coordinates (Angstroms)
 Number     Number       Type             X           Y           Z
 ---------------------------------------------------------------------
      1          6           0        0.663980    0.338361    0.007984
      2          8           0        1.804648   -0.108537   -0.027428
      3          6           0       -0.577250   -0.476391    0.014314
      4          6           0       -1.750950    0.164383   -0.023238
      5          1           0       -0.493284   -1.559132    0.099456
      6          1           0       -1.792928    1.264648   -0.071734
      7          1           0       -2.685338   -0.396931    0.003896
      8          1           0        0.519687    1.401589    0.193450
 ---------------------------------------------------------------------

 SCF Done:  E(RB2PLYPD3) =  -191.613422650     A.U. after   12 cycles
 E2(B2PLYPD3) =    -0.2481583438D+00 E(B2PLYPD3) =    -0.19186158099382D+03

 The electronic state is 1-A.
 Alpha  occ. eigenvalues --  -19.72775 -10.71701 -10.65862 -10.64857  -1.18540
 Alpha  occ. eigenvalues --   -0.92921  -0.75062  -0.67088  -0.56468  -0.55950
 Alpha  occ. eigenvalues --   -0.50295  -0.47193  -0.45952  -0.34699  -0.33761
 Alpha virt. eigenvalues --   -0.01823   0.05722   0.06838   0.07767   0.09630
 Alpha virt. eigenvalues --    0.12594   0.14061   0.15228   0.17490   0.19250
 Alpha virt. eigenvalues --    0.20251   0.21350   0.24899   0.26789   0.28868

 Mulliken charges:
               1
     1  C    0.154837
     2  O   -0.354684
     3  C   -0.045407
     4  C   -0.128328
     5  H    0.107271
     6  H    0.086172
     7  H    0.101552
     8  H    0.078587
 Sum of Mulliken charges =   0.00000

 Dipole moment (field-independent basis, Debye):
    X=             -3.5735    Y=              0.7300    Z=              0.1767  Tot=              3.6516
 Quadrupole moment (field-independent basis, Debye-Ang):
   XX=            -27.8000   YY=            -21.5791   ZZ=            -25.2885
   XY=              0.9313   XZ=              0.2027   YZ=             -0.1527

 Normal termination of Gaussian 09 at Wed Aug 26 21:19:50 2020.
