 Gaussian 09, Revision D.01,
 Gaussian 09:  ES64L-G09RevD.01 24-Apr-2013

 --------------------
 #p B2PLYPD3/Def2QZVP
 --------------------

 --------
 acrolein
 --------
 Symbolic Z-matrix:
 Charge =  0 Multiplicity = 1

                         Standard orientation:
 ---------------------------------------------------------------------
 Center     Atomic      Atomic             Coordinates (Angstroms)
 Number     Number       Type             X           Y           Z
 ---------------------------------------------------------------------
      1          6           0       -0.660872    0.345517   -0.014388
      2          8           0       -1.790068   -0.124346    0.019179
      3          6           0        0.558612   -0.444154   -0.033496
      4          6           0        1.749717    0.138034    0.004299
      5          1           0        0.458063   -1.509227    0.011968
      6          1           0        1.796584    1.183581    0.024645
      7          1           0        2.672525   -0.402526    0.085365
      8          1           0       -0.491365    1.486556   -0.013901
 ---------------------------------------------------------------------

 SCF Done:  E(RB2PLYPD3) =  -191.613705555     A.U. after   12 cycles
 E2(B2PLYPD3) =    -0.2477829901D+00 E(B2PLYPD3) =    -0.19186148854510D+03

 The electronic state is 1-A.
 Alpha  occ. eigenvalues --  -19.72924 -10.72123 -10.65064 -10.64199  -1.18811
 Alpha  occ. eigenvalues --   -0.93687  -0.75870  -0.66871  -0.56817  -0.56432
 Alpha  occ. eigenvalues --   -0.50399  -0.47236  -0.46555  -0.34849  -0.33897
 Alpha virt. eigenvalues --   -0.02037   0.05788   0.07053   0.08213   0.09804
 Alpha virt. eigenvalues --    0.12645   0.13939   0.15295   0.17340   0.19880
 Alpha virt. eigenvalues --    0.20144   0.21649   0.25428   0.26326   0.28949

 Mulliken charges:
               1
     1  C    0.153477
     2  O   -0.353375
     3  C   -0.026406
     4  C   -0.126087
     5  H    0.104913
     6  H    0.084116
     7  H    0.102972
     8  H    0.060391
 Sum of Mulliken charges =   0.00000

 Dipole moment (field-independent basis, Debye):
    X=              3.6082    Y=              0.7122    Z=              0.0451  Tot=              3.6781
 Quadrupole moment (field-independent basis, Debye-Ang):
   XX=            -27.3680   YY=            -21.8778   ZZ=            -25.1620
   XY=             -0.9499   XZ=              0.3592   YZ=             -0.0545

 Normal termination of Gaussian 09 at Wed Aug 26 15:30:36 2020.
