 Gaussian 09, Revision D.01,
 Gaussian 09:  ES64L-G09RevD.01 24-Apr-2013

 --------------------
 #p B2PLYPD3/Def2QZVP
 --------------------

 --------
 acrolein
 --------
 Symbolic Z-matrix:
 Charge =  0 Multiplicity = 1

                         Standard orientation:
 ---------------------------------------------------------------------
 Center     Atomic      Atomic             Coordinates (Angstroms)
 Number     Number       Type             X           Y           Z
 ---------------------------------------------------------------------
      1          6           0       -0.693919    0.388090   -0.049855
      2          8           0       -1.788747   -0.162901    0.065251
      3          6           0        0.547852   -0.457471   -0.062885
      4          6           0        1.748107    0.136556    0.027246
      5          1           0        0.558286   -1.442552   -0.054364
      6          1           0        1.781655    1.165382    0.303625
      7          1           0        2.809189   -0.424256    0.006104
      8          1           0       -0.451397    1.601585   -0.264413
 ---------------------------------------------------------------------

 SCF Done:  E(RB2PLYPD3) =  -191.578581213     A.U. after   13 cycles
 E2(B2PLYPD3) =    -0.2507383386D+00 E(B2PLYPD3) =    -0.19182931955174D+03

 The electronic state is 1-A.
 Alpha  occ. eigenvalues --  -19.73762 -10.74146 -10.66150 -10.63837  -1.18985
 Alpha  occ. eigenvalues --   -0.92663  -0.73655  -0.67379  -0.55725  -0.55199
 Alpha  occ. eigenvalues --   -0.49999  -0.46959  -0.46102  -0.34313  -0.33969
 Alpha virt. eigenvalues --   -0.02015   0.05356   0.06334   0.07313   0.09677
 Alpha virt. eigenvalues --    0.12107   0.13182   0.15453   0.17569   0.19099
 Alpha virt. eigenvalues --    0.20116   0.20807   0.24280   0.26105   0.28388

 Mulliken charges:
               1
     1  C    0.165626
     2  O   -0.339836
     3  C   -0.053445
     4  C   -0.119380
     5  H    0.114089
     6  H    0.077570
     7  H    0.087133
     8  H    0.068243
 Sum of Mulliken charges =   0.00000

 Dipole moment (field-independent basis, Debye):
    X=              3.3420    Y=              0.8007    Z=             -0.0685  Tot=              3.4373
 Quadrupole moment (field-independent basis, Debye-Ang):
   XX=            -27.5022   YY=            -21.9751   ZZ=            -25.4027
   XY=             -1.2462   XZ=              0.7232   YZ=              0.2386

 Normal termination of Gaussian 09 at Wed Aug 26 14:26:32 2020.
