 Gaussian 09, Revision D.01,
 Gaussian 09:  ES64L-G09RevD.01 24-Apr-2013

 --------------------
 #p B2PLYPD3/Def2QZVP
 --------------------

 --------
 acrolein
 --------
 Symbolic Z-matrix:
 Charge =  0 Multiplicity = 1

                         Standard orientation:
 ---------------------------------------------------------------------
 Center     Atomic      Atomic             Coordinates (Angstroms)
 Number     Number       Type             X           Y           Z
 ---------------------------------------------------------------------
      1          6           0       -0.667806    0.344642    0.012856
      2          8           0       -1.788562   -0.110927   -0.021780
      3          6           0        0.551257   -0.461089    0.034998
      4          6           0        1.761922    0.145412   -0.023743
      5          1           0        0.405951   -1.560668    0.019975
      6          1           0        1.851296    1.225407    0.013248
      7          1           0        2.701896   -0.404687   -0.049438
      8          1           0       -0.522880    1.453576    0.045789
 ---------------------------------------------------------------------

 SCF Done:  E(RB2PLYPD3) =  -191.614897976     A.U. after   12 cycles
 E2(B2PLYPD3) =    -0.2478727050D+00 E(B2PLYPD3) =    -0.19186277068054D+03

 The electronic state is 1-A.
 Alpha  occ. eigenvalues --  -19.72675 -10.71536 -10.66110 -10.65114  -1.19473
 Alpha  occ. eigenvalues --   -0.92548  -0.75475  -0.66564  -0.56519  -0.56048
 Alpha  occ. eigenvalues --   -0.50309  -0.46980  -0.46690  -0.34372  -0.33762
 Alpha virt. eigenvalues --   -0.02060   0.05702   0.07045   0.08164   0.09697
 Alpha virt. eigenvalues --    0.12461   0.14042   0.15343   0.17249   0.19851
 Alpha virt. eigenvalues --    0.19987   0.21464   0.25165   0.26381   0.28819

 Mulliken charges:
               1
     1  C    0.157634
     2  O   -0.349434
     3  C   -0.039634
     4  C   -0.129499
     5  H    0.105987
     6  H    0.087221
     7  H    0.102607
     8  H    0.065119
 Sum of Mulliken charges =   0.00000

 Dipole moment (field-independent basis, Debye):
    X=              3.5471    Y=              0.7234    Z=              0.0611  Tot=              3.6206
 Quadrupole moment (field-independent basis, Debye-Ang):
   XX=            -27.3424   YY=            -21.7495   ZZ=            -25.3373
   XY=             -0.7628   XZ=             -0.2094   YZ=              0.0511

 Normal termination of Gaussian 09 at Wed Aug 26 20:04:50 2020.
