 Gaussian 09, Revision D.01,
 Gaussian 09:  ES64L-G09RevD.01 24-Apr-2013

 --------------------
 #p B2PLYPD3/Def2QZVP
 --------------------

 --------
 acrolein
 --------
 Symbolic Z-matrix:
 Charge =  0 Multiplicity = 1

                         Standard orientation:
 ---------------------------------------------------------------------
 Center     Atomic      Atomic             Coordinates (Angstroms)
 Number     Number       Type             X           Y           Z
 ---------------------------------------------------------------------
      1          6           0       -0.693550    0.392075    0.110724
      2          8           0       -1.745997   -0.159977   -0.076481
      3          6           0        0.548049   -0.400293    0.020013
      4          6           0        1.760883    0.123524   -0.057037
      5          1           0        0.384823   -1.596141    0.121209
      6          1           0        1.844552    1.102378   -0.190573
      7          1           0        2.630565   -0.428931    0.116274
      8          1           0       -0.584259    1.510672    0.122733
 ---------------------------------------------------------------------

 SCF Done:  E(RB2PLYPD3) =  -191.593822213     A.U. after   14 cycles
 E2(B2PLYPD3) =    -0.2471473026D+00 E(B2PLYPD3) =    -0.19184096951599D+03

 The electronic state is 1-A.
 Alpha  occ. eigenvalues --  -19.73094 -10.71963 -10.65063 -10.63421  -1.20365
 Alpha  occ. eigenvalues --   -0.92729  -0.75801  -0.66096  -0.57347  -0.56636
 Alpha  occ. eigenvalues --   -0.51229  -0.47148  -0.45154  -0.34788  -0.33548
 Alpha virt. eigenvalues --   -0.01792   0.05977   0.06725   0.07998   0.09836
 Alpha virt. eigenvalues --    0.12538   0.14246   0.15440   0.16676   0.19560
 Alpha virt. eigenvalues --    0.20104   0.22544   0.25485   0.26367   0.29224

 Mulliken charges:
               1
     1  C    0.162285
     2  O   -0.334283
     3  C   -0.041765
     4  C   -0.135165
     5  H    0.089386
     6  H    0.080742
     7  H    0.104950
     8  H    0.073851
 Sum of Mulliken charges =   0.00000

 Dipole moment (field-independent basis, Debye):
    X=              3.1381    Y=              1.0062    Z=              0.3643  Tot=              3.3155
 Quadrupole moment (field-independent basis, Debye-Ang):
   XX=            -27.1835   YY=            -21.7615   ZZ=            -25.1330
   XY=             -1.1236   XZ=             -0.3022   YZ=             -0.3738

 Normal termination of Gaussian 09 at Wed Aug 26 10:57:51 2020.
