 Gaussian 09, Revision D.01,
 Gaussian 09:  ES64L-G09RevD.01 24-Apr-2013

 --------------------
 #p B2PLYPD3/Def2QZVP
 --------------------

 --------
 acrolein
 --------
 Symbolic Z-matrix:
 Charge =  0 Multiplicity = 1

                         Standard orientation:
 ---------------------------------------------------------------------
 Center     Atomic      Atomic             Coordinates (Angstroms)
 Number     Number       Type             X           Y           Z
 ---------------------------------------------------------------------
      1          6           0       -0.665574    0.337602    0.018459
      2          8           0       -1.777395   -0.125579   -0.038232
      3          6           0        0.537430   -0.431933    0.048510
      4          6           0        1.758912    0.147524   -0.047099
      5          1           0        0.455863   -1.509914    0.090210
      6          1           0        1.788282    1.127678    0.014896
      7          1           0        2.722757   -0.418242   -0.047199
      8          1           0       -0.532347    1.485956    0.128725
 ---------------------------------------------------------------------

 SCF Done:  E(RB2PLYPD3) =  -191.603395119     A.U. after   13 cycles
 E2(B2PLYPD3) =    -0.2476136261D+00 E(B2PLYPD3) =    -0.19185100874534D+03

 The electronic state is 1-A.
 Alpha  occ. eigenvalues --  -19.72729 -10.71698 -10.65340 -10.64493  -1.19849
 Alpha  occ. eigenvalues --   -0.93423  -0.76332  -0.66839  -0.57131  -0.56273
 Alpha  occ. eigenvalues --   -0.50297  -0.47917  -0.46718  -0.34412  -0.33764
 Alpha virt. eigenvalues --   -0.02361   0.05796   0.06911   0.08572   0.09818
 Alpha virt. eigenvalues --    0.12541   0.14031   0.15288   0.17307   0.19805
 Alpha virt. eigenvalues --    0.20503   0.21505   0.25285   0.26048   0.28984

 Mulliken charges:
               1
     1  C    0.147954
     2  O   -0.343552
     3  C   -0.021963
     4  C   -0.131923
     5  H    0.103088
     6  H    0.091932
     7  H    0.102263
     8  H    0.052200
 Sum of Mulliken charges =   0.00000

 Dipole moment (field-independent basis, Debye):
    X=              3.5729    Y=              0.6774    Z=              0.1885  Tot=              3.6414
 Quadrupole moment (field-independent basis, Debye-Ang):
   XX=            -27.0271   YY=            -22.0269   ZZ=            -25.1770
   XY=             -1.0205   XZ=             -0.2481   YZ=             -0.0136

 Normal termination of Gaussian 09 at Wed Aug 26 09:02:28 2020.
