 Gaussian 09, Revision D.01,
 Gaussian 09:  ES64L-G09RevD.01 24-Apr-2013

 --------------------
 #p B2PLYPD3/Def2QZVP
 --------------------

 --------
 acrolein
 --------
 Symbolic Z-matrix:
 Charge =  0 Multiplicity = 1

                         Standard orientation:
 ---------------------------------------------------------------------
 Center     Atomic      Atomic             Coordinates (Angstroms)
 Number     Number       Type             X           Y           Z
 ---------------------------------------------------------------------
      1          6           0       -0.698404    0.348029    0.058035
      2          8           0       -1.796414   -0.098310   -0.065041
      3          6           0        0.574969   -0.514291    0.053986
      4          6           0        1.776613    0.165021   -0.054056
      5          1           0        0.443802   -1.556254    0.029505
      6          1           0        1.965278    1.295004   -0.202380
      7          1           0        2.515591   -0.433462    0.082422
      8          1           0       -0.472430    1.488639    0.262990
 ---------------------------------------------------------------------

 SCF Done:  E(RB2PLYPD3) =  -191.584166018     A.U. after   13 cycles
 E2(B2PLYPD3) =    -0.2484227317D+00 E(B2PLYPD3) =    -0.19183258874992D+03

 The electronic state is 1-A.
 Alpha  occ. eigenvalues --  -19.73192 -10.72382 -10.65318 -10.65221  -1.20800
 Alpha  occ. eigenvalues --   -0.91522  -0.74978  -0.66123  -0.56655  -0.55190
 Alpha  occ. eigenvalues --   -0.50574  -0.48645  -0.46898  -0.33818  -0.33081
 Alpha virt. eigenvalues --   -0.01650   0.05742   0.06940   0.07706   0.09563
 Alpha virt. eigenvalues --    0.12369   0.13740   0.15652   0.17219   0.18712
 Alpha virt. eigenvalues --    0.20063   0.22083   0.24423   0.26661   0.27734

 Mulliken charges:
               1
     1  C    0.164615
     2  O   -0.327172
     3  C   -0.074764
     4  C   -0.137372
     5  H    0.113014
     6  H    0.098131
     7  H    0.104483
     8  H    0.059064
 Sum of Mulliken charges =   0.00000

 Dipole moment (field-independent basis, Debye):
    X=              3.2665    Y=              0.6092    Z=              0.1978  Tot=              3.3287
 Quadrupole moment (field-independent basis, Debye-Ang):
   XX=            -27.7065   YY=            -21.4250   ZZ=            -25.4209
   XY=             -0.3805   XZ=             -0.4630   YZ=             -0.2699

 Normal termination of Gaussian 09 at Wed Aug 26 14:52:05 2020.
