 Gaussian 09, Revision D.01,
 Gaussian 09:  ES64L-G09RevD.01 24-Apr-2013

 --------------------
 #p B2PLYPD3/Def2QZVP
 --------------------

 --------
 acrolein
 --------
 Symbolic Z-matrix:
 Charge =  0 Multiplicity = 1

                         Standard orientation:
 ---------------------------------------------------------------------
 Center     Atomic      Atomic             Coordinates (Angstroms)
 Number     Number       Type             X           Y           Z
 ---------------------------------------------------------------------
      1          6           0        0.665594    0.336410   -0.010919
      2          8           0        1.791661   -0.110905    0.023429
      3          6           0       -0.559180   -0.464867   -0.035870
      4          6           0       -1.751582    0.149199    0.014144
      5          1           0       -0.466612   -1.532999   -0.025290
      6          1           0       -1.854579    1.272555    0.011861
      7          1           0       -2.669187   -0.425009    0.082964
      8          1           0        0.528101    1.448241   -0.061100
 ---------------------------------------------------------------------

 SCF Done:  E(RB2PLYPD3) =  -191.614603092     A.U. after   13 cycles
 E2(B2PLYPD3) =    -0.2476746413D+00 E(B2PLYPD3) =    -0.19186227773320D+03

 The electronic state is 1-A.
 Alpha  occ. eigenvalues --  -19.72652 -10.71591 -10.66229 -10.64595  -1.19322
 Alpha  occ. eigenvalues --   -0.92901  -0.75175  -0.66733  -0.56342  -0.56193
 Alpha  occ. eigenvalues --   -0.50255  -0.47030  -0.46630  -0.34613  -0.33699
 Alpha virt. eigenvalues --   -0.01867   0.05645   0.07045   0.08172   0.09645
 Alpha virt. eigenvalues --    0.12414   0.13988   0.15327   0.17544   0.19534
 Alpha virt. eigenvalues --    0.19960   0.21442   0.25267   0.26312   0.28777

 Mulliken charges:
               1
     1  C    0.156199
     2  O   -0.349280
     3  C   -0.041930
     4  C   -0.126060
     5  H    0.107716
     6  H    0.086245
     7  H    0.101356
     8  H    0.065755
 Sum of Mulliken charges =   0.00000

 Dipole moment (field-independent basis, Debye):
    X=             -3.5629    Y=              0.6840    Z=             -0.0236  Tot=              3.6281
 Quadrupole moment (field-independent basis, Debye-Ang):
   XX=            -27.5163   YY=            -21.6751   ZZ=            -25.2963
   XY=              0.8767   XZ=             -0.3392   YZ=             -0.0367

 Normal termination of Gaussian 09 at Wed Aug 26 15:51:38 2020.
