 Gaussian 09, Revision D.01,
 Gaussian 09:  ES64L-G09RevD.01 24-Apr-2013

 --------------------
 #p B2PLYPD3/Def2QZVP
 --------------------

 --------
 acrolein
 --------
 Symbolic Z-matrix:
 Charge =  0 Multiplicity = 1

                         Standard orientation:
 ---------------------------------------------------------------------
 Center     Atomic      Atomic             Coordinates (Angstroms)
 Number     Number       Type             X           Y           Z
 ---------------------------------------------------------------------
      1          6           0        0.677637    0.333294   -0.081928
      2          8           0        1.799095   -0.089916    0.074382
      3          6           0       -0.570444   -0.519290   -0.081144
      4          6           0       -1.732578    0.177886    0.009703
      5          1           0       -0.505340   -1.567242   -0.017119
      6          1           0       -1.900370    1.353869    0.051771
      7          1           0       -2.708240   -0.417087    0.302395
      8          1           0        0.473500    1.398450   -0.011893
 ---------------------------------------------------------------------

 SCF Done:  E(RB2PLYPD3) =  -191.594875971     A.U. after   13 cycles
 E2(B2PLYPD3) =    -0.2491426064D+00 E(B2PLYPD3) =    -0.19184401857752D+03

 The electronic state is 1-A.
 Alpha  occ. eigenvalues --  -19.72780 -10.71686 -10.67754 -10.65191  -1.19540
 Alpha  occ. eigenvalues --   -0.91955  -0.73544  -0.67296  -0.55715  -0.55402
 Alpha  occ. eigenvalues --   -0.50563  -0.46599  -0.45547  -0.34332  -0.33603
 Alpha virt. eigenvalues --   -0.01573   0.05181   0.06969   0.07217   0.09413
 Alpha virt. eigenvalues --    0.12128   0.14041   0.15280   0.17996   0.18990
 Alpha virt. eigenvalues --    0.19670   0.21033   0.24182   0.26977   0.28143

 Mulliken charges:
               1
     1  C    0.164592
     2  O   -0.346066
     3  C   -0.058349
     4  C   -0.121303
     5  H    0.116335
     6  H    0.087550
     7  H    0.081047
     8  H    0.076195
 Sum of Mulliken charges =   0.00000

 Dipole moment (field-independent basis, Debye):
    X=             -3.4105    Y=              0.6989    Z=              0.0138  Tot=              3.4814
 Quadrupole moment (field-independent basis, Debye-Ang):
   XX=            -28.1038   YY=            -21.4013   ZZ=            -25.4508
   XY=              0.4885   XZ=             -1.1440   YZ=             -0.0912

 Normal termination of Gaussian 09 at Wed Aug 26 12:50:58 2020.
