 Gaussian 09, Revision D.01,
 Gaussian 09:  ES64L-G09RevD.01 24-Apr-2013

 --------------------
 #p B2PLYPD3/Def2QZVP
 --------------------

 --------
 acrolein
 --------
 Symbolic Z-matrix:
 Charge =  0 Multiplicity = 1

                         Standard orientation:
 ---------------------------------------------------------------------
 Center     Atomic      Atomic             Coordinates (Angstroms)
 Number     Number       Type             X           Y           Z
 ---------------------------------------------------------------------
      1          6           0        0.676269    0.356312    0.006062
      2          8           0        1.784798   -0.134599   -0.022404
      3          6           0       -0.544632   -0.430393    0.035630
      4          6           0       -1.760667    0.142307   -0.029128
      5          1           0       -0.447027   -1.527515    0.059317
      6          1           0       -1.826502    1.197067    0.038327
      7          1           0       -2.766055   -0.467170   -0.059738
      8          1           0        0.535385    1.465053    0.065948
 ---------------------------------------------------------------------

 SCF Done:  E(RB2PLYPD3) =  -191.608949310     A.U. after   13 cycles
 E2(B2PLYPD3) =    -0.2481702741D+00 E(B2PLYPD3) =    -0.19185711958411D+03

 The electronic state is 1-A.
 Alpha  occ. eigenvalues --  -19.72821 -10.71726 -10.66433 -10.64679  -1.19475
 Alpha  occ. eigenvalues --   -0.92777  -0.75186  -0.66740  -0.56701  -0.55570
 Alpha  occ. eigenvalues --   -0.50033  -0.46996  -0.46223  -0.34468  -0.33950
 Alpha virt. eigenvalues --   -0.02088   0.05505   0.06876   0.08250   0.09727
 Alpha virt. eigenvalues --    0.12235   0.13900   0.15342   0.17476   0.19854
 Alpha virt. eigenvalues --    0.19984   0.21028   0.25339   0.26224   0.28882

 Mulliken charges:
               1
     1  C    0.153379
     2  O   -0.348008
     3  C   -0.034276
     4  C   -0.132008
     5  H    0.104878
     6  H    0.087469
     7  H    0.099526
     8  H    0.069040
 Sum of Mulliken charges =   0.00000

 Dipole moment (field-independent basis, Debye):
    X=             -3.4954    Y=              0.8008    Z=              0.1108  Tot=              3.5877
 Quadrupole moment (field-independent basis, Debye-Ang):
   XX=            -27.3389   YY=            -21.8357   ZZ=            -25.3448
   XY=              1.1066   XZ=              0.1757   YZ=              0.0486

 Normal termination of Gaussian 09 at Wed Aug 26 10:17:52 2020.
