 Gaussian 09, Revision D.01,
 Gaussian 09:  ES64L-G09RevD.01 24-Apr-2013

 --------------------
 #p B2PLYPD3/Def2QZVP
 --------------------

 --------
 acrolein
 --------
 Symbolic Z-matrix:
 Charge =  0 Multiplicity = 1

                         Standard orientation:
 ---------------------------------------------------------------------
 Center     Atomic      Atomic             Coordinates (Angstroms)
 Number     Number       Type             X           Y           Z
 ---------------------------------------------------------------------
      1          6           0       -0.672437    0.347266    0.004024
      2          8           0       -1.783239   -0.121767   -0.013868
      3          6           0        0.554458   -0.448122    0.009596
      4          6           0        1.762895    0.146072   -0.018733
      5          1           0        0.403378   -1.537441    0.051041
      6          1           0        1.816215    1.200762   -0.025258
      7          1           0        2.700207   -0.436442    0.021879
      8          1           0       -0.523380    1.475954    0.093957
 ---------------------------------------------------------------------

 SCF Done:  E(RB2PLYPD3) =  -191.614385111     A.U. after   12 cycles
 E2(B2PLYPD3) =    -0.2475736652D+00 E(B2PLYPD3) =    -0.19186195877566D+03

 The electronic state is 1-A.
 Alpha  occ. eigenvalues --  -19.72841 -10.71755 -10.65745 -10.64767  -1.19859
 Alpha  occ. eigenvalues --   -0.92763  -0.75387  -0.66436  -0.56456  -0.56239
 Alpha  occ. eigenvalues --   -0.50410  -0.47237  -0.46797  -0.34511  -0.33749
 Alpha virt. eigenvalues --   -0.01926   0.05771   0.06971   0.08275   0.09804
 Alpha virt. eigenvalues --    0.12471   0.13853   0.15357   0.17269   0.19729
 Alpha virt. eigenvalues --    0.20121   0.21493   0.25354   0.26422   0.28868

 Mulliken charges:
               1
     1  C    0.157831
     2  O   -0.345013
     3  C   -0.036634
     4  C   -0.134009
     5  H    0.104444
     6  H    0.090082
     7  H    0.104759
     8  H    0.058540
 Sum of Mulliken charges =   0.00000

 Dipole moment (field-independent basis, Debye):
    X=              3.4640    Y=              0.7133    Z=              0.1058  Tot=              3.5382
 Quadrupole moment (field-independent basis, Debye-Ang):
   XX=            -27.3375   YY=            -21.8340   ZZ=            -25.2932
   XY=             -0.8932   XZ=             -0.0328   YZ=             -0.0762

 Normal termination of Gaussian 09 at Wed Aug 26 08:41:41 2020.
