 Gaussian 09, Revision D.01,
 Gaussian 09:  ES64L-G09RevD.01 24-Apr-2013

 --------------------
 #p B2PLYPD3/Def2QZVP
 --------------------

 --------
 acrolein
 --------
 Symbolic Z-matrix:
 Charge =  0 Multiplicity = 1

                         Standard orientation:
 ---------------------------------------------------------------------
 Center     Atomic      Atomic             Coordinates (Angstroms)
 Number     Number       Type             X           Y           Z
 ---------------------------------------------------------------------
      1          6           0       -0.671572    0.357545   -0.032369
      2          8           0       -1.789867   -0.134006    0.027468
      3          6           0        0.568818   -0.452199   -0.028869
      4          6           0        1.747004    0.141245   -0.002682
      5          1           0        0.495393   -1.514880   -0.017657
      6          1           0        1.794741    1.214643    0.021205
      7          1           0        2.635015   -0.427908    0.140274
      8          1           0       -0.471714    1.520647    0.019960
 ---------------------------------------------------------------------

 SCF Done:  E(RB2PLYPD3) =  -191.610993952     A.U. after   12 cycles
 E2(B2PLYPD3) =    -0.2481588908D+00 E(B2PLYPD3) =    -0.19185915284285D+03

 The electronic state is 1-A.
 Alpha  occ. eigenvalues --  -19.73224 -10.72754 -10.64848 -10.64142  -1.19009
 Alpha  occ. eigenvalues --   -0.93426  -0.75081  -0.66563  -0.56793  -0.55816
 Alpha  occ. eigenvalues --   -0.50405  -0.47232  -0.46539  -0.34907  -0.33900
 Alpha virt. eigenvalues --   -0.01717   0.05776   0.06934   0.07890   0.09811
 Alpha virt. eigenvalues --    0.12610   0.13740   0.15297   0.17395   0.19680
 Alpha virt. eigenvalues --    0.19983   0.21711   0.25292   0.26478   0.28671

 Mulliken charges:
               1
     1  C    0.159392
     2  O   -0.347074
     3  C   -0.034980
     4  C   -0.124465
     5  H    0.104886
     6  H    0.081456
     7  H    0.101032
     8  H    0.059754
 Sum of Mulliken charges =   0.00000

 Dipole moment (field-independent basis, Debye):
    X=              3.4685    Y=              0.7115    Z=              0.0360  Tot=              3.5409
 Quadrupole moment (field-independent basis, Debye-Ang):
   XX=            -27.6378   YY=            -21.7562   ZZ=            -25.2210
   XY=             -1.0530   XZ=              0.4999   YZ=             -0.0283

 Normal termination of Gaussian 09 at Wed Aug 26 08:46:02 2020.
