 Gaussian 09, Revision D.01,
 Gaussian 09:  ES64L-G09RevD.01 24-Apr-2013

 --------------------
 #p B2PLYPD3/Def2QZVP
 --------------------

 --------
 acrolein
 --------
 Symbolic Z-matrix:
 Charge =  0 Multiplicity = 1

                         Standard orientation:
 ---------------------------------------------------------------------
 Center     Atomic      Atomic             Coordinates (Angstroms)
 Number     Number       Type             X           Y           Z
 ---------------------------------------------------------------------
      1          6           0        0.700756    0.380443   -0.053640
      2          8           0        1.770817   -0.152201    0.050482
      3          6           0       -0.534470   -0.389806   -0.057144
      4          6           0       -1.797363    0.133650    0.004030
      5          1           0       -0.356788   -1.514039   -0.017729
      6          1           0       -1.783566    1.069071    0.110406
      7          1           0       -2.751044   -0.504415    0.157080
      8          1           0        0.511330    1.421276   -0.013096
 ---------------------------------------------------------------------

 SCF Done:  E(RB2PLYPD3) =  -191.584554169     A.U. after   13 cycles
 E2(B2PLYPD3) =    -0.2477100375D+00 E(B2PLYPD3) =    -0.19183226420656D+03

 The electronic state is 1-A.
 Alpha  occ. eigenvalues --  -19.73092 -10.71179 -10.65109 -10.64801  -1.20489
 Alpha  occ. eigenvalues --   -0.92638  -0.76678  -0.67594  -0.57472  -0.55870
 Alpha  occ. eigenvalues --   -0.50883  -0.47384  -0.45937  -0.34325  -0.33878
 Alpha virt. eigenvalues --   -0.02383   0.05677   0.07192   0.08304   0.09955
 Alpha virt. eigenvalues --    0.12482   0.13756   0.15445   0.17369   0.19418
 Alpha virt. eigenvalues --    0.20285   0.21892   0.25275   0.26452   0.28787

 Mulliken charges:
               1
     1  C    0.155632
     2  O   -0.342896
     3  C   -0.029587
     4  C   -0.156871
     5  H    0.094773
     6  H    0.092255
     7  H    0.110906
     8  H    0.075788
 Sum of Mulliken charges =   0.00000

 Dipole moment (field-independent basis, Debye):
    X=             -3.2743    Y=              0.9414    Z=              0.0547  Tot=              3.4074
 Quadrupole moment (field-independent basis, Debye-Ang):
   XX=            -27.1164   YY=            -21.9862   ZZ=            -25.1993
   XY=              1.2690   XZ=             -0.8335   YZ=              0.0033

 Normal termination of Gaussian 09 at Wed Aug 26 12:04:41 2020.
