 Gaussian 09, Revision D.01,
 Gaussian 09:  ES64L-G09RevD.01 24-Apr-2013

 --------------------
 #p B2PLYPD3/Def2QZVP
 --------------------

 --------
 acrolein
 --------
 Symbolic Z-matrix:
 Charge =  0 Multiplicity = 1

                         Standard orientation:
 ---------------------------------------------------------------------
 Center     Atomic      Atomic             Coordinates (Angstroms)
 Number     Number       Type             X           Y           Z
 ---------------------------------------------------------------------
      1          6           0        0.661786    0.335469    0.021484
      2          8           0        1.794752   -0.112513   -0.019817
      3          6           0       -0.564965   -0.459864    0.003780
      4          6           0       -1.740125    0.146258   -0.017034
      5          1           0       -0.467912   -1.505937    0.069342
      6          1           0       -1.835359    1.243285   -0.013167
      7          1           0       -2.703380   -0.406098   -0.004839
      8          1           0        0.508463    1.437672    0.057820
 ---------------------------------------------------------------------

 SCF Done:  E(RB2PLYPD3) =  -191.614968102     A.U. after   13 cycles
 E2(B2PLYPD3) =    -0.2474251321D+00 E(B2PLYPD3) =    -0.19186239323376D+03

 The electronic state is 1-A.
 Alpha  occ. eigenvalues --  -19.72751 -10.71633 -10.65929 -10.64120  -1.18952
 Alpha  occ. eigenvalues --   -0.93487  -0.75244  -0.67251  -0.56526  -0.56288
 Alpha  occ. eigenvalues --   -0.50466  -0.46901  -0.46423  -0.34952  -0.33794
 Alpha virt. eigenvalues --   -0.01781   0.05643   0.07133   0.08181   0.09661
 Alpha virt. eigenvalues --    0.12500   0.14028   0.15260   0.17656   0.19722
 Alpha virt. eigenvalues --    0.19986   0.21305   0.25452   0.26433   0.28870

 Mulliken charges:
               1
     1  C    0.153328
     2  O   -0.353295
     3  C   -0.034519
     4  C   -0.123424
     5  H    0.108675
     6  H    0.084106
     7  H    0.097145
     8  H    0.067984
 Sum of Mulliken charges =   0.00000

 Dipole moment (field-independent basis, Debye):
    X=             -3.5938    Y=              0.7087    Z=              0.1369  Tot=              3.6655
 Quadrupole moment (field-independent basis, Debye-Ang):
   XX=            -27.4851   YY=            -21.7778   ZZ=            -25.1938
   XY=              0.8372   XZ=              0.0849   YZ=             -0.0921

 Normal termination of Gaussian 09 at Wed Aug 26 08:40:23 2020.
