 Gaussian 09, Revision D.01,
 Gaussian 09:  ES64L-G09RevD.01 24-Apr-2013

 --------------------
 #p B2PLYPD3/Def2QZVP
 --------------------

 --------
 acrolein
 --------
 Symbolic Z-matrix:
 Charge =  0 Multiplicity = 1

                         Standard orientation:
 ---------------------------------------------------------------------
 Center     Atomic      Atomic             Coordinates (Angstroms)
 Number     Number       Type             X           Y           Z
 ---------------------------------------------------------------------
      1          6           0       -0.683161    0.351626    0.027704
      2          8           0       -1.763103   -0.136781   -0.029148
      3          6           0        0.543242   -0.436337    0.056192
      4          6           0        1.746972    0.142659   -0.035916
      5          1           0        0.532627   -1.462426   -0.027314
      6          1           0        1.806656    1.200467    0.023985
      7          1           0        2.691190   -0.422862   -0.049774
      8          1           0       -0.567967    1.431378   -0.001590
 ---------------------------------------------------------------------

 SCF Done:  E(RB2PLYPD3) =  -191.612201180     A.U. after   13 cycles
 E2(B2PLYPD3) =    -0.2455962510D+00 E(B2PLYPD3) =    -0.19185779743087D+03

 The electronic state is 1-A.
 Alpha  occ. eigenvalues --  -19.72546 -10.70990 -10.65176 -10.63478  -1.20978
 Alpha  occ. eigenvalues --   -0.93030  -0.75234  -0.67955  -0.57619  -0.56292
 Alpha  occ. eigenvalues --   -0.50601  -0.47613  -0.47064  -0.34534  -0.33811
 Alpha virt. eigenvalues --   -0.01451   0.05856   0.07397   0.08371   0.09773
 Alpha virt. eigenvalues --    0.12590   0.14146   0.15362   0.18083   0.19783
 Alpha virt. eigenvalues --    0.20052   0.21322   0.25146   0.26422   0.28929

 Mulliken charges:
               1
     1  C    0.144473
     2  O   -0.333793
     3  C   -0.041194
     4  C   -0.128024
     5  H    0.106871
     6  H    0.078968
     7  H    0.096969
     8  H    0.075728
 Sum of Mulliken charges =   0.00000

 Dipole moment (field-independent basis, Debye):
    X=              3.3333    Y=              0.7987    Z=              0.0425  Tot=              3.4279
 Quadrupole moment (field-independent basis, Debye-Ang):
   XX=            -27.1202   YY=            -21.8157   ZZ=            -25.0694
   XY=             -1.2877   XZ=             -0.2549   YZ=              0.1265

 Normal termination of Gaussian 09 at Wed Aug 26 10:08:22 2020.
