 Gaussian 09, Revision D.01,
 Gaussian 09:  ES64L-G09RevD.01 24-Apr-2013

 --------------------
 #p B2PLYPD3/Def2QZVP
 --------------------

 --------
 acrolein
 --------
 Symbolic Z-matrix:
 Charge =  0 Multiplicity = 1

                         Standard orientation:
 ---------------------------------------------------------------------
 Center     Atomic      Atomic             Coordinates (Angstroms)
 Number     Number       Type             X           Y           Z
 ---------------------------------------------------------------------
      1          6           0       -0.675473    0.354018    0.006287
      2          8           0       -1.777740   -0.127778   -0.008069
      3          6           0        0.551544   -0.439188    0.022222
      4          6           0        1.757327    0.139355   -0.013992
      5          1           0        0.438699   -1.544065   -0.020347
      6          1           0        1.804658    1.228542    0.014242
      7          1           0        2.721953   -0.424865   -0.012553
      8          1           0       -0.543781    1.437501   -0.003891
 ---------------------------------------------------------------------

 SCF Done:  E(RB2PLYPD3) =  -191.615059101     A.U. after   12 cycles
 E2(B2PLYPD3) =    -0.2470924706D+00 E(B2PLYPD3) =    -0.19186215157191D+03

 The electronic state is 1-A.
 Alpha  occ. eigenvalues --  -19.72701 -10.71287 -10.65950 -10.64591  -1.19990
 Alpha  occ. eigenvalues --   -0.92751  -0.75200  -0.66827  -0.56616  -0.56102
 Alpha  occ. eigenvalues --   -0.50532  -0.47071  -0.46219  -0.34582  -0.33909
 Alpha virt. eigenvalues --   -0.01725   0.05697   0.07040   0.08309   0.09740
 Alpha virt. eigenvalues --    0.12401   0.14047   0.15363   0.17447   0.19761
 Alpha virt. eigenvalues --    0.19910   0.21316   0.25475   0.26436   0.29052

 Mulliken charges:
               1
     1  C    0.154242
     2  O   -0.344527
     3  C   -0.038518
     4  C   -0.130670
     5  H    0.102443
     6  H    0.081006
     7  H    0.104196
     8  H    0.071829
 Sum of Mulliken charges =   0.00000

 Dipole moment (field-independent basis, Debye):
    X=              3.4281    Y=              0.7944    Z=              0.0049  Tot=              3.5189
 Quadrupole moment (field-independent basis, Debye-Ang):
   XX=            -27.3071   YY=            -21.7873   ZZ=            -25.2695
   XY=             -1.0911   XZ=             -0.0622   YZ=              0.0681

 Normal termination of Gaussian 09 at Wed Aug 26 18:33:29 2020.
