 Gaussian 09, Revision D.01,
 Gaussian 09:  ES64L-G09RevD.01 24-Apr-2013

 --------------------
 #p B2PLYPD3/Def2QZVP
 --------------------

 --------
 acrolein
 --------
 Symbolic Z-matrix:
 Charge =  0 Multiplicity = 1

                         Standard orientation:
 ---------------------------------------------------------------------
 Center     Atomic      Atomic             Coordinates (Angstroms)
 Number     Number       Type             X           Y           Z
 ---------------------------------------------------------------------
      1          6           0        0.676835    0.366105    0.022369
      2          8           0        1.789689   -0.134498   -0.022158
      3          6           0       -0.571308   -0.439546    0.042856
      4          6           0       -1.761007    0.148951   -0.029194
      5          1           0       -0.415650   -1.513089   -0.033709
      6          1           0       -1.779684    1.155216   -0.008229
      7          1           0       -2.695782   -0.448519   -0.010825
      8          1           0        0.506490    1.429321    0.013840
 ---------------------------------------------------------------------

 SCF Done:  E(RB2PLYPD3) =  -191.609881065     A.U. after   13 cycles
 E2(B2PLYPD3) =    -0.2473310735D+00 E(B2PLYPD3) =    -0.19185721213828D+03

 The electronic state is 1-A.
 Alpha  occ. eigenvalues --  -19.72986 -10.71641 -10.64793 -10.64293  -1.18983
 Alpha  occ. eigenvalues --   -0.93194  -0.75613  -0.67735  -0.57098  -0.56038
 Alpha  occ. eigenvalues --   -0.50563  -0.47224  -0.46396  -0.34725  -0.33935
 Alpha virt. eigenvalues --   -0.01764   0.05808   0.07235   0.07883   0.09891
 Alpha virt. eigenvalues --    0.12631   0.13694   0.15290   0.17532   0.19852
 Alpha virt. eigenvalues --    0.20193   0.21664   0.25246   0.26663   0.28895

 Mulliken charges:
               1
     1  C    0.152481
     2  O   -0.354472
     3  C   -0.036032
     4  C   -0.137989
     5  H    0.105477
     6  H    0.087254
     7  H    0.104230
     8  H    0.079050
 Sum of Mulliken charges =   0.00000

 Dipole moment (field-independent basis, Debye):
    X=             -3.4333    Y=              0.8654    Z=              0.0332  Tot=              3.5408
 Quadrupole moment (field-independent basis, Debye-Ang):
   XX=            -27.5993   YY=            -21.6967   ZZ=            -25.1716
   XY=              1.0642   XZ=              0.1624   YZ=              0.0778

 Normal termination of Gaussian 09 at Wed Aug 26 21:20:15 2020.
