 Gaussian 09, Revision D.01,
 Gaussian 09:  ES64L-G09RevD.01 24-Apr-2013

 --------------------
 #p B2PLYPD3/Def2QZVP
 --------------------

 --------
 acrolein
 --------
 Symbolic Z-matrix:
 Charge =  0 Multiplicity = 1

                         Standard orientation:
 ---------------------------------------------------------------------
 Center     Atomic      Atomic             Coordinates (Angstroms)
 Number     Number       Type             X           Y           Z
 ---------------------------------------------------------------------
      1          6           0       -0.678538    0.363013    0.012332
      2          8           0       -1.771205   -0.139551   -0.033291
      3          6           0        0.538013   -0.445164    0.020981
      4          6           0        1.751742    0.122883   -0.013059
      5          1           0        0.456695   -1.426152    0.096378
      6          1           0        1.863986    1.198631   -0.138385
      7          1           0        2.718795   -0.413496   -0.011584
      8          1           0       -0.537136    1.513032    0.198393
 ---------------------------------------------------------------------

 SCF Done:  E(RB2PLYPD3) =  -191.605187797     A.U. after   13 cycles
 E2(B2PLYPD3) =    -0.2471925822D+00 E(B2PLYPD3) =    -0.19185238037950D+03

 The electronic state is 1-A.
 Alpha  occ. eigenvalues --  -19.72927 -10.72112 -10.65733 -10.63489  -1.20152
 Alpha  occ. eigenvalues --   -0.92973  -0.75107  -0.67465  -0.56614  -0.56429
 Alpha  occ. eigenvalues --   -0.50755  -0.47198  -0.46879  -0.34529  -0.33775
 Alpha virt. eigenvalues --   -0.01756   0.05727   0.07194   0.08082   0.09711
 Alpha virt. eigenvalues --    0.12380   0.13971   0.15369   0.18021   0.19304
 Alpha virt. eigenvalues --    0.20231   0.21175   0.24999   0.26552   0.28920

 Mulliken charges:
               1
     1  C    0.155704
     2  O   -0.339858
     3  C   -0.051665
     4  C   -0.122247
     5  H    0.118584
     6  H    0.078212
     7  H    0.094413
     8  H    0.066858
 Sum of Mulliken charges =   0.00000

 Dipole moment (field-independent basis, Debye):
    X=              3.4036    Y=              0.7411    Z=              0.1109  Tot=              3.4851
 Quadrupole moment (field-independent basis, Debye-Ang):
   XX=            -27.0577   YY=            -21.9634   ZZ=            -25.1636
   XY=             -0.9975   XZ=             -0.3615   YZ=             -0.2002

 Normal termination of Gaussian 09 at Wed Aug 26 09:25:09 2020.
