 Gaussian 09, Revision D.01,
 Gaussian 09:  ES64L-G09RevD.01 24-Apr-2013

 --------------------
 #p B2PLYPD3/Def2QZVP
 --------------------

 --------
 acrolein
 --------
 Symbolic Z-matrix:
 Charge =  0 Multiplicity = 1

                         Standard orientation:
 ---------------------------------------------------------------------
 Center     Atomic      Atomic             Coordinates (Angstroms)
 Number     Number       Type             X           Y           Z
 ---------------------------------------------------------------------
      1          6           0        0.677793    0.361435   -0.002478
      2          8           0        1.785600   -0.131587   -0.003558
      3          6           0       -0.553087   -0.436923   -0.004728
      4          6           0       -1.761428    0.124456   -0.016285
      5          1           0       -0.444328   -1.486345    0.048510
      6          1           0       -1.846517    1.192119   -0.005097
      7          1           0       -2.662075   -0.413152    0.055957
      8          1           0        0.488453    1.466261    0.070037
 ---------------------------------------------------------------------

 SCF Done:  E(RB2PLYPD3) =  -191.615187737     A.U. after   12 cycles
 E2(B2PLYPD3) =    -0.2470687374D+00 E(B2PLYPD3) =    -0.19186225647425D+03

 The electronic state is 1-A.
 Alpha  occ. eigenvalues --  -19.73022 -10.71882 -10.64940 -10.63988  -1.19554
 Alpha  occ. eigenvalues --   -0.93118  -0.75856  -0.67188  -0.56960  -0.56392
 Alpha  occ. eigenvalues --   -0.50971  -0.47131  -0.46674  -0.34645  -0.33983
 Alpha virt. eigenvalues --   -0.01864   0.05804   0.07294   0.08221   0.09792
 Alpha virt. eigenvalues --    0.12629   0.14047   0.15391   0.17602   0.19730
 Alpha virt. eigenvalues --    0.19972   0.21815   0.25470   0.26520   0.28726

 Mulliken charges:
               1
     1  C    0.156401
     2  O   -0.347256
     3  C   -0.037174
     4  C   -0.129750
     5  H    0.106627
     6  H    0.078070
     7  H    0.102499
     8  H    0.070584
 Sum of Mulliken charges =   0.00000

 Dipole moment (field-independent basis, Debye):
    X=             -3.4679    Y=              0.7807    Z=              0.1177  Tot=              3.5566
 Quadrupole moment (field-independent basis, Debye-Ang):
   XX=            -27.2743   YY=            -21.8645   ZZ=            -25.1431
   XY=              0.9592   XZ=             -0.1464   YZ=             -0.0742

 Normal termination of Gaussian 09 at Wed Aug 26 16:21:08 2020.
