 Gaussian 09, Revision D.01,
 Gaussian 09:  ES64L-G09RevD.01 24-Apr-2013

 --------------------
 #p B2PLYPD3/Def2QZVP
 --------------------

 --------
 acrolein
 --------
 Symbolic Z-matrix:
 Charge =  0 Multiplicity = 1

                         Standard orientation:
 ---------------------------------------------------------------------
 Center     Atomic      Atomic             Coordinates (Angstroms)
 Number     Number       Type             X           Y           Z
 ---------------------------------------------------------------------
      1          6           0        0.644997   -0.326423   -0.073870
      2          8           0        1.800355    0.096186    0.070563
      3          6           0       -0.615419    0.470592   -0.069792
      4          6           0       -1.719760   -0.178812    0.014507
      5          1           0       -0.438112    1.574857   -0.023433
      6          1           0       -1.773050   -1.195483    0.158926
      7          1           0       -2.552209    0.388749    0.197955
      8          1           0        0.501617   -1.329756   -0.123025
 ---------------------------------------------------------------------

 SCF Done:  E(RB2PLYPD3) =  -191.597018954     A.U. after   13 cycles
 E2(B2PLYPD3) =    -0.2469598189D+00 E(B2PLYPD3) =    -0.19184397877311D+03

 The electronic state is 1-A.
 Alpha  occ. eigenvalues --  -19.72692 -10.70847 -10.64474 -10.63542  -1.17655
 Alpha  occ. eigenvalues --   -0.94777  -0.76393  -0.68152  -0.57759  -0.56738
 Alpha  occ. eigenvalues --   -0.50589  -0.47001  -0.45766  -0.35619  -0.33691
 Alpha virt. eigenvalues --   -0.01450   0.05900   0.07177   0.07753   0.09793
 Alpha virt. eigenvalues --    0.13230   0.14009   0.15162   0.17199   0.19530
 Alpha virt. eigenvalues --    0.20261   0.22360   0.24773   0.26991   0.27991

 Mulliken charges:
               1
     1  C    0.152776
     2  O   -0.369508
     3  C   -0.030397
     4  C   -0.117120
     5  H    0.101337
     6  H    0.085754
     7  H    0.094550
     8  H    0.082607
 Sum of Mulliken charges =   0.00000

 Dipole moment (field-independent basis, Debye):
    X=             -3.5848    Y=             -0.7472    Z=             -0.0132  Tot=              3.6619
 Quadrupole moment (field-independent basis, Debye-Ang):
   XX=            -28.2241   YY=            -21.4586   ZZ=            -24.8607
   XY=             -0.6873   XZ=             -1.0583   YZ=             -0.0446

 Normal termination of Gaussian 09 at Wed Aug 26 12:19:45 2020.
