 Gaussian 09, Revision D.01,
 Gaussian 09:  ES64L-G09RevD.01 24-Apr-2013

 --------------------
 #p B2PLYPD3/Def2QZVP
 --------------------

 --------
 acrolein
 --------
 Symbolic Z-matrix:
 Charge =  0 Multiplicity = 1

                         Standard orientation:
 ---------------------------------------------------------------------
 Center     Atomic      Atomic             Coordinates (Angstroms)
 Number     Number       Type             X           Y           Z
 ---------------------------------------------------------------------
      1          6           0        0.669230    0.339246   -0.017078
      2          8           0        1.797689   -0.109422    0.010837
      3          6           0       -0.572382   -0.463240   -0.023914
      4          6           0       -1.748723    0.168255   -0.007956
      5          1           0       -0.467412   -1.572556    0.033691
      6          1           0       -1.824257    1.254817   -0.012535
      7          1           0       -2.726957   -0.437021    0.110495
      8          1           0        0.548362    1.364566    0.075344
 ---------------------------------------------------------------------

 SCF Done:  E(RB2PLYPD3) =  -191.608274669     A.U. after   12 cycles
 E2(B2PLYPD3) =    -0.2475291918D+00 E(B2PLYPD3) =    -0.19185580386037D+03

 The electronic state is 1-A.
 Alpha  occ. eigenvalues --  -19.72574 -10.70894 -10.66358 -10.64956  -1.19131
 Alpha  occ. eigenvalues --   -0.92806  -0.75040  -0.67500  -0.56901  -0.55483
 Alpha  occ. eigenvalues --   -0.50178  -0.46489  -0.46387  -0.34694  -0.33799
 Alpha virt. eigenvalues --   -0.01710   0.05560   0.06928   0.07982   0.09624
 Alpha virt. eigenvalues --    0.12487   0.14046   0.15286   0.17535   0.19439
 Alpha virt. eigenvalues --    0.20049   0.21270   0.25107   0.26798   0.28784

 Mulliken charges:
               1
     1  C    0.155117
     2  O   -0.353712
     3  C   -0.040607
     4  C   -0.131398
     5  H    0.104985
     6  H    0.090038
     7  H    0.096044
     8  H    0.079534
 Sum of Mulliken charges =   0.00000

 Dipole moment (field-independent basis, Debye):
    X=             -3.5037    Y=              0.7975    Z=              0.0981  Tot=              3.5947
 Quadrupole moment (field-independent basis, Debye-Ang):
   XX=            -27.8019   YY=            -21.5398   ZZ=            -25.2824
   XY=              0.9139   XZ=             -0.3099   YZ=             -0.1105

 Normal termination of Gaussian 09 at Wed Aug 26 09:13:55 2020.
