 Gaussian 09, Revision D.01,
 Gaussian 09:  ES64L-G09RevD.01 24-Apr-2013

 --------------------
 #p B2PLYPD3/Def2QZVP
 --------------------

 --------
 acrolein
 --------
 Symbolic Z-matrix:
 Charge =  0 Multiplicity = 1

                         Standard orientation:
 ---------------------------------------------------------------------
 Center     Atomic      Atomic             Coordinates (Angstroms)
 Number     Number       Type             X           Y           Z
 ---------------------------------------------------------------------
      1          6           0       -0.683752    0.353192    0.034991
      2          8           0       -1.784739   -0.140827   -0.035929
      3          6           0        0.552386   -0.436982    0.028416
      4          6           0        1.767542    0.132660   -0.038517
      5          1           0        0.507544   -1.460219    0.034126
      6          1           0        1.845380    1.210649   -0.112536
      7          1           0        2.625734   -0.462079    0.078672
      8          1           0       -0.517800    1.545050    0.137833
 ---------------------------------------------------------------------

 SCF Done:  E(RB2PLYPD3) =  -191.606799180     A.U. after   12 cycles
 E2(B2PLYPD3) =    -0.2478612356D+00 E(B2PLYPD3) =    -0.19185466041602D+03

 The electronic state is 1-A.
 Alpha  occ. eigenvalues --  -19.73200 -10.72674 -10.65196 -10.63891  -1.19913
 Alpha  occ. eigenvalues --   -0.93023  -0.75428  -0.66610  -0.56981  -0.55871
 Alpha  occ. eigenvalues --   -0.50551  -0.47688  -0.46949  -0.34499  -0.33795
 Alpha virt. eigenvalues --   -0.02015   0.05825   0.06990   0.08218   0.09813
 Alpha virt. eigenvalues --    0.12462   0.13635   0.15462   0.17543   0.19309
 Alpha virt. eigenvalues --    0.20059   0.21784   0.25251   0.26308   0.28759

 Mulliken charges:
               1
     1  C    0.158691
     2  O   -0.337789
     3  C   -0.040392
     4  C   -0.127351
     5  H    0.106449
     6  H    0.084040
     7  H    0.103908
     8  H    0.052445
 Sum of Mulliken charges =   0.00000

 Dipole moment (field-independent basis, Debye):
    X=              3.4277    Y=              0.6692    Z=              0.1577  Tot=              3.4960
 Quadrupole moment (field-independent basis, Debye-Ang):
   XX=            -27.3380   YY=            -21.8902   ZZ=            -25.2379
   XY=             -1.1357   XZ=             -0.1259   YZ=             -0.1690

 Normal termination of Gaussian 09 at Wed Aug 26 21:02:41 2020.
