 Gaussian 09, Revision D.01,
 Gaussian 09:  ES64L-G09RevD.01 24-Apr-2013

 --------------------
 #p B2PLYPD3/Def2QZVP
 --------------------

 --------
 acrolein
 --------
 Symbolic Z-matrix:
 Charge =  0 Multiplicity = 1

                         Standard orientation:
 ---------------------------------------------------------------------
 Center     Atomic      Atomic             Coordinates (Angstroms)
 Number     Number       Type             X           Y           Z
 ---------------------------------------------------------------------
      1          6           0        0.676579    0.353793   -0.020505
      2          8           0        1.786476   -0.122690    0.023525
      3          6           0       -0.571364   -0.458783   -0.020451
      4          6           0       -1.752505    0.145993    0.007030
      5          1           0       -0.471056   -1.542981   -0.007357
      6          1           0       -1.857372    1.224011    0.096622
      7          1           0       -2.632054   -0.390548    0.010156
      8          1           0        0.552413    1.445021   -0.084073
 ---------------------------------------------------------------------

 SCF Done:  E(RB2PLYPD3) =  -191.615150969     A.U. after   12 cycles
 E2(B2PLYPD3) =    -0.2465793042D+00 E(B2PLYPD3) =    -0.19186173027364D+03

 The electronic state is 1-A.
 Alpha  occ. eigenvalues --  -19.72762 -10.71600 -10.64690 -10.64491  -1.19611
 Alpha  occ. eigenvalues --   -0.92914  -0.75420  -0.67029  -0.56791  -0.56617
 Alpha  occ. eigenvalues --   -0.50736  -0.47075  -0.46681  -0.34716  -0.33759
 Alpha virt. eigenvalues --   -0.01443   0.05852   0.07235   0.08015   0.09701
 Alpha virt. eigenvalues --    0.12661   0.14220   0.15411   0.17370   0.19638
 Alpha virt. eigenvalues --    0.20136   0.21876   0.25370   0.26361   0.28626

 Mulliken charges:
               1
     1  C    0.154904
     2  O   -0.345510
     3  C   -0.048367
     4  C   -0.127033
     5  H    0.105401
     6  H    0.082209
     7  H    0.100819
     8  H    0.077576
 Sum of Mulliken charges =   0.00000

 Dipole moment (field-independent basis, Debye):
    X=             -3.4276    Y=              0.7821    Z=             -0.0190  Tot=              3.5158
 Quadrupole moment (field-independent basis, Debye-Ang):
   XX=            -27.4551   YY=            -21.6172   ZZ=            -25.1645
   XY=              0.9521   XZ=             -0.3039   YZ=              0.0780

 Normal termination of Gaussian 09 at Wed Aug 26 14:31:30 2020.
