 Gaussian 09, Revision D.01,
 Gaussian 09:  ES64L-G09RevD.01 24-Apr-2013

 --------------------
 #p B2PLYPD3/Def2QZVP
 --------------------

 --------
 acrolein
 --------
 Symbolic Z-matrix:
 Charge =  0 Multiplicity = 1

                         Standard orientation:
 ---------------------------------------------------------------------
 Center     Atomic      Atomic             Coordinates (Angstroms)
 Number     Number       Type             X           Y           Z
 ---------------------------------------------------------------------
      1          6           0        0.628449    0.319762    0.050420
      2          8           0        1.796264   -0.098670   -0.045427
      3          6           0       -0.604224   -0.471264    0.091593
      4          6           0       -1.726774    0.153718   -0.063116
      5          1           0       -0.448342   -1.479652   -0.071767
      6          1           0       -1.789749    1.283242    0.045757
      7          1           0       -2.514049   -0.369201   -0.077354
      8          1           0        0.597316    1.341679   -0.006602
 ---------------------------------------------------------------------

 SCF Done:  E(RB2PLYPD3) =  -191.582127829     A.U. after   13 cycles
 E2(B2PLYPD3) =    -0.2471871679D+00 E(B2PLYPD3) =    -0.19182931499713D+03

 The electronic state is 1-A.
 Alpha  occ. eigenvalues --  -19.72214 -10.70558 -10.64254 -10.63739  -1.17234
 Alpha  occ. eigenvalues --   -0.95050  -0.76934  -0.68503  -0.58615  -0.56493
 Alpha  occ. eigenvalues --   -0.49996  -0.47717  -0.45579  -0.35532  -0.33453
 Alpha virt. eigenvalues --   -0.01779   0.05831   0.07333   0.07681   0.09782
 Alpha virt. eigenvalues --    0.12772   0.13603   0.15260   0.17748   0.19662
 Alpha virt. eigenvalues --    0.19867   0.22511   0.24191   0.26898   0.28910

 Mulliken charges:
               1
     1  C    0.152643
     2  O   -0.373407
     3  C   -0.040871
     4  C   -0.114908
     5  H    0.109890
     6  H    0.086222
     7  H    0.105331
     8  H    0.075099
 Sum of Mulliken charges =   0.00000

 Dipole moment (field-independent basis, Debye):
    X=             -3.7509    Y=              0.7208    Z=              0.0580  Tot=              3.8199
 Quadrupole moment (field-independent basis, Debye-Ang):
   XX=            -27.9485   YY=            -21.4988   ZZ=            -24.8535
   XY=              0.9408   XZ=              0.3822   YZ=              0.2449

 Normal termination of Gaussian 09 at Wed Aug 26 13:52:42 2020.
