 Gaussian 09, Revision D.01,
 Gaussian 09:  ES64L-G09RevD.01 24-Apr-2013

 --------------------
 #p B2PLYPD3/Def2QZVP
 --------------------

 --------
 acrolein
 --------
 Symbolic Z-matrix:
 Charge =  0 Multiplicity = 1

                         Standard orientation:
 ---------------------------------------------------------------------
 Center     Atomic      Atomic             Coordinates (Angstroms)
 Number     Number       Type             X           Y           Z
 ---------------------------------------------------------------------
      1          6           0       -0.669847    0.341781    0.018946
      2          8           0       -1.794307   -0.106859   -0.020518
      3          6           0        0.557896   -0.466245    0.024129
      4          6           0        1.766931    0.152465   -0.026227
      5          1           0        0.381539   -1.574430    0.064857
      6          1           0        1.870001    1.277070    0.090989
      7          1           0        2.715664   -0.450936   -0.081745
      8          1           0       -0.542624    1.435163   -0.011042
 ---------------------------------------------------------------------

 SCF Done:  E(RB2PLYPD3) =  -191.609218888     A.U. after   13 cycles
 E2(B2PLYPD3) =    -0.2485233477D+00 E(B2PLYPD3) =    -0.19185774223544D+03

 The electronic state is 1-A.
 Alpha  occ. eigenvalues --  -19.72623 -10.71368 -10.67087 -10.65448  -1.19373
 Alpha  occ. eigenvalues --   -0.92175  -0.74898  -0.66372  -0.56055  -0.55597
 Alpha  occ. eigenvalues --   -0.50086  -0.46884  -0.46256  -0.34298  -0.33680
 Alpha virt. eigenvalues --   -0.02079   0.05495   0.06891   0.08026   0.09646
 Alpha virt. eigenvalues --    0.12228   0.13834   0.15326   0.17304   0.19424
 Alpha virt. eigenvalues --    0.20045   0.21216   0.24909   0.26570   0.28723

 Mulliken charges:
               1
     1  C    0.161623
     2  O   -0.351048
     3  C   -0.044994
     4  C   -0.130404
     5  H    0.105935
     6  H    0.091186
     7  H    0.102210
     8  H    0.065491
 Sum of Mulliken charges =   0.00000

 Dipole moment (field-independent basis, Debye):
    X=              3.5237    Y=              0.7166    Z=              0.1273  Tot=              3.5981
 Quadrupole moment (field-independent basis, Debye-Ang):
   XX=            -27.5807   YY=            -21.6487   ZZ=            -25.4472
   XY=             -0.7647   XZ=             -0.1182   YZ=              0.0781

 Normal termination of Gaussian 09 at Wed Aug 26 09:09:55 2020.
