 Gaussian 09, Revision D.01,
 Gaussian 09:  ES64L-G09RevD.01 24-Apr-2013

 --------------------
 #p B2PLYPD3/Def2QZVP
 --------------------

 --------
 acrolein
 --------
 Symbolic Z-matrix:
 Charge =  0 Multiplicity = 1

                         Standard orientation:
 ---------------------------------------------------------------------
 Center     Atomic      Atomic             Coordinates (Angstroms)
 Number     Number       Type             X           Y           Z
 ---------------------------------------------------------------------
      1          6           0        0.655153    0.319815   -0.001301
      2          8           0        1.788521   -0.092452    0.017048
      3          6           0       -0.556348   -0.448661   -0.043472
      4          6           0       -1.754372    0.148479   -0.000030
      5          1           0       -0.401437   -1.571350    0.018186
      6          1           0       -1.834488    1.207992    0.008432
      7          1           0       -2.661689   -0.377150    0.130881
      8          1           0        0.522853    1.362333   -0.025060
 ---------------------------------------------------------------------

 SCF Done:  E(RB2PLYPD3) =  -191.610776022     A.U. after   12 cycles
 E2(B2PLYPD3) =    -0.2466838142D+00 E(B2PLYPD3) =    -0.19185745983600D+03

 The electronic state is 1-A.
 Alpha  occ. eigenvalues --  -19.72383 -10.70380 -10.65532 -10.64902  -1.19536
 Alpha  occ. eigenvalues --   -0.93485  -0.76640  -0.67247  -0.57307  -0.56566
 Alpha  occ. eigenvalues --   -0.50658  -0.46915  -0.46713  -0.34720  -0.33703
 Alpha virt. eigenvalues --   -0.02170   0.05783   0.07127   0.08640   0.09706
 Alpha virt. eigenvalues --    0.12774   0.14234   0.15291   0.17283   0.19830
 Alpha virt. eigenvalues --    0.19984   0.21877   0.25266   0.26660   0.28719

 Mulliken charges:
               1
     1  C    0.155347
     2  O   -0.353463
     3  C   -0.024773
     4  C   -0.127176
     5  H    0.096002
     6  H    0.086547
     7  H    0.104848
     8  H    0.062668
 Sum of Mulliken charges =   0.00000

 Dipole moment (field-independent basis, Debye):
    X=             -3.6493    Y=              0.7098    Z=              0.0896  Tot=              3.7187
 Quadrupole moment (field-independent basis, Debye-Ang):
   XX=            -27.2782   YY=            -21.8563   ZZ=            -25.0801
   XY=              0.6404   XZ=             -0.4526   YZ=             -0.1135

 Normal termination of Gaussian 09 at Wed Aug 26 09:12:27 2020.
