 Gaussian 09, Revision D.01,
 Gaussian 09:  ES64L-G09RevD.01 24-Apr-2013

 --------------------
 #p B2PLYPD3/Def2QZVP
 --------------------

 --------
 acrolein
 --------
 Symbolic Z-matrix:
 Charge =  0 Multiplicity = 1

                         Standard orientation:
 ---------------------------------------------------------------------
 Center     Atomic      Atomic             Coordinates (Angstroms)
 Number     Number       Type             X           Y           Z
 ---------------------------------------------------------------------
      1          6           0       -0.683697    0.395195   -0.021284
      2          8           0       -1.754590   -0.164104    0.024930
      3          6           0        0.551986   -0.411726   -0.039895
      4          6           0        1.767144    0.132258    0.020699
      5          1           0        0.431190   -1.598184    0.056987
      6          1           0        1.732642    1.166635    0.156243
      7          1           0        2.624807   -0.457939   -0.067680
      8          1           0       -0.564522    1.507958   -0.102112
 ---------------------------------------------------------------------

 SCF Done:  E(RB2PLYPD3) =  -191.601175238     A.U. after   13 cycles
 E2(B2PLYPD3) =    -0.2478204930D+00 E(B2PLYPD3) =    -0.19184899573070D+03

 The electronic state is 1-A.
 Alpha  occ. eigenvalues --  -19.72958 -10.72015 -10.65005 -10.64279  -1.19863
 Alpha  occ. eigenvalues --   -0.92771  -0.75367  -0.65842  -0.57361  -0.56111
 Alpha  occ. eigenvalues --   -0.50957  -0.46962  -0.45232  -0.34468  -0.33876
 Alpha virt. eigenvalues --   -0.01674   0.05927   0.06607   0.07920   0.09929
 Alpha virt. eigenvalues --    0.12352   0.13694   0.15439   0.16900   0.19341
 Alpha virt. eigenvalues --    0.20234   0.22025   0.25617   0.26202   0.29362

 Mulliken charges:
               1
     1  C    0.154190
     2  O   -0.339663
     3  C   -0.044704
     4  C   -0.132995
     5  H    0.091595
     6  H    0.079005
     7  H    0.114976
     8  H    0.077596
 Sum of Mulliken charges =   0.00000

 Dipole moment (field-independent basis, Debye):
    X=              3.2383    Y=              0.9495    Z=              0.0155  Tot=              3.3747
 Quadrupole moment (field-independent basis, Debye-Ang):
   XX=            -27.5000   YY=            -21.6525   ZZ=            -25.2643
   XY=             -1.5290   XZ=              0.2245   YZ=              0.0596

 Normal termination of Gaussian 09 at Wed Aug 26 10:47:16 2020.
