 Gaussian 09, Revision D.01,
 Gaussian 09:  ES64L-G09RevD.01 24-Apr-2013

 --------------------
 #p B2PLYPD3/Def2QZVP
 --------------------

 --------
 acrolein
 --------
 Symbolic Z-matrix:
 Charge =  0 Multiplicity = 1

                         Standard orientation:
 ---------------------------------------------------------------------
 Center     Atomic      Atomic             Coordinates (Angstroms)
 Number     Number       Type             X           Y           Z
 ---------------------------------------------------------------------
      1          6           0        0.688915    0.366871   -0.036977
      2          8           0        1.778467   -0.133578    0.027770
      3          6           0       -0.540670   -0.455029   -0.010327
      4          6           0       -1.770837    0.123604    0.006179
      5          1           0       -0.438706   -1.508126   -0.038845
      6          1           0       -1.876798    1.269985    0.066912
      7          1           0       -2.702446   -0.423728    0.030895
      8          1           0        0.525762    1.517818   -0.034375
 ---------------------------------------------------------------------

 SCF Done:  E(RB2PLYPD3) =  -191.609715357     A.U. after   13 cycles
 E2(B2PLYPD3) =    -0.2480317683D+00 E(B2PLYPD3) =    -0.19185774712490D+03

 The electronic state is 1-A.
 Alpha  occ. eigenvalues --  -19.73009 -10.72212 -10.66401 -10.64610  -1.20346
 Alpha  occ. eigenvalues --   -0.91924  -0.74721  -0.66362  -0.56478  -0.55687
 Alpha  occ. eigenvalues --   -0.50644  -0.47175  -0.46372  -0.34186  -0.33838
 Alpha virt. eigenvalues --   -0.01817   0.05595   0.07178   0.07978   0.09654
 Alpha virt. eigenvalues --    0.12151   0.13934   0.15420   0.17630   0.19427
 Alpha virt. eigenvalues --    0.19913   0.21327   0.25308   0.26202   0.28876

 Mulliken charges:
               1
     1  C    0.164642
     2  O   -0.336798
     3  C   -0.055010
     4  C   -0.127784
     5  H    0.111247
     6  H    0.074530
     7  H    0.103466
     8  H    0.065706
 Sum of Mulliken charges =   0.00000

 Dipole moment (field-independent basis, Debye):
    X=             -3.3514    Y=              0.7334    Z=             -0.0664  Tot=              3.4313
 Quadrupole moment (field-independent basis, Debye-Ang):
   XX=            -27.2100   YY=            -21.8021   ZZ=            -25.4235
   XY=              1.0194   XZ=             -0.2908   YZ=              0.1100

 Normal termination of Gaussian 09 at Wed Aug 26 09:09:17 2020.
