 Gaussian 09, Revision D.01,
 Gaussian 09:  ES64L-G09RevD.01 24-Apr-2013

 --------------------
 #p B2PLYPD3/Def2QZVP
 --------------------

 --------
 acrolein
 --------
 Symbolic Z-matrix:
 Charge =  0 Multiplicity = 1

                         Standard orientation:
 ---------------------------------------------------------------------
 Center     Atomic      Atomic             Coordinates (Angstroms)
 Number     Number       Type             X           Y           Z
 ---------------------------------------------------------------------
      1          6           0       -0.648162    0.322643   -0.033405
      2          8           0       -1.803657   -0.098612    0.040665
      3          6           0        0.573931   -0.463825   -0.034490
      4          6           0        1.749834    0.164562    0.013222
      5          1           0        0.445892   -1.629562   -0.096209
      6          1           0        1.805354    1.231252    0.003028
      7          1           0        2.620100   -0.409501    0.167461
      8          1           0       -0.495708    1.456432   -0.071560
 ---------------------------------------------------------------------

 SCF Done:  E(RB2PLYPD3) =  -191.606479295     A.U. after   13 cycles
 E2(B2PLYPD3) =    -0.2490447030D+00 E(B2PLYPD3) =    -0.19185552399826D+03

 The electronic state is 1-A.
 Alpha  occ. eigenvalues --  -19.72754 -10.72011 -10.65653 -10.65478  -1.18114
 Alpha  occ. eigenvalues --   -0.93585  -0.75974  -0.65707  -0.56601  -0.56227
 Alpha  occ. eigenvalues --   -0.49850  -0.47108  -0.45908  -0.34823  -0.33659
 Alpha virt. eigenvalues --   -0.02266   0.05779   0.06435   0.08107   0.09681
 Alpha virt. eigenvalues --    0.12582   0.13925   0.15150   0.16766   0.19814
 Alpha virt. eigenvalues --    0.20075   0.21839   0.25072   0.26344   0.28731

 Mulliken charges:
               1
     1  C    0.155395
     2  O   -0.358154
     3  C   -0.023949
     4  C   -0.125101
     5  H    0.095951
     6  H    0.093049
     7  H    0.107044
     8  H    0.055764
 Sum of Mulliken charges =   0.00000

 Dipole moment (field-independent basis, Debye):
    X=              3.7198    Y=              0.6409    Z=             -0.0886  Tot=              3.7757
 Quadrupole moment (field-independent basis, Debye-Ang):
   XX=            -27.7814   YY=            -21.6672   ZZ=            -25.2984
   XY=             -0.7272   XZ=              0.5682   YZ=              0.0215

 Normal termination of Gaussian 09 at Wed Aug 26 08:38:00 2020.
