 Gaussian 09, Revision D.01,
 Gaussian 09:  ES64L-G09RevD.01 24-Apr-2013

 --------------------
 #p B2PLYPD3/Def2QZVP
 --------------------

 --------
 acrolein
 --------
 Symbolic Z-matrix:
 Charge =  0 Multiplicity = 1

                         Standard orientation:
 ---------------------------------------------------------------------
 Center     Atomic      Atomic             Coordinates (Angstroms)
 Number     Number       Type             X           Y           Z
 ---------------------------------------------------------------------
      1          6           0        0.676140    0.345101   -0.018234
      2          8           0        1.783451   -0.123196    0.021084
      3          6           0       -0.551705   -0.445950   -0.018557
      4          6           0       -1.752666    0.141844    0.008267
      5          1           0       -0.461998   -1.507517   -0.003726
      6          1           0       -1.826443    1.225480    0.093671
      7          1           0       -2.732682   -0.424107   -0.004228
      8          1           0        0.522897    1.445740   -0.083249
 ---------------------------------------------------------------------

 SCF Done:  E(RB2PLYPD3) =  -191.614832706     A.U. after   13 cycles
 E2(B2PLYPD3) =    -0.2470721469D+00 E(B2PLYPD3) =    -0.19186190485317D+03

 The electronic state is 1-A.
 Alpha  occ. eigenvalues --  -19.72781 -10.71494 -10.66109 -10.64211  -1.20012
 Alpha  occ. eigenvalues --   -0.92912  -0.75093  -0.67068  -0.56617  -0.56093
 Alpha  occ. eigenvalues --   -0.50515  -0.47099  -0.46644  -0.34618  -0.33848
 Alpha virt. eigenvalues --   -0.01768   0.05649   0.07168   0.08295   0.09705
 Alpha virt. eigenvalues --    0.12435   0.13999   0.15405   0.17663   0.19543
 Alpha virt. eigenvalues --    0.20100   0.21187   0.25444   0.26333   0.28867

 Mulliken charges:
               1
     1  C    0.153630
     2  O   -0.343706
     3  C   -0.038327
     4  C   -0.128630
     5  H    0.107012
     6  H    0.082823
     7  H    0.099400
     8  H    0.067797
 Sum of Mulliken charges =   0.00000

 Dipole moment (field-independent basis, Debye):
    X=             -3.4612    Y=              0.7384    Z=             -0.0214  Tot=              3.5392
 Quadrupole moment (field-independent basis, Debye-Ang):
   XX=            -27.2796   YY=            -21.8605   ZZ=            -25.2364
   XY=              0.9830   XZ=             -0.2432   YZ=              0.0832

 Normal termination of Gaussian 09 at Wed Aug 26 18:43:05 2020.
