 Gaussian 09, Revision D.01,
 Gaussian 09:  ES64L-G09RevD.01 24-Apr-2013

 --------------------
 #p B2PLYPD3/Def2QZVP
 --------------------

 --------
 acrolein
 --------
 Symbolic Z-matrix:
 Charge =  0 Multiplicity = 1

                         Standard orientation:
 ---------------------------------------------------------------------
 Center     Atomic      Atomic             Coordinates (Angstroms)
 Number     Number       Type             X           Y           Z
 ---------------------------------------------------------------------
      1          6           0       -0.682754    0.349694    0.017042
      2          8           0       -1.781068   -0.128278   -0.015432
      3          6           0        0.554937   -0.432523    0.012846
      4          6           0        1.762954    0.138654   -0.017960
      5          1           0        0.457029   -1.489411    0.010854
      6          1           0        1.807454    1.162440   -0.035718
      7          1           0        2.689567   -0.410601    0.030054
      8          1           0       -0.516329    1.428846    0.046689
 ---------------------------------------------------------------------

 SCF Done:  E(RB2PLYPD3) =  -191.614681994     A.U. after   12 cycles
 E2(B2PLYPD3) =    -0.2460549521D+00 E(B2PLYPD3) =    -0.19186073694634D+03

 The electronic state is 1-A.
 Alpha  occ. eigenvalues --  -19.72854 -10.71286 -10.64756 -10.63916  -1.20335
 Alpha  occ. eigenvalues --   -0.93132  -0.75925  -0.67641  -0.57117  -0.56665
 Alpha  occ. eigenvalues --   -0.51034  -0.47276  -0.47231  -0.34585  -0.33909
 Alpha virt. eigenvalues --   -0.01728   0.05873   0.07399   0.08458   0.09818
 Alpha virt. eigenvalues --    0.12718   0.14097   0.15443   0.17656   0.19848
 Alpha virt. eigenvalues --    0.20075   0.21712   0.25648   0.26404   0.28847

 Mulliken charges:
               1
     1  C    0.149705
     2  O   -0.341755
     3  C   -0.031364
     4  C   -0.137278
     5  H    0.103225
     6  H    0.083484
     7  H    0.103671
     8  H    0.070313
 Sum of Mulliken charges =   0.00000

 Dipole moment (field-independent basis, Debye):
    X=              3.4127    Y=              0.7841    Z=              0.0739  Tot=              3.5024
 Quadrupole moment (field-independent basis, Debye-Ang):
   XX=            -27.1509   YY=            -21.9016   ZZ=            -25.0756
   XY=             -1.0217   XZ=             -0.0478   YZ=             -0.0494

 Normal termination of Gaussian 09 at Wed Aug 26 08:35:21 2020.
