 Gaussian 09, Revision D.01,
 Gaussian 09:  ES64L-G09RevD.01 24-Apr-2013

 --------------------
 #p B2PLYPD3/Def2QZVP
 --------------------

 --------
 acrolein
 --------
 Symbolic Z-matrix:
 Charge =  0 Multiplicity = 1

                         Standard orientation:
 ---------------------------------------------------------------------
 Center     Atomic      Atomic             Coordinates (Angstroms)
 Number     Number       Type             X           Y           Z
 ---------------------------------------------------------------------
      1          6           0        0.649873    0.315161    0.044106
      2          8           0        1.803005   -0.092418   -0.029646
      3          6           0       -0.571388   -0.482131    0.034642
      4          6           0       -1.735250    0.156259   -0.025824
      5          1           0       -0.456194   -1.501008   -0.004698
      6          1           0       -1.871258    1.267566    0.032740
      7          1           0       -2.682519   -0.379961   -0.069100
      8          1           0        0.526518    1.417013   -0.039312
 ---------------------------------------------------------------------

 SCF Done:  E(RB2PLYPD3) =  -191.609910955     A.U. after   13 cycles
 E2(B2PLYPD3) =    -0.2477894590D+00 E(B2PLYPD3) =    -0.19185770041402D+03

 The electronic state is 1-A.
 Alpha  occ. eigenvalues --  -19.72516 -10.71423 -10.66260 -10.64280  -1.18418
 Alpha  occ. eigenvalues --   -0.93651  -0.75464  -0.67511  -0.56763  -0.56274
 Alpha  occ. eigenvalues --   -0.50331  -0.47046  -0.46252  -0.34964  -0.33504
 Alpha virt. eigenvalues --   -0.01985   0.05593   0.07270   0.07968   0.09594
 Alpha virt. eigenvalues --    0.12511   0.14111   0.15214   0.17698   0.19596
 Alpha virt. eigenvalues --    0.20050   0.21388   0.24905   0.26686   0.28738

 Mulliken charges:
               1
     1  C    0.154533
     2  O   -0.358985
     3  C   -0.039899
     4  C   -0.117265
     5  H    0.114037
     6  H    0.089533
     7  H    0.094337
     8  H    0.063709
 Sum of Mulliken charges =   0.00000

 Dipole moment (field-independent basis, Debye):
    X=             -3.7266    Y=              0.6303    Z=              0.0650  Tot=              3.7801
 Quadrupole moment (field-independent basis, Debye-Ang):
   XX=            -27.5272   YY=            -21.7325   ZZ=            -25.1805
   XY=              0.6018   XZ=              0.2433   YZ=              0.0685

 Normal termination of Gaussian 09 at Wed Aug 26 10:27:57 2020.
