 Gaussian 09, Revision D.01,
 Gaussian 09:  ES64L-G09RevD.01 24-Apr-2013

 --------------------
 #p B2PLYPD3/Def2QZVP
 --------------------

 --------
 acrolein
 --------
 Symbolic Z-matrix:
 Charge =  0 Multiplicity = 1

                         Standard orientation:
 ---------------------------------------------------------------------
 Center     Atomic      Atomic             Coordinates (Angstroms)
 Number     Number       Type             X           Y           Z
 ---------------------------------------------------------------------
      1          6           0        0.676633    0.333147   -0.097414
      2          8           0        1.763239   -0.122135    0.081250
      3          6           0       -0.572193   -0.452927   -0.041310
      4          6           0       -1.742314    0.157674    0.014834
      5          1           0       -0.541509   -1.488964   -0.106942
      6          1           0       -1.820357    1.225454    0.198212
      7          1           0       -2.514386   -0.412161    0.140010
      8          1           0        0.597585    1.425389   -0.137937
 ---------------------------------------------------------------------

 SCF Done:  E(RB2PLYPD3) =  -191.601299675     A.U. after   13 cycles
 E2(B2PLYPD3) =    -0.2452246014D+00 E(B2PLYPD3) =    -0.19184652427601D+03

 The electronic state is 1-A.
 Alpha  occ. eigenvalues --  -19.72572 -10.71072 -10.63698 -10.63531  -1.20630
 Alpha  occ. eigenvalues --   -0.93636  -0.75909  -0.67504  -0.57985  -0.56670
 Alpha  occ. eigenvalues --   -0.50749  -0.48085  -0.47191  -0.34838  -0.33582
 Alpha virt. eigenvalues --   -0.01249   0.06080   0.07406   0.08068   0.09782
 Alpha virt. eigenvalues --    0.13024   0.14261   0.15152   0.17855   0.19559
 Alpha virt. eigenvalues --    0.19954   0.22220   0.24776   0.26354   0.28218

 Mulliken charges:
               1
     1  C    0.153709
     2  O   -0.334944
     3  C   -0.044092
     4  C   -0.121817
     5  H    0.099400
     6  H    0.080560
     7  H    0.097791
     8  H    0.069393
 Sum of Mulliken charges =   0.00000

 Dipole moment (field-independent basis, Debye):
    X=             -3.2664    Y=              0.6945    Z=             -0.1403  Tot=              3.3423
 Quadrupole moment (field-independent basis, Debye-Ang):
   XX=            -27.5402   YY=            -21.5965   ZZ=            -24.8882
   XY=              1.1802   XZ=             -0.9809   YZ=              0.2734

 Normal termination of Gaussian 09 at Wed Aug 26 12:11:33 2020.
