 Gaussian 09, Revision D.01,
 Gaussian 09:  ES64L-G09RevD.01 24-Apr-2013

 --------------------
 #p B2PLYPD3/Def2QZVP
 --------------------

 --------
 acrolein
 --------
 Symbolic Z-matrix:
 Charge =  0 Multiplicity = 1

                         Standard orientation:
 ---------------------------------------------------------------------
 Center     Atomic      Atomic             Coordinates (Angstroms)
 Number     Number       Type             X           Y           Z
 ---------------------------------------------------------------------
      1          6           0        0.645149    0.329252    0.029777
      2          8           0        1.796355   -0.099009   -0.026260
      3          6           0       -0.558899   -0.459159   -0.008275
      4          6           0       -1.744677    0.147638   -0.030367
      5          1           0       -0.440703   -1.534901    0.130674
      6          1           0       -1.841089    1.237691   -0.002721
      7          1           0       -2.675028   -0.382674    0.032240
      8          1           0        0.536543    1.365573    0.103075
 ---------------------------------------------------------------------

 SCF Done:  E(RB2PLYPD3) =  -191.611323507     A.U. after   13 cycles
 E2(B2PLYPD3) =    -0.2475922412D+00 E(B2PLYPD3) =    -0.19185891574834D+03

 The electronic state is 1-A.
 Alpha  occ. eigenvalues --  -19.72356 -10.70676 -10.65867 -10.64597  -1.18136
 Alpha  occ. eigenvalues --   -0.93663  -0.76268  -0.67751  -0.57033  -0.56528
 Alpha  occ. eigenvalues --   -0.50218  -0.47133  -0.45866  -0.34746  -0.33804
 Alpha virt. eigenvalues --   -0.02226   0.05664   0.07045   0.08261   0.09631
 Alpha virt. eigenvalues --    0.12656   0.14207   0.15182   0.17589   0.19688
 Alpha virt. eigenvalues --    0.20057   0.21602   0.25148   0.26713   0.29110

 Mulliken charges:
               1
     1  C    0.149278
     2  O   -0.364375
     3  C   -0.028288
     4  C   -0.122827
     5  H    0.105672
     6  H    0.083734
     7  H    0.100270
     8  H    0.076536
 Sum of Mulliken charges =   0.00000

 Dipole moment (field-independent basis, Debye):
    X=             -3.7462    Y=              0.7492    Z=              0.2770  Tot=              3.8304
 Quadrupole moment (field-independent basis, Debye-Ang):
   XX=            -27.5458   YY=            -21.6911   ZZ=            -25.1165
   XY=              0.7661   XZ=             -0.0161   YZ=             -0.1748

 Normal termination of Gaussian 09 at Wed Aug 26 09:58:08 2020.
