 Gaussian 09, Revision D.01,
 Gaussian 09:  ES64L-G09RevD.01 24-Apr-2013

 --------------------
 #p B2PLYPD3/Def2QZVP
 --------------------

 --------
 acrolein
 --------
 Symbolic Z-matrix:
 Charge =  0 Multiplicity = 1

                         Standard orientation:
 ---------------------------------------------------------------------
 Center     Atomic      Atomic             Coordinates (Angstroms)
 Number     Number       Type             X           Y           Z
 ---------------------------------------------------------------------
      1          6           0       -0.657289    0.304232    0.086648
      2          8           0       -1.785717   -0.067504   -0.086848
      3          6           0        0.552820   -0.495697    0.009167
      4          6           0        1.754687    0.143341   -0.016587
      5          1           0        0.311253   -1.583050    0.220356
      6          1           0        1.990856    1.428666   -0.192333
      7          1           0        2.661605   -0.435520   -0.101690
      8          1           0       -0.579279    1.418677    0.293083
 ---------------------------------------------------------------------

 SCF Done:  E(RB2PLYPD3) =  -191.576537499     A.U. after   13 cycles
 E2(B2PLYPD3) =    -0.2496433827D+00 E(B2PLYPD3) =    -0.19182618088170D+03

 The electronic state is 1-A.
 Alpha  occ. eigenvalues --  -19.72392 -10.71116 -10.68477 -10.65954  -1.19929
 Alpha  occ. eigenvalues --   -0.92287  -0.74941  -0.65132  -0.56545  -0.54422
 Alpha  occ. eigenvalues --   -0.50482  -0.46674  -0.44682  -0.34658  -0.33103
 Alpha virt. eigenvalues --   -0.02123   0.04454   0.06542   0.07944   0.09393
 Alpha virt. eigenvalues --    0.11631   0.13673   0.14876   0.17599   0.18491
 Alpha virt. eigenvalues --    0.19886   0.21245   0.24071   0.26805   0.27665

 Mulliken charges:
               1
     1  C    0.154816
     2  O   -0.340570
     3  C   -0.044584
     4  C   -0.122422
     5  H    0.108727
     6  H    0.087466
     7  H    0.102807
     8  H    0.053760
 Sum of Mulliken charges =   0.00000

 Dipole moment (field-independent basis, Debye):
    X=              3.5343    Y=              0.4840    Z=              0.3385  Tot=              3.5833
 Quadrupole moment (field-independent basis, Debye-Ang):
   XX=            -27.4257   YY=            -21.7497   ZZ=            -25.5192
   XY=             -0.2591   XZ=             -0.9438   YZ=             -0.5143

 Normal termination of Gaussian 09 at Wed Aug 26 12:53:59 2020.
