 Gaussian 09, Revision D.01,
 Gaussian 09:  ES64L-G09RevD.01 24-Apr-2013

 --------------------
 #p B2PLYPD3/Def2QZVP
 --------------------

 --------
 acrolein
 --------
 Symbolic Z-matrix:
 Charge =  0 Multiplicity = 1

                         Standard orientation:
 ---------------------------------------------------------------------
 Center     Atomic      Atomic             Coordinates (Angstroms)
 Number     Number       Type             X           Y           Z
 ---------------------------------------------------------------------
      1          6           0        0.658207    0.318104    0.030818
      2          8           0        1.822275   -0.086350   -0.034488
      3          6           0       -0.574688   -0.506319    0.087871
      4          6           0       -1.744972    0.157196   -0.040982
      5          1           0       -0.530623   -1.511274   -0.143941
      6          1           0       -2.010341    1.353125   -0.034039
      7          1           0       -2.593961   -0.409364   -0.037398
      8          1           0        0.525447    1.444426    0.025040
 ---------------------------------------------------------------------

 SCF Done:  E(RB2PLYPD3) =  -191.588557647     A.U. after   13 cycles
 E2(B2PLYPD3) =    -0.2496875347D+00 E(B2PLYPD3) =    -0.19183824518135D+03

 The electronic state is 1-A.
 Alpha  occ. eigenvalues --  -19.72572 -10.72059 -10.66882 -10.65001  -1.17845
 Alpha  occ. eigenvalues --   -0.93121  -0.75354  -0.66777  -0.56591  -0.55470
 Alpha  occ. eigenvalues --   -0.49844  -0.46914  -0.45522  -0.34791  -0.33372
 Alpha virt. eigenvalues --   -0.02261   0.05271   0.07026   0.07287   0.09275
 Alpha virt. eigenvalues --    0.12154   0.13606   0.15239   0.17947   0.18878
 Alpha virt. eigenvalues --    0.19937   0.21635   0.24325   0.26655   0.28197

 Mulliken charges:
               1
     1  C    0.153454
     2  O   -0.357598
     3  C   -0.056706
     4  C   -0.108166
     5  H    0.115494
     6  H    0.087337
     7  H    0.095720
     8  H    0.070465
 Sum of Mulliken charges =   0.00000

 Dipole moment (field-independent basis, Debye):
    X=             -3.8396    Y=              0.6350    Z=             -0.0889  Tot=              3.8928
 Quadrupole moment (field-independent basis, Debye-Ang):
   XX=            -27.6481   YY=            -21.5887   ZZ=            -25.3682
   XY=              0.5328   XZ=              0.4424   YZ=              0.2488

 Normal termination of Gaussian 09 at Wed Aug 26 14:51:31 2020.
