 Gaussian 09, Revision D.01,
 Gaussian 09:  ES64L-G09RevD.01 24-Apr-2013

 --------------------
 #p B2PLYPD3/Def2QZVP
 --------------------

 --------
 acrolein
 --------
 Symbolic Z-matrix:
 Charge =  0 Multiplicity = 1

                         Standard orientation:
 ---------------------------------------------------------------------
 Center     Atomic      Atomic             Coordinates (Angstroms)
 Number     Number       Type             X           Y           Z
 ---------------------------------------------------------------------
      1          6           0       -0.659576    0.343650   -0.025232
      2          8           0       -1.793292   -0.128594    0.024753
      3          6           0        0.566884   -0.428837   -0.020305
      4          6           0        1.749202    0.137934    0.005796
      5          1           0        0.457613   -1.492186    0.009297
      6          1           0        1.751376    1.160918    0.144733
      7          1           0        2.713996   -0.398215   -0.016356
      8          1           0       -0.515711    1.441752   -0.097254
 ---------------------------------------------------------------------

 SCF Done:  E(RB2PLYPD3) =  -191.611237506     A.U. after   13 cycles
 E2(B2PLYPD3) =    -0.2475270073D+00 E(B2PLYPD3) =    -0.19185876451293D+03

 The electronic state is 1-A.
 Alpha  occ. eigenvalues --  -19.72884 -10.71750 -10.65012 -10.63897  -1.18458
 Alpha  occ. eigenvalues --   -0.94147  -0.75987  -0.67405  -0.56899  -0.56619
 Alpha  occ. eigenvalues --   -0.50541  -0.46991  -0.46284  -0.35016  -0.33997
 Alpha virt. eigenvalues --   -0.02082   0.05760   0.07158   0.08226   0.09817
 Alpha virt. eigenvalues --    0.12651   0.13956   0.15344   0.17383   0.19572
 Alpha virt. eigenvalues --    0.20451   0.21484   0.25416   0.26404   0.29143

 Mulliken charges:
               1
     1  C    0.149601
     2  O   -0.358372
     3  C   -0.023342
     4  C   -0.126799
     5  H    0.102483
     6  H    0.082444
     7  H    0.104767
     8  H    0.069217
 Sum of Mulliken charges =   0.00000

 Dipole moment (field-independent basis, Debye):
    X=              3.6242    Y=              0.7641    Z=             -0.0001  Tot=              3.7039
 Quadrupole moment (field-independent basis, Debye-Ang):
   XX=            -27.3651   YY=            -21.9599   ZZ=            -25.0620
   XY=             -1.1103   XZ=              0.3039   YZ=              0.1155

 Normal termination of Gaussian 09 at Wed Aug 26 08:34:58 2020.
