 Gaussian 09, Revision D.01,
 Gaussian 09:  ES64L-G09RevD.01 24-Apr-2013

 --------------------
 #p B2PLYPD3/Def2QZVP
 --------------------

 --------
 acrolein
 --------
 Symbolic Z-matrix:
 Charge =  0 Multiplicity = 1

                         Standard orientation:
 ---------------------------------------------------------------------
 Center     Atomic      Atomic             Coordinates (Angstroms)
 Number     Number       Type             X           Y           Z
 ---------------------------------------------------------------------
      1          6           0        0.668978    0.346263    0.008681
      2          8           0        1.790963   -0.109037   -0.018471
      3          6           0       -0.562062   -0.469729    0.007455
      4          6           0       -1.749154    0.141754   -0.006451
      5          1           0       -0.448190   -1.539307    0.059071
      6          1           0       -1.852157    1.256981   -0.065693
      7          1           0       -2.644397   -0.392512   -0.015006
      8          1           0        0.470473    1.437405    0.111288
 ---------------------------------------------------------------------

 SCF Done:  E(RB2PLYPD3) =  -191.614492031     A.U. after   12 cycles
 E2(B2PLYPD3) =    -0.2473261079D+00 E(B2PLYPD3) =    -0.19186181813918D+03

 The electronic state is 1-A.
 Alpha  occ. eigenvalues --  -19.72871 -10.71691 -10.65464 -10.64476  -1.19476
 Alpha  occ. eigenvalues --   -0.92937  -0.75472  -0.66869  -0.56825  -0.55953
 Alpha  occ. eigenvalues --   -0.50768  -0.47043  -0.46610  -0.34694  -0.33782
 Alpha virt. eigenvalues --   -0.01682   0.05733   0.07175   0.08001   0.09684
 Alpha virt. eigenvalues --    0.12632   0.14089   0.15303   0.17455   0.19520
 Alpha virt. eigenvalues --    0.20091   0.21668   0.25197   0.26713   0.28608

 Mulliken charges:
               1
     1  C    0.158845
     2  O   -0.347789
     3  C   -0.043898
     4  C   -0.127667
     5  H    0.107036
     6  H    0.080844
     7  H    0.102216
     8  H    0.070413
 Sum of Mulliken charges =   0.00000

 Dipole moment (field-independent basis, Debye):
    X=             -3.5066    Y=              0.6990    Z=              0.0748  Tot=              3.5764
 Quadrupole moment (field-independent basis, Debye-Ang):
   XX=            -27.4920   YY=            -21.7038   ZZ=            -25.2236
   XY=              0.7448   XZ=              0.2039   YZ=             -0.1138

 Normal termination of Gaussian 09 at Wed Aug 26 19:19:18 2020.
