 Gaussian 09, Revision D.01,
 Gaussian 09:  ES64L-G09RevD.01 24-Apr-2013

 --------------------
 #p B2PLYPD3/Def2QZVP
 --------------------

 --------
 acrolein
 --------
 Symbolic Z-matrix:
 Charge =  0 Multiplicity = 1

                         Standard orientation:
 ---------------------------------------------------------------------
 Center     Atomic      Atomic             Coordinates (Angstroms)
 Number     Number       Type             X           Y           Z
 ---------------------------------------------------------------------
      1          6           0        0.672683    0.333228   -0.024340
      2          8           0        1.803210   -0.104380    0.027068
      3          6           0       -0.570317   -0.481068   -0.050182
      4          6           0       -1.766940    0.163657    0.001060
      5          1           0       -0.435826   -1.548911    0.067695
      6          1           0       -1.831322    1.240472    0.081806
      7          1           0       -2.697564   -0.401446    0.097005
      8          1           0        0.526471    1.450030   -0.022276
 ---------------------------------------------------------------------

 SCF Done:  E(RB2PLYPD3) =  -191.612840743     A.U. after   12 cycles
 E2(B2PLYPD3) =    -0.2482441185D+00 E(B2PLYPD3) =    -0.19186108486147D+03

 The electronic state is 1-A.
 Alpha  occ. eigenvalues --  -19.72792 -10.71847 -10.66194 -10.65215  -1.19292
 Alpha  occ. eigenvalues --   -0.92370  -0.75075  -0.66755  -0.56156  -0.56108
 Alpha  occ. eigenvalues --   -0.50246  -0.47563  -0.46444  -0.34387  -0.33613
 Alpha virt. eigenvalues --   -0.02052   0.05703   0.07062   0.07874   0.09672
 Alpha virt. eigenvalues --    0.12525   0.13826   0.15336   0.17455   0.19742
 Alpha virt. eigenvalues --    0.19976   0.21394   0.24779   0.26445   0.28733

 Mulliken charges:
               1
     1  C    0.156559
     2  O   -0.348408
     3  C   -0.045348
     4  C   -0.126031
     5  H    0.109172
     6  H    0.090398
     7  H    0.100374
     8  H    0.063285
 Sum of Mulliken charges =   0.00000

 Dipole moment (field-independent basis, Debye):
    X=             -3.5374    Y=              0.6868    Z=              0.1256  Tot=              3.6057
 Quadrupole moment (field-independent basis, Debye-Ang):
   XX=            -27.5732   YY=            -21.7169   ZZ=            -25.3599
   XY=              0.7466   XZ=             -0.5555   YZ=             -0.0772

 Normal termination of Gaussian 09 at Wed Aug 26 09:43:28 2020.
