 Gaussian 09, Revision D.01,
 Gaussian 09:  ES64L-G09RevD.01 24-Apr-2013

 --------------------
 #p B2PLYPD3/Def2QZVP
 --------------------

 --------
 acrolein
 --------
 Symbolic Z-matrix:
 Charge =  0 Multiplicity = 1

                         Standard orientation:
 ---------------------------------------------------------------------
 Center     Atomic      Atomic             Coordinates (Angstroms)
 Number     Number       Type             X           Y           Z
 ---------------------------------------------------------------------
      1          6           0       -0.656311    0.341080   -0.017882
      2          8           0       -1.804554   -0.105371    0.022716
      3          6           0        0.592350   -0.482568   -0.032028
      4          6           0        1.737980    0.156250    0.004708
      5          1           0        0.453826   -1.552537   -0.031486
      6          1           0        1.822004    1.259603   -0.023045
      7          1           0        2.577766   -0.394739    0.146418
      8          1           0       -0.461274    1.442064   -0.002401
 ---------------------------------------------------------------------

 SCF Done:  E(RB2PLYPD3) =  -191.608997617     A.U. after   13 cycles
 E2(B2PLYPD3) =    -0.2479518936D+00 E(B2PLYPD3) =    -0.19185694951052D+03

 The electronic state is 1-A.
 Alpha  occ. eigenvalues --  -19.72933 -10.72080 -10.64724 -10.64461  -1.18133
 Alpha  occ. eigenvalues --   -0.93700  -0.75497  -0.66919  -0.57060  -0.55820
 Alpha  occ. eigenvalues --   -0.50503  -0.47474  -0.45931  -0.35074  -0.33688
 Alpha virt. eigenvalues --   -0.01576   0.05753   0.07117   0.07691   0.09731
 Alpha virt. eigenvalues --    0.12709   0.13920   0.15243   0.17233   0.19637
 Alpha virt. eigenvalues --    0.20012   0.22015   0.25116   0.26775   0.28443

 Mulliken charges:
               1
     1  C    0.158467
     2  O   -0.359346
     3  C   -0.040879
     4  C   -0.124787
     5  H    0.107087
     6  H    0.088382
     7  H    0.101072
     8  H    0.070003
 Sum of Mulliken charges =   0.00000

 Dipole moment (field-independent basis, Debye):
    X=              3.5938    Y=              0.6920    Z=              0.0080  Tot=              3.6598
 Quadrupole moment (field-independent basis, Debye-Ang):
   XX=            -27.9687   YY=            -21.5068   ZZ=            -25.1632
   XY=             -0.6969   XZ=              0.4143   YZ=             -0.0779

 Normal termination of Gaussian 09 at Wed Aug 26 08:57:16 2020.
