 Gaussian 09, Revision D.01,
 Gaussian 09:  ES64L-G09RevD.01 24-Apr-2013

 --------------------
 #p B2PLYPD3/Def2QZVP
 --------------------

 --------
 acrolein
 --------
 Symbolic Z-matrix:
 Charge =  0 Multiplicity = 1

                         Standard orientation:
 ---------------------------------------------------------------------
 Center     Atomic      Atomic             Coordinates (Angstroms)
 Number     Number       Type             X           Y           Z
 ---------------------------------------------------------------------
      1          6           0        0.685603    0.361454   -0.014481
      2          8           0        1.762305   -0.136003    0.028022
      3          6           0       -0.539714   -0.444053   -0.029501
      4          6           0       -1.751934    0.132515    0.006268
      5          1           0       -0.486944   -1.455166   -0.083597
      6          1           0       -1.792709    1.239942   -0.007006
      7          1           0       -2.710564   -0.422953    0.144310
      8          1           0        0.528040    1.426706   -0.051596
 ---------------------------------------------------------------------

 SCF Done:  E(RB2PLYPD3) =  -191.610223834     A.U. after   13 cycles
 E2(B2PLYPD3) =    -0.2459611589D+00 E(B2PLYPD3) =    -0.19185618499295D+03

 The electronic state is 1-A.
 Alpha  occ. eigenvalues --  -19.72680 -10.71018 -10.65841 -10.63369  -1.21036
 Alpha  occ. eigenvalues --   -0.92680  -0.74890  -0.68090  -0.57006  -0.56257
 Alpha  occ. eigenvalues --   -0.50836  -0.47731  -0.46661  -0.34381  -0.33821
 Alpha virt. eigenvalues --   -0.01413   0.05727   0.07454   0.08300   0.09726
 Alpha virt. eigenvalues --    0.12427   0.14075   0.15444   0.18123   0.19625
 Alpha virt. eigenvalues --    0.19720   0.21251   0.25637   0.26380   0.29060

 Mulliken charges:
               1
     1  C    0.149418
     2  O   -0.335496
     3  C   -0.045609
     4  C   -0.132870
     5  H    0.110999
     6  H    0.073290
     7  H    0.100356
     8  H    0.079911
 Sum of Mulliken charges =   0.00000

 Dipole moment (field-independent basis, Debye):
    X=             -3.2739    Y=              0.7984    Z=             -0.0481  Tot=              3.3702
 Quadrupole moment (field-independent basis, Debye-Ang):
   XX=            -27.2298   YY=            -21.8005   ZZ=            -25.1244
   XY=              1.2349   XZ=             -0.4533   YZ=             -0.0095

 Normal termination of Gaussian 09 at Wed Aug 26 08:51:42 2020.
