 Gaussian 09, Revision D.01,
 Gaussian 09:  ES64L-G09RevD.01 24-Apr-2013

 --------------------
 #p B2PLYPD3/Def2QZVP
 --------------------

 --------
 acrolein
 --------
 Symbolic Z-matrix:
 Charge =  0 Multiplicity = 1

                         Standard orientation:
 ---------------------------------------------------------------------
 Center     Atomic      Atomic             Coordinates (Angstroms)
 Number     Number       Type             X           Y           Z
 ---------------------------------------------------------------------
      1          6           0       -0.677957    0.343118    0.024783
      2          8           0       -1.790945   -0.110051   -0.021869
      3          6           0        0.569004   -0.466437    0.004171
      4          6           0        1.759798    0.156877   -0.022123
      5          1           0        0.427079   -1.526354    0.067934
      6          1           0        1.853147    1.220543   -0.016247
      7          1           0        2.677506   -0.413312    0.016178
      8          1           0       -0.535251    1.398184    0.066106
 ---------------------------------------------------------------------

 SCF Done:  E(RB2PLYPD3) =  -191.615661917     A.U. after   12 cycles
 E2(B2PLYPD3) =    -0.2464873292D+00 E(B2PLYPD3) =    -0.19186214924671D+03

 The electronic state is 1-A.
 Alpha  occ. eigenvalues --  -19.72671 -10.71028 -10.65422 -10.64546  -1.19906
 Alpha  occ. eigenvalues --   -0.92591  -0.75402  -0.67709  -0.56810  -0.56266
 Alpha  occ. eigenvalues --   -0.50774  -0.47470  -0.46762  -0.34493  -0.33693
 Alpha virt. eigenvalues --   -0.01597   0.05795   0.07349   0.08128   0.09710
 Alpha virt. eigenvalues --    0.12663   0.14060   0.15363   0.17648   0.19745
 Alpha virt. eigenvalues --    0.20016   0.21621   0.25270   0.26645   0.28646

 Mulliken charges:
               1
     1  C    0.155154
     2  O   -0.346846
     3  C   -0.045158
     4  C   -0.135307
     5  H    0.107774
     6  H    0.089524
     7  H    0.099615
     8  H    0.075245
 Sum of Mulliken charges =   0.00000

 Dipole moment (field-independent basis, Debye):
    X=              3.4286    Y=              0.7697    Z=              0.1633  Tot=              3.5178
 Quadrupole moment (field-independent basis, Debye-Ang):
   XX=            -27.4941   YY=            -21.6403   ZZ=            -25.1900
   XY=             -0.7776   XZ=             -0.0559   YZ=             -0.1048

 Normal termination of Gaussian 09 at Wed Aug 26 19:17:42 2020.
