 Gaussian 09, Revision D.01,
 Gaussian 09:  ES64L-G09RevD.01 24-Apr-2013

 --------------------
 #p B2PLYPD3/Def2QZVP
 --------------------

 --------
 acrolein
 --------
 Symbolic Z-matrix:
 Charge =  0 Multiplicity = 1

                         Standard orientation:
 ---------------------------------------------------------------------
 Center     Atomic      Atomic             Coordinates (Angstroms)
 Number     Number       Type             X           Y           Z
 ---------------------------------------------------------------------
      1          6           0        0.680432    0.361800    0.042979
      2          8           0        1.780286   -0.143895   -0.028855
      3          6           0       -0.555908   -0.435670    0.006381
      4          6           0       -1.754497    0.143977   -0.026263
      5          1           0       -0.506701   -1.473809    0.061748
      6          1           0       -1.753425    1.178115   -0.036051
      7          1           0       -2.758683   -0.417131    0.026739
      8          1           0        0.556362    1.443347    0.039825
 ---------------------------------------------------------------------

 SCF Done:  E(RB2PLYPD3) =  -191.608949085     A.U. after   12 cycles
 E2(B2PLYPD3) =    -0.2470469231D+00 E(B2PLYPD3) =    -0.19185599600786D+03

 The electronic state is 1-A.
 Alpha  occ. eigenvalues --  -19.72840 -10.71640 -10.65367 -10.63770  -1.19507
 Alpha  occ. eigenvalues --   -0.93145  -0.75062  -0.68015  -0.57245  -0.55826
 Alpha  occ. eigenvalues --   -0.50389  -0.47019  -0.46695  -0.34598  -0.34019
 Alpha virt. eigenvalues --   -0.01706   0.05700   0.07232   0.08056   0.09760
 Alpha virt. eigenvalues --    0.12423   0.14080   0.15376   0.17879   0.19822
 Alpha virt. eigenvalues --    0.20058   0.21111   0.25567   0.26139   0.29349

 Mulliken charges:
               1
     1  C    0.143966
     2  O   -0.346283
     3  C   -0.034654
     4  C   -0.133317
     5  H    0.107581
     6  H    0.081327
     7  H    0.099714
     8  H    0.081666
 Sum of Mulliken charges =   0.00000

 Dipole moment (field-independent basis, Debye):
    X=             -3.4045    Y=              0.8640    Z=              0.1796  Tot=              3.5170
 Quadrupole moment (field-independent basis, Debye-Ang):
   XX=            -27.3326   YY=            -21.7933   ZZ=            -25.1742
   XY=              1.3490   XZ=              0.0684   YZ=             -0.1229

 Normal termination of Gaussian 09 at Wed Aug 26 21:16:33 2020.
