 Gaussian 09, Revision D.01,
 Gaussian 09:  ES64L-G09RevD.01 24-Apr-2013

 --------------------
 #p B2PLYPD3/Def2QZVP
 --------------------

 --------
 acrolein
 --------
 Symbolic Z-matrix:
 Charge =  0 Multiplicity = 1

                         Standard orientation:
 ---------------------------------------------------------------------
 Center     Atomic      Atomic             Coordinates (Angstroms)
 Number     Number       Type             X           Y           Z
 ---------------------------------------------------------------------
      1          6           0        0.660197    0.340769    0.026364
      2          8           0        1.796619   -0.109875   -0.022787
      3          6           0       -0.567195   -0.467863    0.000696
      4          6           0       -1.745005    0.147422   -0.018821
      5          1           0       -0.477770   -1.529486    0.077249
      6          1           0       -1.835495    1.232939   -0.035033
      7          1           0       -2.623144   -0.391150    0.013590
      8          1           0        0.475482    1.444728    0.077058
 ---------------------------------------------------------------------

 SCF Done:  E(RB2PLYPD3) =  -191.614106860     A.U. after   12 cycles
 E2(B2PLYPD3) =    -0.2475472577D+00 E(B2PLYPD3) =    -0.19186165411753D+03

 The electronic state is 1-A.
 Alpha  occ. eigenvalues --  -19.72831 -10.71852 -10.65001 -10.64340  -1.18689
 Alpha  occ. eigenvalues --   -0.93449  -0.75817  -0.67085  -0.56946  -0.56247
 Alpha  occ. eigenvalues --   -0.50475  -0.47526  -0.46282  -0.34793  -0.33823
 Alpha virt. eigenvalues --   -0.01841   0.05788   0.07117   0.08012   0.09709
 Alpha virt. eigenvalues --    0.12740   0.14088   0.15240   0.17446   0.19780
 Alpha virt. eigenvalues --    0.20081   0.21768   0.25279   0.26579   0.28720

 Mulliken charges:
               1
     1  C    0.154132
     2  O   -0.354101
     3  C   -0.034870
     4  C   -0.126794
     5  H    0.105667
     6  H    0.084616
     7  H    0.101383
     8  H    0.069967
 Sum of Mulliken charges =   0.00000

 Dipole moment (field-independent basis, Debye):
    X=             -3.6106    Y=              0.7034    Z=              0.1612  Tot=              3.6820
 Quadrupole moment (field-independent basis, Debye-Ang):
   XX=            -27.5906   YY=            -21.6646   ZZ=            -25.1666
   XY=              0.7964   XZ=              0.0802   YZ=             -0.1332

 Normal termination of Gaussian 09 at Wed Aug 26 18:52:06 2020.
