 Gaussian 09, Revision D.01,
 Gaussian 09:  ES64L-G09RevD.01 24-Apr-2013

 --------------------
 #p B2PLYPD3/Def2QZVP
 --------------------

 --------
 acrolein
 --------
 Symbolic Z-matrix:
 Charge =  0 Multiplicity = 1

                         Standard orientation:
 ---------------------------------------------------------------------
 Center     Atomic      Atomic             Coordinates (Angstroms)
 Number     Number       Type             X           Y           Z
 ---------------------------------------------------------------------
      1          6           0       -0.676312    0.356337    0.024909
      2          8           0       -1.787920   -0.110512   -0.043709
      3          6           0        0.587705   -0.480682    0.024160
      4          6           0        1.786447    0.145435   -0.058278
      5          1           0        0.350039   -1.602862    0.126323
      6          1           0        1.852098    1.283197   -0.075376
      7          1           0        2.494947   -0.386421    0.102849
      8          1           0       -0.580764    1.463644    0.251138
 ---------------------------------------------------------------------

 SCF Done:  E(RB2PLYPD3) =  -191.572170080     A.U. after   13 cycles
 E2(B2PLYPD3) =    -0.2481320614D+00 E(B2PLYPD3) =    -0.19182030214094D+03

 The electronic state is 1-A.
 Alpha  occ. eigenvalues --  -19.72930 -10.71943 -10.65857 -10.64202  -1.19763
 Alpha  occ. eigenvalues --   -0.92493  -0.76100  -0.65668  -0.57773  -0.55383
 Alpha  occ. eigenvalues --   -0.50887  -0.47405  -0.46178  -0.34361  -0.33487
 Alpha virt. eigenvalues --   -0.01714   0.05849   0.06643   0.07938   0.09613
 Alpha virt. eigenvalues --    0.12374   0.14057   0.15402   0.16766   0.18975
 Alpha virt. eigenvalues --    0.20004   0.22708   0.24537   0.26680   0.28415

 Mulliken charges:
               1
     1  C    0.163104
     2  O   -0.341318
     3  C   -0.059386
     4  C   -0.151781
     5  H    0.103612
     6  H    0.090921
     7  H    0.127176
     8  H    0.067671
 Sum of Mulliken charges =   0.00000

 Dipole moment (field-independent basis, Debye):
    X=              3.2577    Y=              0.7198    Z=              0.3511  Tot=              3.3547
 Quadrupole moment (field-independent basis, Debye-Ang):
   XX=            -27.8952   YY=            -21.4261   ZZ=            -25.2955
   XY=             -0.6940   XZ=             -0.0416   YZ=             -0.2389

 Normal termination of Gaussian 09 at Wed Aug 26 14:44:47 2020.
