 Gaussian 09, Revision D.01,
 Gaussian 09:  ES64L-G09RevD.01 24-Apr-2013

 --------------------
 #p B2PLYPD3/Def2QZVP
 --------------------

 --------
 acrolein
 --------
 Symbolic Z-matrix:
 Charge =  0 Multiplicity = 1

                         Standard orientation:
 ---------------------------------------------------------------------
 Center     Atomic      Atomic             Coordinates (Angstroms)
 Number     Number       Type             X           Y           Z
 ---------------------------------------------------------------------
      1          6           0        0.648625    0.343815    0.072531
      2          8           0        1.822227   -0.086303   -0.064854
      3          6           0       -0.605897   -0.487416    0.093220
      4          6           0       -1.751207    0.128072   -0.061479
      5          1           0       -0.393972   -1.543424   -0.018065
      6          1           0       -1.969527    1.451599   -0.006255
      7          1           0       -2.508733   -0.414974   -0.124955
      8          1           0        0.545291    1.290396    0.042474
 ---------------------------------------------------------------------

 SCF Done:  E(RB2PLYPD3) =  -191.540844694     A.U. after   13 cycles
 E2(B2PLYPD3) =    -0.2495597849D+00 E(B2PLYPD3) =    -0.19179040447908D+03

 The electronic state is 1-A.
 Alpha  occ. eigenvalues --  -19.72629 -10.70547 -10.66108 -10.64937  -1.16643
 Alpha  occ. eigenvalues --   -0.93906  -0.77302  -0.68618  -0.57902  -0.54795
 Alpha  occ. eigenvalues --   -0.50377  -0.45285  -0.45015  -0.35287  -0.33829
 Alpha virt. eigenvalues --   -0.01899   0.04356   0.07027   0.07387   0.09408
 Alpha virt. eigenvalues --    0.11893   0.13693   0.15299   0.17696   0.18290
 Alpha virt. eigenvalues --    0.19981   0.22419   0.24135   0.27109   0.27558

 Mulliken charges:
               1
     1  C    0.172090
     2  O   -0.380649
     3  C   -0.061714
     4  C   -0.130401
     5  H    0.111542
     6  H    0.080520
     7  H    0.116113
     8  H    0.092499
 Sum of Mulliken charges =   0.00000

 Dipole moment (field-independent basis, Debye):
    X=             -3.7206    Y=              0.7291    Z=              0.1193  Tot=              3.7932
 Quadrupole moment (field-independent basis, Debye-Ang):
   XX=            -28.2557   YY=            -21.2146   ZZ=            -25.2199
   XY=              0.6492   XZ=              0.6493   YZ=              0.1891

 Normal termination of Gaussian 09 at Wed Aug 26 12:54:24 2020.
