 Gaussian 09, Revision D.01,
 Gaussian 09:  ES64L-G09RevD.01 24-Apr-2013

 --------------------
 #p B2PLYPD3/Def2QZVP
 --------------------

 --------
 acrolein
 --------
 Symbolic Z-matrix:
 Charge =  0 Multiplicity = 1

                         Standard orientation:
 ---------------------------------------------------------------------
 Center     Atomic      Atomic             Coordinates (Angstroms)
 Number     Number       Type             X           Y           Z
 ---------------------------------------------------------------------
      1          6           0        0.687073    0.344629   -0.053606
      2          8           0        1.784225   -0.106871    0.042214
      3          6           0       -0.560603   -0.464118   -0.012720
      4          6           0       -1.766148    0.140430    0.004882
      5          1           0       -0.454927   -1.541836   -0.050623
      6          1           0       -1.979529    1.294336    0.122484
      7          1           0       -2.597656   -0.410124    0.040323
      8          1           0        0.596377    1.386944   -0.081222
 ---------------------------------------------------------------------

 SCF Done:  E(RB2PLYPD3) =  -191.601658543     A.U. after   12 cycles
 E2(B2PLYPD3) =    -0.2460821597D+00 E(B2PLYPD3) =    -0.19184774070289D+03

 The electronic state is 1-A.
 Alpha  occ. eigenvalues --  -19.72461 -10.70608 -10.65539 -10.64787  -1.20626
 Alpha  occ. eigenvalues --   -0.92221  -0.75706  -0.67445  -0.56961  -0.56268
 Alpha  occ. eigenvalues --   -0.50972  -0.47153  -0.46528  -0.34390  -0.33617
 Alpha virt. eigenvalues --   -0.01491   0.05681   0.07395   0.08178   0.09508
 Alpha virt. eigenvalues --    0.12497   0.14339   0.15384   0.17731   0.19268
 Alpha virt. eigenvalues --    0.19979   0.22065   0.25088   0.26397   0.28343

 Mulliken charges:
               1
     1  C    0.162331
     2  O   -0.338929
     3  C   -0.062727
     4  C   -0.127577
     5  H    0.105622
     6  H    0.079624
     7  H    0.102368
     8  H    0.079287
 Sum of Mulliken charges =   0.00000

 Dipole moment (field-independent basis, Debye):
    X=             -3.3684    Y=              0.7414    Z=             -0.0943  Tot=              3.4503
 Quadrupole moment (field-independent basis, Debye-Ang):
   XX=            -27.3035   YY=            -21.5593   ZZ=            -25.1958
   XY=              0.8261   XZ=             -0.4977   YZ=              0.1833

 Normal termination of Gaussian 09 at Wed Aug 26 21:08:29 2020.
