 Gaussian 09, Revision D.01,
 Gaussian 09:  ES64L-G09RevD.01 24-Apr-2013

 --------------------
 #p B2PLYPD3/Def2QZVP
 --------------------

 --------
 acrolein
 --------
 Symbolic Z-matrix:
 Charge =  0 Multiplicity = 1

                         Standard orientation:
 ---------------------------------------------------------------------
 Center     Atomic      Atomic             Coordinates (Angstroms)
 Number     Number       Type             X           Y           Z
 ---------------------------------------------------------------------
      1          6           0        0.660072    0.342126    0.025887
      2          8           0        1.808387   -0.104452   -0.028444
      3          6           0       -0.586353   -0.454951    0.015733
      4          6           0       -1.751317    0.135059   -0.037652
      5          1           0       -0.426630   -1.538334    0.046482
      6          1           0       -1.860562    1.254541   -0.080333
      7          1           0       -2.590723   -0.385664    0.089377
      8          1           0        0.476406    1.371671    0.148218
 ---------------------------------------------------------------------

 SCF Done:  E(RB2PLYPD3) =  -191.605152938     A.U. after   13 cycles
 E2(B2PLYPD3) =    -0.2474111080D+00 E(B2PLYPD3) =    -0.19185256404580D+03

 The electronic state is 1-A.
 Alpha  occ. eigenvalues --  -19.72939 -10.71358 -10.64700 -10.64355  -1.18132
 Alpha  occ. eigenvalues --   -0.93845  -0.76549  -0.67373  -0.57487  -0.56107
 Alpha  occ. eigenvalues --   -0.51004  -0.46655  -0.45936  -0.35165  -0.33932
 Alpha virt. eigenvalues --   -0.01891   0.05740   0.07215   0.08056   0.09702
 Alpha virt. eigenvalues --    0.12709   0.14104   0.15359   0.17377   0.19095
 Alpha virt. eigenvalues --    0.20101   0.22291   0.25234   0.26972   0.28523

 Mulliken charges:
               1
     1  C    0.160633
     2  O   -0.362364
     3  C   -0.039925
     4  C   -0.122202
     5  H    0.101648
     6  H    0.077568
     7  H    0.104841
     8  H    0.079802
 Sum of Mulliken charges =   0.00000

 Dipole moment (field-independent basis, Debye):
    X=             -3.6130    Y=              0.7542    Z=              0.2037  Tot=              3.6965
 Quadrupole moment (field-independent basis, Debye-Ang):
   XX=            -27.7530   YY=            -21.6747   ZZ=            -25.0598
   XY=              0.6922   XZ=              0.0250   YZ=             -0.1374

 Normal termination of Gaussian 09 at Wed Aug 26 09:35:34 2020.
