 Gaussian 09, Revision D.01,
 Gaussian 09:  ES64L-G09RevD.01 24-Apr-2013

 --------------------
 #p B2PLYPD3/Def2QZVP
 --------------------

 --------
 acrolein
 --------
 Symbolic Z-matrix:
 Charge =  0 Multiplicity = 1

                         Standard orientation:
 ---------------------------------------------------------------------
 Center     Atomic      Atomic             Coordinates (Angstroms)
 Number     Number       Type             X           Y           Z
 ---------------------------------------------------------------------
      1          6           0       -0.674953    0.347651   -0.001972
      2          8           0       -1.789360   -0.126925   -0.007735
      3          6           0        0.561147   -0.438501    0.010509
      4          6           0        1.756333    0.146685   -0.003239
      5          1           0        0.468530   -1.505106    0.020806
      6          1           0        1.804263    1.192212   -0.025097
      7          1           0        2.702693   -0.438717   -0.020724
      8          1           0       -0.515768    1.431998    0.055102
 ---------------------------------------------------------------------

 SCF Done:  E(RB2PLYPD3) =  -191.615431209     A.U. after   12 cycles
 E2(B2PLYPD3) =    -0.2469551087D+00 E(B2PLYPD3) =    -0.19186238631736D+03

 The electronic state is 1-A.
 Alpha  occ. eigenvalues --  -19.72850 -10.71516 -10.65361 -10.64111  -1.19508
 Alpha  occ. eigenvalues --   -0.93239  -0.75523  -0.67403  -0.56899  -0.56209
 Alpha  occ. eigenvalues --   -0.50536  -0.47129  -0.46776  -0.34731  -0.33914
 Alpha virt. eigenvalues --   -0.01795   0.05753   0.07177   0.08268   0.09774
 Alpha virt. eigenvalues --    0.12606   0.13940   0.15362   0.17623   0.19792
 Alpha virt. eigenvalues --    0.20097   0.21440   0.25566   0.26408   0.28849

 Mulliken charges:
               1
     1  C    0.150905
     2  O   -0.348605
     3  C   -0.031664
     4  C   -0.135053
     5  H    0.104134
     6  H    0.086512
     7  H    0.102521
     8  H    0.071250
 Sum of Mulliken charges =   0.00000

 Dipole moment (field-independent basis, Debye):
    X=              3.4890    Y=              0.7751    Z=              0.0115  Tot=              3.5741
 Quadrupole moment (field-independent basis, Debye-Ang):
   XX=            -27.4125   YY=            -21.8027   ZZ=            -25.1680
   XY=             -1.0557   XZ=             -0.1270   YZ=             -0.0199

 Normal termination of Gaussian 09 at Wed Aug 26 15:59:05 2020.
