 Gaussian 09, Revision D.01,
 Gaussian 09:  ES64L-G09RevD.01 24-Apr-2013

 --------------------
 #p B2PLYPD3/Def2QZVP
 --------------------

 --------
 acrolein
 --------
 Symbolic Z-matrix:
 Charge =  0 Multiplicity = 1

                         Standard orientation:
 ---------------------------------------------------------------------
 Center     Atomic      Atomic             Coordinates (Angstroms)
 Number     Number       Type             X           Y           Z
 ---------------------------------------------------------------------
      1          6           0        0.656251    0.345298    0.023900
      2          8           0        1.801097   -0.114627   -0.021177
      3          6           0       -0.567311   -0.452284    0.017028
      4          6           0       -1.749188    0.151910   -0.023284
      5          1           0       -0.433176   -1.599884    0.066500
      6          1           0       -1.843043    1.233162    0.064600
      7          1           0       -2.674111   -0.445800   -0.064981
      8          1           0        0.503039    1.459996   -0.002565
 ---------------------------------------------------------------------

 SCF Done:  E(RB2PLYPD3) =  -191.609782903     A.U. after   13 cycles
 E2(B2PLYPD3) =    -0.2490377954D+00 E(B2PLYPD3) =    -0.19185882069822D+03

 The electronic state is 1-A.
 Alpha  occ. eigenvalues --  -19.72819 -10.72004 -10.65961 -10.65304  -1.18049
 Alpha  occ. eigenvalues --   -0.93289  -0.75456  -0.66010  -0.56273  -0.55993
 Alpha  occ. eigenvalues --   -0.49860  -0.46572  -0.45876  -0.34803  -0.33862
 Alpha virt. eigenvalues --   -0.02128   0.05632   0.06562   0.07960   0.09694
 Alpha virt. eigenvalues --    0.12444   0.13893   0.15219   0.16949   0.19746
 Alpha virt. eigenvalues --    0.20117   0.21531   0.25168   0.26441   0.28695

 Mulliken charges:
               1
     1  C    0.157686
     2  O   -0.359895
     3  C   -0.031364
     4  C   -0.126816
     5  H    0.099652
     6  H    0.090449
     7  H    0.103156
     8  H    0.067131
 Sum of Mulliken charges =   0.00000

 Dipole moment (field-independent basis, Debye):
    X=             -3.6621    Y=              0.7420    Z=              0.1325  Tot=              3.7389
 Quadrupole moment (field-independent basis, Debye-Ang):
   XX=            -27.7488   YY=            -21.6309   ZZ=            -25.3560
   XY=              0.8422   XZ=              0.1121   YZ=              0.0239

 Normal termination of Gaussian 09 at Wed Aug 26 21:03:53 2020.
