 Gaussian 09, Revision D.01,
 Gaussian 09:  ES64L-G09RevD.01 24-Apr-2013

 --------------------
 #p B2PLYPD3/Def2QZVP
 --------------------

 --------
 acrolein
 --------
 Symbolic Z-matrix:
 Charge =  0 Multiplicity = 1

                         Standard orientation:
 ---------------------------------------------------------------------
 Center     Atomic      Atomic             Coordinates (Angstroms)
 Number     Number       Type             X           Y           Z
 ---------------------------------------------------------------------
      1          6           0        0.670323    0.343031    0.006983
      2          8           0        1.792869   -0.114156   -0.014727
      3          6           0       -0.562246   -0.465243    0.006807
      4          6           0       -1.750713    0.152157   -0.020559
      5          1           0       -0.462371   -1.545312    0.058442
      6          1           0       -1.824472    1.244873   -0.022023
      7          1           0       -2.701987   -0.413420    0.026287
      8          1           0        0.501694    1.447433    0.095718
 ---------------------------------------------------------------------

 SCF Done:  E(RB2PLYPD3) =  -191.615464575     A.U. after   12 cycles
 E2(B2PLYPD3) =    -0.2477291986D+00 E(B2PLYPD3) =    -0.19186319377366D+03

 The electronic state is 1-A.
 Alpha  occ. eigenvalues --  -19.72836 -10.71784 -10.65990 -10.64676  -1.19412
 Alpha  occ. eigenvalues --   -0.92812  -0.74989  -0.66776  -0.56253  -0.56124
 Alpha  occ. eigenvalues --   -0.50384  -0.46987  -0.46573  -0.34635  -0.33793
 Alpha virt. eigenvalues --   -0.01775   0.05687   0.06976   0.08069   0.09684
 Alpha virt. eigenvalues --    0.12502   0.13997   0.15321   0.17450   0.19614
 Alpha virt. eigenvalues --    0.20060   0.21336   0.25262   0.26492   0.28774

 Mulliken charges:
               1
     1  C    0.155747
     2  O   -0.347488
     3  C   -0.039618
     4  C   -0.128942
     5  H    0.106707
     6  H    0.085608
     7  H    0.099888
     8  H    0.068100
 Sum of Mulliken charges =   0.00000

 Dipole moment (field-independent basis, Debye):
    X=             -3.5069    Y=              0.7166    Z=              0.1299  Tot=              3.5817
 Quadrupole moment (field-independent basis, Debye-Ang):
   XX=            -27.5335   YY=            -21.7124   ZZ=            -25.3053
   XY=              0.8615   XZ=              0.0116   YZ=             -0.0846

 Normal termination of Gaussian 09 at Wed Aug 26 16:34:36 2020.
