 Gaussian 09, Revision D.01,
 Gaussian 09:  ES64L-G09RevD.01 24-Apr-2013

 --------------------
 #p B2PLYPD3/Def2QZVP
 --------------------

 --------
 acrolein
 --------
 Symbolic Z-matrix:
 Charge =  0 Multiplicity = 1

                         Standard orientation:
 ---------------------------------------------------------------------
 Center     Atomic      Atomic             Coordinates (Angstroms)
 Number     Number       Type             X           Y           Z
 ---------------------------------------------------------------------
      1          6           0        0.664891    0.338744    0.009523
      2          8           0        1.793507   -0.108616   -0.014729
      3          6           0       -0.565356   -0.456890    0.004059
      4          6           0       -1.751860    0.151088   -0.017175
      5          1           0       -0.448830   -1.559704    0.061175
      6          1           0       -1.829797    1.236958   -0.015355
      7          1           0       -2.647091   -0.420562    0.012761
      8          1           0        0.491605    1.414581    0.080814
 ---------------------------------------------------------------------

 SCF Done:  E(RB2PLYPD3) =  -191.615811544     A.U. after   12 cycles
 E2(B2PLYPD3) =    -0.2473109736D+00 E(B2PLYPD3) =    -0.19186312251741D+03

 The electronic state is 1-A.
 Alpha  occ. eigenvalues --  -19.72754 -10.71378 -10.65441 -10.64685  -1.19213
 Alpha  occ. eigenvalues --   -0.93178  -0.75734  -0.66832  -0.56538  -0.56442
 Alpha  occ. eigenvalues --   -0.50520  -0.47089  -0.46484  -0.34746  -0.33816
 Alpha virt. eigenvalues --   -0.01834   0.05775   0.06995   0.08229   0.09722
 Alpha virt. eigenvalues --    0.12677   0.14028   0.15291   0.17338   0.19681
 Alpha virt. eigenvalues --    0.20063   0.21721   0.25360   0.26637   0.28668

 Mulliken charges:
               1
     1  C    0.155693
     2  O   -0.351549
     3  C   -0.033804
     4  C   -0.132274
     5  H    0.100921
     6  H    0.087065
     7  H    0.104518
     8  H    0.069431
 Sum of Mulliken charges =   0.00000

 Dipole moment (field-independent basis, Debye):
    X=             -3.5558    Y=              0.7218    Z=              0.1246  Tot=              3.6304
 Quadrupole moment (field-independent basis, Debye-Ang):
   XX=            -27.5796   YY=            -21.6831   ZZ=            -25.2107
   XY=              0.8200   XZ=              0.0343   YZ=             -0.0825

 Normal termination of Gaussian 09 at Wed Aug 26 19:42:08 2020.
