 Gaussian 09, Revision D.01,
 Gaussian 09:  ES64L-G09RevD.01 24-Apr-2013

 --------------------
 #p B2PLYPD3/Def2QZVP
 --------------------

 --------
 acrolein
 --------
 Symbolic Z-matrix:
 Charge =  0 Multiplicity = 1

                         Standard orientation:
 ---------------------------------------------------------------------
 Center     Atomic      Atomic             Coordinates (Angstroms)
 Number     Number       Type             X           Y           Z
 ---------------------------------------------------------------------
      1          6           0       -0.676994    0.365742   -0.019724
      2          8           0       -1.786742   -0.133421    0.022812
      3          6           0        0.554530   -0.438429   -0.026679
      4          6           0        1.758640    0.135265    0.022786
      5          1           0        0.462367   -1.519368   -0.051234
      6          1           0        1.847635    1.209507   -0.035731
      7          1           0        2.682307   -0.439664    0.064982
      8          1           0       -0.515423    1.441425   -0.018800
 ---------------------------------------------------------------------

 SCF Done:  E(RB2PLYPD3) =  -191.616078271     A.U. after   12 cycles
 E2(B2PLYPD3) =    -0.2474070709D+00 E(B2PLYPD3) =    -0.19186348534177D+03

 The electronic state is 1-A.
 Alpha  occ. eigenvalues --  -19.72860 -10.71628 -10.65424 -10.64346  -1.19158
 Alpha  occ. eigenvalues --   -0.92878  -0.75517  -0.67248  -0.56619  -0.56287
 Alpha  occ. eigenvalues --   -0.50554  -0.46902  -0.46394  -0.34528  -0.34022
 Alpha virt. eigenvalues --   -0.01829   0.05722   0.07171   0.08057   0.09733
 Alpha virt. eigenvalues --    0.12515   0.14052   0.15374   0.17559   0.19780
 Alpha virt. eigenvalues --    0.19978   0.21559   0.25415   0.26460   0.28746

 Mulliken charges:
               1
     1  C    0.154049
     2  O   -0.351137
     3  C   -0.039673
     4  C   -0.133020
     5  H    0.105306
     6  H    0.081581
     7  H    0.101938
     8  H    0.080956
 Sum of Mulliken charges =   0.00000

 Dipole moment (field-independent basis, Debye):
    X=              3.4785    Y=              0.8420    Z=             -0.0994  Tot=              3.5803
 Quadrupole moment (field-independent basis, Debye-Ang):
   XX=            -27.4693   YY=            -21.6847   ZZ=            -25.2274
   XY=             -1.0749   XZ=              0.1864   YZ=             -0.0340

 Normal termination of Gaussian 09 at Wed Aug 26 19:02:48 2020.
