 Gaussian 09, Revision D.01,
 Gaussian 09:  ES64L-G09RevD.01 24-Apr-2013

 --------------------
 #p B2PLYPD3/Def2QZVP
 --------------------

 --------
 acrolein
 --------
 Symbolic Z-matrix:
 Charge =  0 Multiplicity = 1

                         Standard orientation:
 ---------------------------------------------------------------------
 Center     Atomic      Atomic             Coordinates (Angstroms)
 Number     Number       Type             X           Y           Z
 ---------------------------------------------------------------------
      1          6           0       -0.648787    0.320639   -0.047244
      2          8           0       -1.810616   -0.099018    0.040925
      3          6           0        0.573592   -0.477939   -0.039482
      4          6           0        1.744720    0.157208    0.028161
      5          1           0        0.461331   -1.483889   -0.033504
      6          1           0        1.828599    1.276608    0.018025
      7          1           0        2.684150   -0.417028    0.079127
      8          1           0       -0.506303    1.417004   -0.039664
 ---------------------------------------------------------------------

 SCF Done:  E(RB2PLYPD3) =  -191.608766682     A.U. after   13 cycles
 E2(B2PLYPD3) =    -0.2485613251D+00 E(B2PLYPD3) =    -0.19185732800754D+03

 The electronic state is 1-A.
 Alpha  occ. eigenvalues --  -19.72625 -10.71642 -10.66530 -10.64158  -1.17680
 Alpha  occ. eigenvalues --   -0.93653  -0.75444  -0.67845  -0.56486  -0.56061
 Alpha  occ. eigenvalues --   -0.50150  -0.47425  -0.45870  -0.34823  -0.33689
 Alpha virt. eigenvalues --   -0.02200   0.05528   0.07206   0.07914   0.09635
 Alpha virt. eigenvalues --    0.12470   0.13792   0.15217   0.17802   0.19456
 Alpha virt. eigenvalues --    0.20021   0.21388   0.25052   0.26555   0.28987

 Mulliken charges:
               1
     1  C    0.154608
     2  O   -0.366365
     3  C   -0.036383
     4  C   -0.121063
     5  H    0.113124
     6  H    0.090739
     7  H    0.098092
     8  H    0.067248
 Sum of Mulliken charges =   0.00000

 Dipole moment (field-independent basis, Debye):
    X=              3.7689    Y=              0.6598    Z=             -0.1064  Tot=              3.8277
 Quadrupole moment (field-independent basis, Debye-Ang):
   XX=            -27.7654   YY=            -21.6498   ZZ=            -25.2409
   XY=             -0.7608   XZ=              0.3974   YZ=              0.0043

 Normal termination of Gaussian 09 at Wed Aug 26 09:22:46 2020.
