 Gaussian 09, Revision D.01,
 Gaussian 09:  ES64L-G09RevD.01 24-Apr-2013

 --------------------
 #p B2PLYPD3/Def2QZVP
 --------------------

 --------
 acrolein
 --------
 Symbolic Z-matrix:
 Charge =  0 Multiplicity = 1

                         Standard orientation:
 ---------------------------------------------------------------------
 Center     Atomic      Atomic             Coordinates (Angstroms)
 Number     Number       Type             X           Y           Z
 ---------------------------------------------------------------------
      1          6           0       -0.655693    0.342238    0.005927
      2          8           0       -1.785400   -0.111489   -0.021065
      3          6           0        0.566917   -0.453020    0.041429
      4          6           0        1.762209    0.156726   -0.034038
      5          1           0        0.378261   -1.605773    0.028503
      6          1           0        1.754256    1.210325    0.049931
      7          1           0        2.677175   -0.402017   -0.046602
      8          1           0       -0.567095    1.413714    0.056772
 ---------------------------------------------------------------------

 SCF Done:  E(RB2PLYPD3) =  -191.608718298     A.U. after   13 cycles
 E2(B2PLYPD3) =    -0.2478927210D+00 E(B2PLYPD3) =    -0.19185661101888D+03

 The electronic state is 1-A.
 Alpha  occ. eigenvalues --  -19.72500 -10.71089 -10.65565 -10.65419  -1.18952
 Alpha  occ. eigenvalues --   -0.93065  -0.75777  -0.66676  -0.56844  -0.56302
 Alpha  occ. eigenvalues --   -0.50256  -0.46758  -0.46246  -0.34565  -0.33769
 Alpha virt. eigenvalues --   -0.02050   0.05835   0.06818   0.08145   0.09770
 Alpha virt. eigenvalues --    0.12574   0.13924   0.15242   0.16924   0.19937
 Alpha virt. eigenvalues --    0.20124   0.21538   0.25052   0.26524   0.29227

 Mulliken charges:
               1
     1  C    0.156589
     2  O   -0.356056
     3  C   -0.034272
     4  C   -0.130864
     5  H    0.097876
     6  H    0.089781
     7  H    0.109250
     8  H    0.067697
 Sum of Mulliken charges =   0.00000

 Dipole moment (field-independent basis, Debye):
    X=              3.5504    Y=              0.7651    Z=              0.0980  Tot=              3.6332
 Quadrupole moment (field-independent basis, Debye-Ang):
   XX=            -27.5575   YY=            -21.6712   ZZ=            -25.2760
   XY=             -0.9741   XZ=             -0.1526   YZ=              0.0985

 Normal termination of Gaussian 09 at Wed Aug 26 21:13:58 2020.
