 Gaussian 09, Revision D.01,
 Gaussian 09:  ES64L-G09RevD.01 24-Apr-2013

 --------------------
 #p B2PLYPD3/Def2QZVP
 --------------------

 --------
 acrolein
 --------
 Symbolic Z-matrix:
 Charge =  0 Multiplicity = 1

                         Standard orientation:
 ---------------------------------------------------------------------
 Center     Atomic      Atomic             Coordinates (Angstroms)
 Number     Number       Type             X           Y           Z
 ---------------------------------------------------------------------
      1          6           0        0.688703    0.374347   -0.080400
      2          8           0        1.750913   -0.138974    0.055575
      3          6           0       -0.499452   -0.426778   -0.007654
      4          6           0       -1.758366    0.095677    0.017612
      5          1           0       -0.380133   -1.406517   -0.060549
      6          1           0       -1.923006    1.186467    0.235928
      7          1           0       -2.762179   -0.423589   -0.074377
      8          1           0        0.472703    1.495957   -0.122949
 ---------------------------------------------------------------------

 SCF Done:  E(RB2PLYPD3) =  -191.596391407     A.U. after   13 cycles
 E2(B2PLYPD3) =    -0.2473591124D+00 E(B2PLYPD3) =    -0.19184375051943D+03

 The electronic state is 1-A.
 Alpha  occ. eigenvalues --  -19.72904 -10.71438 -10.66741 -10.63340  -1.21269
 Alpha  occ. eigenvalues --   -0.92405  -0.75334  -0.67616  -0.57024  -0.55865
 Alpha  occ. eigenvalues --   -0.51031  -0.47833  -0.46119  -0.34248  -0.33514
 Alpha virt. eigenvalues --   -0.02213   0.05532   0.07628   0.08149   0.09759
 Alpha virt. eigenvalues --    0.12195   0.14006   0.15450   0.18026   0.19417
 Alpha virt. eigenvalues --    0.19887   0.21213   0.24888   0.26570   0.28921

 Mulliken charges:
               1
     1  C    0.166434
     2  O   -0.334940
     3  C   -0.048983
     4  C   -0.131917
     5  H    0.117391
     6  H    0.070992
     7  H    0.095557
     8  H    0.065467
 Sum of Mulliken charges =   0.00000

 Dipole moment (field-independent basis, Debye):
    X=             -3.3205    Y=              0.7713    Z=             -0.1818  Tot=              3.4137
 Quadrupole moment (field-independent basis, Debye-Ang):
   XX=            -26.6910   YY=            -22.1760   ZZ=            -25.1727
   XY=              0.8329   XZ=             -0.4010   YZ=              0.3488

 Normal termination of Gaussian 09 at Wed Aug 26 13:19:26 2020.
