 Gaussian 09, Revision D.01,
 Gaussian 09:  ES64L-G09RevD.01 24-Apr-2013

 --------------------
 #p B2PLYPD3/Def2QZVP
 --------------------

 --------
 acrolein
 --------
 Symbolic Z-matrix:
 Charge =  0 Multiplicity = 1

                         Standard orientation:
 ---------------------------------------------------------------------
 Center     Atomic      Atomic             Coordinates (Angstroms)
 Number     Number       Type             X           Y           Z
 ---------------------------------------------------------------------
      1          6           0        0.670648    0.344960   -0.033612
      2          8           0        1.781197   -0.112691    0.033313
      3          6           0       -0.557056   -0.467642   -0.041495
      4          6           0       -1.748353    0.147355    0.003868
      5          1           0       -0.471299   -1.497619   -0.020369
      6          1           0       -1.883286    1.242995    0.003753
      7          1           0       -2.636607   -0.401945    0.168749
      8          1           0        0.550180    1.410052    0.008801
 ---------------------------------------------------------------------

 SCF Done:  E(RB2PLYPD3) =  -191.613216627     A.U. after   12 cycles
 E2(B2PLYPD3) =    -0.2463215269D+00 E(B2PLYPD3) =    -0.19185953815370D+03

 The electronic state is 1-A.
 Alpha  occ. eigenvalues --  -19.72467 -10.70956 -10.65444 -10.64094  -1.19815
 Alpha  occ. eigenvalues --   -0.92888  -0.75447  -0.67960  -0.56922  -0.56541
 Alpha  occ. eigenvalues --   -0.50628  -0.47476  -0.46816  -0.34473  -0.33688
 Alpha virt. eigenvalues --   -0.01611   0.05761   0.07460   0.08098   0.09654
 Alpha virt. eigenvalues --    0.12624   0.14259   0.15377   0.17861   0.19561
 Alpha virt. eigenvalues --    0.19972   0.21732   0.25094   0.26590   0.28627

 Mulliken charges:
               1
     1  C    0.152565
     2  O   -0.347701
     3  C   -0.049121
     4  C   -0.126779
     5  H    0.112964
     6  H    0.083687
     7  H    0.096275
     8  H    0.078111
 Sum of Mulliken charges =   0.00000

 Dipole moment (field-independent basis, Debye):
    X=             -3.4680    Y=              0.7572    Z=              0.0229  Tot=              3.5497
 Quadrupole moment (field-independent basis, Debye-Ang):
   XX=            -27.4622   YY=            -21.6001   ZZ=            -25.1087
   XY=              0.8535   XZ=             -0.5736   YZ=             -0.0654

 Normal termination of Gaussian 09 at Wed Aug 26 10:27:36 2020.
