 Gaussian 09, Revision D.01,
 Gaussian 09:  ES64L-G09RevD.01 24-Apr-2013

 --------------------
 #p B2PLYPD3/Def2QZVP
 --------------------

 --------
 acrolein
 --------
 Symbolic Z-matrix:
 Charge =  0 Multiplicity = 1

                         Standard orientation:
 ---------------------------------------------------------------------
 Center     Atomic      Atomic             Coordinates (Angstroms)
 Number     Number       Type             X           Y           Z
 ---------------------------------------------------------------------
      1          6           0       -0.696001    0.374569    0.021412
      2          8           0       -1.764048   -0.139675   -0.035901
      3          6           0        0.540211   -0.431246    0.032805
      4          6           0        1.774097    0.127219   -0.044581
      5          1           0        0.387531   -1.497375    0.083584
      6          1           0        1.837519    1.181769   -0.047114
      7          1           0        2.744584   -0.417304    0.034594
      8          1           0       -0.567088    1.427057    0.158329
 ---------------------------------------------------------------------

 SCF Done:  E(RB2PLYPD3) =  -191.612341246     A.U. after   12 cycles
 E2(B2PLYPD3) =    -0.2462342989D+00 E(B2PLYPD3) =    -0.19185857554446D+03

 The electronic state is 1-A.
 Alpha  occ. eigenvalues --  -19.72776 -10.70999 -10.65550 -10.64357  -1.21128
 Alpha  occ. eigenvalues --   -0.91979  -0.75305  -0.67653  -0.56974  -0.56025
 Alpha  occ. eigenvalues --   -0.51127  -0.47545  -0.46474  -0.34082  -0.33927
 Alpha virt. eigenvalues --   -0.01619   0.05794   0.07379   0.08311   0.09780
 Alpha virt. eigenvalues --    0.12407   0.14168   0.15528   0.17729   0.19431
 Alpha virt. eigenvalues --    0.19956   0.21520   0.25430   0.26597   0.28917

 Mulliken charges:
               1
     1  C    0.157971
     2  O   -0.336182
     3  C   -0.054210
     4  C   -0.134997
     5  H    0.108306
     6  H    0.078852
     7  H    0.100296
     8  H    0.079964
 Sum of Mulliken charges =   0.00000

 Dipole moment (field-independent basis, Debye):
    X=              3.2112    Y=              0.8901    Z=              0.2213  Tot=              3.3396
 Quadrupole moment (field-independent basis, Debye-Ang):
   XX=            -27.0485   YY=            -21.8397   ZZ=            -25.2154
   XY=             -1.0506   XZ=             -0.1275   YZ=             -0.1086

 Normal termination of Gaussian 09 at Wed Aug 26 08:49:01 2020.
