 Gaussian 09, Revision D.01,
 Gaussian 09:  ES64L-G09RevD.01 24-Apr-2013

 --------------------
 #p B2PLYPD3/Def2QZVP
 --------------------

 --------
 acrolein
 --------
 Symbolic Z-matrix:
 Charge =  0 Multiplicity = 1

                         Standard orientation:
 ---------------------------------------------------------------------
 Center     Atomic      Atomic             Coordinates (Angstroms)
 Number     Number       Type             X           Y           Z
 ---------------------------------------------------------------------
      1          6           0       -0.661240    0.305001    0.040671
      2          8           0       -1.820874   -0.072986   -0.066739
      3          6           0        0.565947   -0.463962    0.047596
      4          6           0        1.789692    0.151102   -0.079767
      5          1           0        0.374585   -1.622943    0.178482
      6          1           0        1.955443    1.321014   -0.042894
      7          1           0        2.572213   -0.457868    0.024514
      8          1           0       -0.501643    1.390841    0.322806
 ---------------------------------------------------------------------

 SCF Done:  E(RB2PLYPD3) =  -191.587251955     A.U. after   13 cycles
 E2(B2PLYPD3) =    -0.2502754647D+00 E(B2PLYPD3) =    -0.19183752741950D+03

 The electronic state is 1-A.
 Alpha  occ. eigenvalues --  -19.72896 -10.71701 -10.66803 -10.66423  -1.18627
 Alpha  occ. eigenvalues --   -0.92605  -0.76790  -0.64909  -0.56690  -0.55151
 Alpha  occ. eigenvalues --   -0.50529  -0.47171  -0.45302  -0.34476  -0.33435
 Alpha virt. eigenvalues --   -0.02978   0.05482   0.06218   0.08336   0.09472
 Alpha virt. eigenvalues --    0.12266   0.13865   0.15187   0.17034   0.18461
 Alpha virt. eigenvalues --    0.20007   0.22067   0.24211   0.26949   0.27948

 Mulliken charges:
               1
     1  C    0.164596
     2  O   -0.351698
     3  C   -0.043594
     4  C   -0.122349
     5  H    0.094300
     6  H    0.093835
     7  H    0.111988
     8  H    0.052922
 Sum of Mulliken charges =   0.00000

 Dipole moment (field-independent basis, Debye):
    X=              3.7069    Y=              0.5425    Z=              0.4301  Tot=              3.7710
 Quadrupole moment (field-independent basis, Debye-Ang):
   XX=            -27.7340   YY=            -21.7517   ZZ=            -25.4704
   XY=             -0.2953   XZ=             -0.2843   YZ=             -0.2287

 Normal termination of Gaussian 09 at Wed Aug 26 11:13:39 2020.
