 Gaussian 09, Revision D.01,
 Gaussian 09:  ES64L-G09RevD.01 24-Apr-2013

 --------------------
 #p B2PLYPD3/Def2QZVP
 --------------------

 --------
 acrolein
 --------
 Symbolic Z-matrix:
 Charge =  0 Multiplicity = 1

                         Standard orientation:
 ---------------------------------------------------------------------
 Center     Atomic      Atomic             Coordinates (Angstroms)
 Number     Number       Type             X           Y           Z
 ---------------------------------------------------------------------
      1          6           0       -0.659365    0.339252   -0.017199
      2          8           0       -1.794616   -0.110304    0.010212
      3          6           0        0.571459   -0.458335   -0.018429
      4          6           0        1.746916    0.144349    0.011972
      5          1           0        0.440822   -1.575597    0.020062
      6          1           0        1.851979    1.242432   -0.023199
      7          1           0        2.628345   -0.393413    0.026458
      8          1           0       -0.518275    1.457414    0.036924
 ---------------------------------------------------------------------

 SCF Done:  E(RB2PLYPD3) =  -191.612527659     A.U. after   12 cycles
 E2(B2PLYPD3) =    -0.2476774031D+00 E(B2PLYPD3) =    -0.19186020506193D+03

 The electronic state is 1-A.
 Alpha  occ. eigenvalues --  -19.72777 -10.71821 -10.65160 -10.64883  -1.18815
 Alpha  occ. eigenvalues --   -0.93418  -0.75768  -0.66203  -0.56957  -0.56179
 Alpha  occ. eigenvalues --   -0.50399  -0.46668  -0.46419  -0.34986  -0.33736
 Alpha virt. eigenvalues --   -0.01800   0.05766   0.06900   0.08130   0.09693
 Alpha virt. eigenvalues --    0.12588   0.14129   0.15264   0.17050   0.19773
 Alpha virt. eigenvalues --    0.20044   0.21901   0.25313   0.26465   0.28681

 Mulliken charges:
               1
     1  C    0.158243
     2  O   -0.353011
     3  C   -0.036673
     4  C   -0.123642
     5  H    0.101392
     6  H    0.084801
     7  H    0.104235
     8  H    0.064656
 Sum of Mulliken charges =   0.00000

 Dipole moment (field-independent basis, Debye):
    X=              3.5980    Y=              0.6999    Z=             -0.0074  Tot=              3.6654
 Quadrupole moment (field-independent basis, Debye-Ang):
   XX=            -27.5176   YY=            -21.6975   ZZ=            -25.2244
   XY=             -0.7863   XZ=              0.0817   YZ=             -0.0653

 Normal termination of Gaussian 09 at Wed Aug 26 16:57:20 2020.
