 Gaussian 09, Revision D.01,
 Gaussian 09:  ES64L-G09RevD.01 24-Apr-2013

 --------------------
 #p B2PLYPD3/Def2QZVP
 --------------------

 --------
 acrolein
 --------
 Symbolic Z-matrix:
 Charge =  0 Multiplicity = 1

                         Standard orientation:
 ---------------------------------------------------------------------
 Center     Atomic      Atomic             Coordinates (Angstroms)
 Number     Number       Type             X           Y           Z
 ---------------------------------------------------------------------
      1          6           0        0.691232    0.379379    0.033446
      2          8           0        1.764046   -0.164359    0.008660
      3          6           0       -0.550917   -0.447251   -0.063392
      4          6           0       -1.752902    0.132997   -0.014415
      5          1           0       -0.500959   -1.459914    0.036713
      6          1           0       -1.725824    1.111450   -0.008112
      7          1           0       -2.725875   -0.369202    0.217322
      8          1           0        0.515817    1.641781   -0.049035
 ---------------------------------------------------------------------

 SCF Done:  E(RB2PLYPD3) =  -191.583502792     A.U. after   13 cycles
 E2(B2PLYPD3) =    -0.2484707689D+00 E(B2PLYPD3) =    -0.19183197356071D+03

 The electronic state is 1-A.
 Alpha  occ. eigenvalues --  -19.73612 -10.73643 -10.64286 -10.63811  -1.20651
 Alpha  occ. eigenvalues --   -0.93075  -0.74567  -0.66855  -0.56668  -0.55787
 Alpha  occ. eigenvalues --   -0.50434  -0.47535  -0.47420  -0.34571  -0.33684
 Alpha virt. eigenvalues --   -0.01688   0.05738   0.06767   0.07534   0.09879
 Alpha virt. eigenvalues --    0.12373   0.13702   0.15302   0.17547   0.19114
 Alpha virt. eigenvalues --    0.20432   0.21819   0.24915   0.26034   0.28905

 Mulliken charges:
               1
     1  C    0.160426
     2  O   -0.324331
     3  C   -0.043831
     4  C   -0.122164
     5  H    0.109622
     6  H    0.080483
     7  H    0.096069
     8  H    0.043725
 Sum of Mulliken charges =   0.00000

 Dipole moment (field-independent basis, Debye):
    X=             -3.2165    Y=              0.7348    Z=              0.2372  Tot=              3.3079
 Quadrupole moment (field-independent basis, Debye-Ang):
   XX=            -27.0599   YY=            -22.1129   ZZ=            -25.2094
   XY=              1.2117   XZ=             -0.6450   YZ=             -0.2311

 Normal termination of Gaussian 09 at Wed Aug 26 12:45:07 2020.
