 Gaussian 09, Revision D.01,
 Gaussian 09:  ES64L-G09RevD.01 24-Apr-2013

 --------------------
 #p B2PLYPD3/Def2QZVP
 --------------------

 --------
 acrolein
 --------
 Symbolic Z-matrix:
 Charge =  0 Multiplicity = 1

                         Standard orientation:
 ---------------------------------------------------------------------
 Center     Atomic      Atomic             Coordinates (Angstroms)
 Number     Number       Type             X           Y           Z
 ---------------------------------------------------------------------
      1          6           0        0.662554    0.341571    0.006512
      2          8           0        1.779183   -0.150898   -0.043394
      3          6           0       -0.562836   -0.392471    0.097034
      4          6           0       -1.730876    0.127299   -0.061527
      5          1           0       -0.486509   -1.481315    0.075095
      6          1           0       -1.679836    1.092134    0.116327
      7          1           0       -2.748473   -0.425156   -0.173326
      8          1           0        0.468296    1.563124    0.076941
 ---------------------------------------------------------------------

 SCF Done:  E(RB2PLYPD3) =  -191.581928370     A.U. after   14 cycles
 E2(B2PLYPD3) =    -0.2488165521D+00 E(B2PLYPD3) =    -0.19183074492195D+03

 The electronic state is 1-A.
 Alpha  occ. eigenvalues --  -19.73499 -10.73087 -10.64749 -10.63652  -1.19346
 Alpha  occ. eigenvalues --   -0.95314  -0.75921  -0.66305  -0.56758  -0.55977
 Alpha  occ. eigenvalues --   -0.50685  -0.47468  -0.45509  -0.35526  -0.33954
 Alpha virt. eigenvalues --   -0.02101   0.05680   0.06487   0.08386   0.09947
 Alpha virt. eigenvalues --    0.12280   0.13595   0.14866   0.16963   0.19587
 Alpha virt. eigenvalues --    0.20924   0.21566   0.24361   0.26259   0.28933

 Mulliken charges:
               1
     1  C    0.158124
     2  O   -0.341642
     3  C   -0.007755
     4  C   -0.118955
     5  H    0.091197
     6  H    0.083091
     7  H    0.106211
     8  H    0.029729
 Sum of Mulliken charges =   0.00000

 Dipole moment (field-independent basis, Debye):
    X=             -3.5837    Y=              0.6116    Z=              0.1263  Tot=              3.6377
 Quadrupole moment (field-independent basis, Debye-Ang):
   XX=            -26.9139   YY=            -22.5481   ZZ=            -25.0372
   XY=              1.3099   XZ=              0.4527   YZ=              0.2294

 Normal termination of Gaussian 09 at Wed Aug 26 15:00:56 2020.
