 Gaussian 09, Revision D.01,
 Gaussian 09:  ES64L-G09RevD.01 24-Apr-2013

 --------------------
 #p B2PLYPD3/Def2QZVP
 --------------------

 --------
 acrolein
 --------
 Symbolic Z-matrix:
 Charge =  0 Multiplicity = 1

                         Standard orientation:
 ---------------------------------------------------------------------
 Center     Atomic      Atomic             Coordinates (Angstroms)
 Number     Number       Type             X           Y           Z
 ---------------------------------------------------------------------
      1          6           0       -0.657732    0.325402   -0.010681
      2          8           0       -1.811922   -0.093505    0.018408
      3          6           0        0.576256   -0.451755   -0.023515
      4          6           0        1.766895    0.142991    0.001892
      5          1           0        0.438642   -1.578924   -0.041670
      6          1           0        1.873874    1.238315   -0.015392
      7          1           0        2.567425   -0.379027    0.125486
      8          1           0       -0.497071    1.367843   -0.021865
 ---------------------------------------------------------------------

 SCF Done:  E(RB2PLYPD3) =  -191.600345122     A.U. after   13 cycles
 E2(B2PLYPD3) =    -0.2475383149D+00 E(B2PLYPD3) =    -0.19184788343675D+03

 The electronic state is 1-A.
 Alpha  occ. eigenvalues --  -19.72714 -10.71071 -10.65096 -10.64730  -1.18311
 Alpha  occ. eigenvalues --   -0.93697  -0.77303  -0.67032  -0.57676  -0.56482
 Alpha  occ. eigenvalues --   -0.50771  -0.46966  -0.46081  -0.34848  -0.33841
 Alpha virt. eigenvalues --   -0.02292   0.05789   0.07111   0.08298   0.09650
 Alpha virt. eigenvalues --    0.12751   0.14252   0.15280   0.17183   0.19718
 Alpha virt. eigenvalues --    0.19944   0.22441   0.25215   0.26659   0.28476

 Mulliken charges:
               1
     1  C    0.157669
     2  O   -0.360985
     3  C   -0.029115
     4  C   -0.128791
     5  H    0.093995
     6  H    0.084716
     7  H    0.110381
     8  H    0.072130
 Sum of Mulliken charges =   0.00000

 Dipole moment (field-independent basis, Debye):
    X=              3.7189    Y=              0.7155    Z=             -0.0021  Tot=              3.7871
 Quadrupole moment (field-independent basis, Debye-Ang):
   XX=            -27.6068   YY=            -21.7045   ZZ=            -25.0920
   XY=             -0.6530   XZ=              0.3627   YZ=             -0.0428

 Normal termination of Gaussian 09 at Wed Aug 26 08:35:41 2020.
