 Gaussian 09, Revision D.01,
 Gaussian 09:  ES64L-G09RevD.01 24-Apr-2013

 --------------------
 #p B2PLYPD3/Def2QZVP
 --------------------

 --------
 acrolein
 --------
 Symbolic Z-matrix:
 Charge =  0 Multiplicity = 1

                         Standard orientation:
 ---------------------------------------------------------------------
 Center     Atomic      Atomic             Coordinates (Angstroms)
 Number     Number       Type             X           Y           Z
 ---------------------------------------------------------------------
      1          6           0        0.658655    0.336198    0.030471
      2          8           0        1.800922   -0.105997   -0.035370
      3          6           0       -0.566841   -0.448492    0.055628
      4          6           0       -1.759519    0.140362   -0.038335
      5          1           0       -0.407002   -1.523495    0.007607
      6          1           0       -1.891631    1.235250    0.013150
      7          1           0       -2.664676   -0.411392   -0.066733
      8          1           0        0.562154    1.379211    0.042351
 ---------------------------------------------------------------------

 SCF Done:  E(RB2PLYPD3) =  -191.612162055     A.U. after   12 cycles
 E2(B2PLYPD3) =    -0.2474709499D+00 E(B2PLYPD3) =    -0.19185963300487D+03

 The electronic state is 1-A.
 Alpha  occ. eigenvalues --  -19.72487 -10.70831 -10.65839 -10.64688  -1.18379
 Alpha  occ. eigenvalues --   -0.93305  -0.76253  -0.67632  -0.56960  -0.56475
 Alpha  occ. eigenvalues --   -0.50397  -0.46809  -0.46185  -0.34767  -0.33795
 Alpha virt. eigenvalues --   -0.02164   0.05662   0.07299   0.08205   0.09663
 Alpha virt. eigenvalues --    0.12548   0.14037   0.15322   0.17577   0.19612
 Alpha virt. eigenvalues --    0.19979   0.21721   0.24976   0.26708   0.28697

 Mulliken charges:
               1
     1  C    0.157852
     2  O   -0.363478
     3  C   -0.039416
     4  C   -0.123754
     5  H    0.106373
     6  H    0.085381
     7  H    0.102075
     8  H    0.074968
 Sum of Mulliken charges =   0.00000

 Dipole moment (field-independent basis, Debye):
    X=             -3.6853    Y=              0.7707    Z=              0.0878  Tot=              3.7661
 Quadrupole moment (field-independent basis, Debye-Ang):
   XX=            -27.4548   YY=            -21.7120   ZZ=            -25.1645
   XY=              0.7729   XZ=              0.3248   YZ=              0.0890

 Normal termination of Gaussian 09 at Wed Aug 26 20:53:33 2020.
