 Gaussian 09, Revision D.01,
 Gaussian 09:  ES64L-G09RevD.01 24-Apr-2013

 --------------------
 #p B2PLYPD3/Def2QZVP
 --------------------

 --------
 acrolein
 --------
 Symbolic Z-matrix:
 Charge =  0 Multiplicity = 1

                         Standard orientation:
 ---------------------------------------------------------------------
 Center     Atomic      Atomic             Coordinates (Angstroms)
 Number     Number       Type             X           Y           Z
 ---------------------------------------------------------------------
      1          6           0        0.666996    0.334736    0.021301
      2          8           0        1.803330   -0.101743   -0.029167
      3          6           0       -0.568607   -0.481205    0.004118
      4          6           0       -1.753796    0.165265   -0.011532
      5          1           0       -0.445820   -1.536356    0.113477
      6          1           0       -1.812530    1.255762   -0.059296
      7          1           0       -2.717632   -0.419991   -0.039125
      8          1           0        0.481777    1.401753    0.134956
 ---------------------------------------------------------------------

 SCF Done:  E(RB2PLYPD3) =  -191.612745662     A.U. after   13 cycles
 E2(B2PLYPD3) =    -0.2481309583D+00 E(B2PLYPD3) =    -0.19186087662013D+03

 The electronic state is 1-A.
 Alpha  occ. eigenvalues --  -19.72784 -10.71521 -10.66451 -10.64764  -1.18960
 Alpha  occ. eigenvalues --   -0.92694  -0.74993  -0.67406  -0.56205  -0.55855
 Alpha  occ. eigenvalues --   -0.50403  -0.47312  -0.46226  -0.34550  -0.33710
 Alpha virt. eigenvalues --   -0.01914   0.05622   0.07042   0.07834   0.09641
 Alpha virt. eigenvalues --    0.12548   0.13808   0.15190   0.17671   0.19531
 Alpha virt. eigenvalues --    0.20084   0.21218   0.24868   0.26848   0.28798

 Mulliken charges:
               1
     1  C    0.154109
     2  O   -0.353436
     3  C   -0.040835
     4  C   -0.131844
     5  H    0.110247
     6  H    0.090163
     7  H    0.098585
     8  H    0.073011
 Sum of Mulliken charges =   0.00000

 Dipole moment (field-independent basis, Debye):
    X=             -3.5595    Y=              0.7100    Z=              0.1584  Tot=              3.6330
 Quadrupole moment (field-independent basis, Debye-Ang):
   XX=            -27.7407   YY=            -21.6464   ZZ=            -25.3192
   XY=              0.7372   XZ=              0.2797   YZ=             -0.1730

 Normal termination of Gaussian 09 at Wed Aug 26 09:02:16 2020.
