 Gaussian 09, Revision D.01,
 Gaussian 09:  ES64L-G09RevD.01 24-Apr-2013

 --------------------
 #p B2PLYPD3/Def2QZVP
 --------------------

 --------
 acrolein
 --------
 Symbolic Z-matrix:
 Charge =  0 Multiplicity = 1

                         Standard orientation:
 ---------------------------------------------------------------------
 Center     Atomic      Atomic             Coordinates (Angstroms)
 Number     Number       Type             X           Y           Z
 ---------------------------------------------------------------------
      1          6           0       -0.671651    0.341242    0.034525
      2          8           0       -1.767940   -0.123907   -0.051812
      3          6           0        0.513752   -0.428723    0.094486
      4          6           0        1.777465    0.135577   -0.035485
      5          1           0        0.386227   -1.642146   -0.038817
      6          1           0        1.741933    1.166652   -0.078316
      7          1           0        2.786221   -0.404462   -0.112838
      8          1           0       -0.488259    1.582638    0.083312
 ---------------------------------------------------------------------

 SCF Done:  E(RB2PLYPD3) =  -191.580904774     A.U. after   13 cycles
 E2(B2PLYPD3) =    -0.2506294000D+00 E(B2PLYPD3) =    -0.19183153417400D+03

 The electronic state is 1-A.
 Alpha  occ. eigenvalues --  -19.73077 -10.72502 -10.67082 -10.66308  -1.20859
 Alpha  occ. eigenvalues --   -0.92437  -0.75918  -0.64057  -0.56248  -0.55788
 Alpha  occ. eigenvalues --   -0.50434  -0.47827  -0.44871  -0.34101  -0.33682
 Alpha virt. eigenvalues --   -0.02900   0.05612   0.05850   0.08521   0.09758
 Alpha virt. eigenvalues --    0.12161   0.13560   0.15081   0.16599   0.19661
 Alpha virt. eigenvalues --    0.20167   0.21139   0.24653   0.25902   0.29051

 Mulliken charges:
               1
     1  C    0.158958
     2  O   -0.327442
     3  C   -0.030227
     4  C   -0.117427
     5  H    0.091164
     6  H    0.087343
     7  H    0.114860
     8  H    0.022770
 Sum of Mulliken charges =   0.00000

 Dipole moment (field-independent basis, Debye):
    X=              3.5737    Y=              0.5806    Z=             -0.0545  Tot=              3.6210
 Quadrupole moment (field-independent basis, Debye-Ang):
   XX=            -26.5518   YY=            -22.4105   ZZ=            -25.5919
   XY=             -0.9226   XZ=             -0.7067   YZ=              0.1120

 Normal termination of Gaussian 09 at Wed Aug 26 12:31:54 2020.
