 Gaussian 09, Revision D.01,
 Gaussian 09:  ES64L-G09RevD.01 24-Apr-2013

 --------------------
 #p B2PLYPD3/Def2QZVP
 --------------------

 --------
 acrolein
 --------
 Symbolic Z-matrix:
 Charge =  0 Multiplicity = 1

                         Standard orientation:
 ---------------------------------------------------------------------
 Center     Atomic      Atomic             Coordinates (Angstroms)
 Number     Number       Type             X           Y           Z
 ---------------------------------------------------------------------
      1          6           0       -0.678920    0.351831    0.022063
      2          8           0       -1.777385   -0.131154   -0.025569
      3          6           0        0.557004   -0.444544    0.008343
      4          6           0        1.751342    0.137973   -0.011469
      5          1           0        0.461691   -1.499656    0.082407
      6          1           0        1.823648    1.213372   -0.053291
      7          1           0        2.672618   -0.429052   -0.028251
      8          1           0       -0.515435    1.493006    0.090065
 ---------------------------------------------------------------------

 SCF Done:  E(RB2PLYPD3) =  -191.615725974     A.U. after   12 cycles
 E2(B2PLYPD3) =    -0.2468153807D+00 E(B2PLYPD3) =    -0.19186254135509D+03

 The electronic state is 1-A.
 Alpha  occ. eigenvalues --  -19.72976 -10.71980 -10.65216 -10.64028  -1.20256
 Alpha  occ. eigenvalues --   -0.93038  -0.75146  -0.66668  -0.56611  -0.56382
 Alpha  occ. eigenvalues --   -0.50727  -0.47374  -0.46827  -0.34753  -0.33781
 Alpha virt. eigenvalues --   -0.01531   0.05819   0.07109   0.08266   0.09785
 Alpha virt. eigenvalues --    0.12530   0.13885   0.15322   0.17578   0.19716
 Alpha virt. eigenvalues --    0.20032   0.21530   0.25475   0.26413   0.28820

 Mulliken charges:
               1
     1  C    0.155762
     2  O   -0.338621
     3  C   -0.038627
     4  C   -0.130156
     5  H    0.105971
     6  H    0.083009
     7  H    0.101898
     8  H    0.060764
 Sum of Mulliken charges =   0.00000

 Dipole moment (field-independent basis, Debye):
    X=              3.3888    Y=              0.7145    Z=              0.1129  Tot=              3.4651
 Quadrupole moment (field-independent basis, Debye-Ang):
   XX=            -27.2793   YY=            -21.8610   ZZ=            -25.1923
   XY=             -1.0073   XZ=             -0.2275   YZ=             -0.1319

 Normal termination of Gaussian 09 at Wed Aug 26 20:13:46 2020.
