 Gaussian 09, Revision D.01,
 Gaussian 09:  ES64L-G09RevD.01 24-Apr-2013

 --------------------
 #p B2PLYPD3/Def2QZVP
 --------------------

 --------
 acrolein
 --------
 Symbolic Z-matrix:
 Charge =  0 Multiplicity = 1

                         Standard orientation:
 ---------------------------------------------------------------------
 Center     Atomic      Atomic             Coordinates (Angstroms)
 Number     Number       Type             X           Y           Z
 ---------------------------------------------------------------------
      1          6           0        0.675736    0.339661   -0.042475
      2          8           0        1.769698   -0.127560    0.039973
      3          6           0       -0.552593   -0.422298   -0.026701
      4          6           0       -1.744857    0.142061    0.010175
      5          1           0       -0.460994   -1.504608   -0.051537
      6          1           0       -1.769010    1.132704    0.101727
      7          1           0       -2.721059   -0.395566    0.065073
      8          1           0        0.523763    1.431411   -0.081041
 ---------------------------------------------------------------------

 SCF Done:  E(RB2PLYPD3) =  -191.609347659     A.U. after   12 cycles
 E2(B2PLYPD3) =    -0.2456912887D+00 E(B2PLYPD3) =    -0.19185503894776D+03

 The electronic state is 1-A.
 Alpha  occ. eigenvalues --  -19.72784 -10.71133 -10.64588 -10.63824  -1.20692
 Alpha  occ. eigenvalues --   -0.93762  -0.75991  -0.67404  -0.57524  -0.56508
 Alpha  occ. eigenvalues --   -0.50966  -0.47568  -0.46711  -0.34927  -0.33882
 Alpha virt. eigenvalues --   -0.01596   0.05852   0.07236   0.08685   0.09824
 Alpha virt. eigenvalues --    0.12733   0.14211   0.15361   0.17469   0.19698
 Alpha virt. eigenvalues --    0.20335   0.21698   0.25658   0.26355   0.28951

 Mulliken charges:
               1
     1  C    0.146502
     2  O   -0.338439
     3  C   -0.020205
     4  C   -0.133124
     5  H    0.097949
     6  H    0.083689
     7  H    0.101083
     8  H    0.062544
 Sum of Mulliken charges =   0.00000

 Dipole moment (field-independent basis, Debye):
    X=             -3.4056    Y=              0.7560    Z=             -0.0612  Tot=              3.4891
 Quadrupole moment (field-independent basis, Debye-Ang):
   XX=            -27.0002   YY=            -22.0490   ZZ=            -24.9897
   XY=              1.0265   XZ=             -0.4863   YZ=              0.1220

 Normal termination of Gaussian 09 at Wed Aug 26 08:45:49 2020.
