 Gaussian 09, Revision D.01,
 Gaussian 09:  ES64L-G09RevD.01 24-Apr-2013

 --------------------
 #p B2PLYPD3/Def2QZVP
 --------------------

 --------
 acrolein
 --------
 Symbolic Z-matrix:
 Charge =  0 Multiplicity = 1

                         Standard orientation:
 ---------------------------------------------------------------------
 Center     Atomic      Atomic             Coordinates (Angstroms)
 Number     Number       Type             X           Y           Z
 ---------------------------------------------------------------------
      1          6           0       -0.661882    0.360322   -0.024057
      2          8           0       -1.781884   -0.135001    0.029109
      3          6           0        0.546552   -0.441621   -0.049093
      4          6           0        1.733909    0.115196   -0.003905
      5          1           0        0.499713   -1.422246    0.097374
      6          1           0        1.790352    1.303289    0.185169
      7          1           0        2.705184   -0.448773    0.037024
      8          1           0       -0.451648    1.444362   -0.090115
 ---------------------------------------------------------------------

 SCF Done:  E(RB2PLYPD3) =  -191.595058945     A.U. after   13 cycles
 E2(B2PLYPD3) =    -0.2483796944D+00 E(B2PLYPD3) =    -0.19184343863963D+03

 The electronic state is 1-A.
 Alpha  occ. eigenvalues --  -19.72957 -10.71808 -10.66775 -10.62979  -1.18743
 Alpha  occ. eigenvalues --   -0.93939  -0.75089  -0.67701  -0.56537  -0.55882
 Alpha  occ. eigenvalues --   -0.50623  -0.46937  -0.45349  -0.34924  -0.34090
 Alpha virt. eigenvalues --   -0.01961   0.05258   0.07176   0.07914   0.09666
 Alpha virt. eigenvalues --    0.12283   0.13564   0.15292   0.18235   0.18783
 Alpha virt. eigenvalues --    0.20010   0.21129   0.25295   0.26315   0.28930

 Mulliken charges:
               1
     1  C    0.158219
     2  O   -0.355449
     3  C   -0.041005
     4  C   -0.110032
     5  H    0.108860
     6  H    0.062534
     7  H    0.099283
     8  H    0.077591
 Sum of Mulliken charges =   0.00000

 Dipole moment (field-independent basis, Debye):
    X=              3.5424    Y=              0.7266    Z=              0.1448  Tot=              3.6190
 Quadrupole moment (field-independent basis, Debye-Ang):
   XX=            -27.5709   YY=            -21.9239   ZZ=            -25.1425
   XY=             -1.2932   XZ=              0.5767   YZ=              0.0064

 Normal termination of Gaussian 09 at Wed Aug 26 12:35:39 2020.
