 Gaussian 09, Revision D.01,
 Gaussian 09:  ES64L-G09RevD.01 24-Apr-2013

 --------------------
 #p B2PLYPD3/Def2QZVP
 --------------------

 --------
 acrolein
 --------
 Symbolic Z-matrix:
 Charge =  0 Multiplicity = 1

                         Standard orientation:
 ---------------------------------------------------------------------
 Center     Atomic      Atomic             Coordinates (Angstroms)
 Number     Number       Type             X           Y           Z
 ---------------------------------------------------------------------
      1          6           0       -0.674478    0.336704    0.010406
      2          8           0       -1.789658   -0.106778   -0.016795
      3          6           0        0.549293   -0.462672    0.023514
      4          6           0        1.765554    0.137841   -0.026855
      5          1           0        0.479937   -1.528472    0.013389
      6          1           0        1.938305    1.300008   -0.009864
      7          1           0        2.611298   -0.419143    0.022230
      8          1           0       -0.554493    1.430589    0.066211
 ---------------------------------------------------------------------

 SCF Done:  E(RB2PLYPD3) =  -191.606968092     A.U. after   12 cycles
 E2(B2PLYPD3) =    -0.2471300740D+00 E(B2PLYPD3) =    -0.19185409816554D+03

 The electronic state is 1-A.
 Alpha  occ. eigenvalues --  -19.72528 -10.71182 -10.66074 -10.64708  -1.20000
 Alpha  occ. eigenvalues --   -0.92546  -0.75808  -0.66807  -0.56833  -0.56233
 Alpha  occ. eigenvalues --   -0.50557  -0.46972  -0.46839  -0.34360  -0.33683
 Alpha virt. eigenvalues --   -0.01967   0.05645   0.07188   0.08363   0.09537
 Alpha virt. eigenvalues --    0.12373   0.14206   0.15418   0.17652   0.19243
 Alpha virt. eigenvalues --    0.19994   0.21859   0.25238   0.26249   0.28514

 Mulliken charges:
               1
     1  C    0.157422
     2  O   -0.342675
     3  C   -0.051301
     4  C   -0.125385
     5  H    0.106285
     6  H    0.081121
     7  H    0.104493
     8  H    0.070039
 Sum of Mulliken charges =   0.00000

 Dipole moment (field-independent basis, Debye):
    X=              3.5246    Y=              0.6710    Z=              0.0920  Tot=              3.5891
 Quadrupole moment (field-independent basis, Debye-Ang):
   XX=            -27.3360   YY=            -21.6491   ZZ=            -25.2761
   XY=             -0.8651   XZ=             -0.0471   YZ=             -0.0034

 Normal termination of Gaussian 09 at Wed Aug 26 09:01:40 2020.
