 Gaussian 09, Revision D.01,
 Gaussian 09:  ES64L-G09RevD.01 24-Apr-2013

 --------------------
 #p B2PLYPD3/Def2QZVP
 --------------------

 --------
 acrolein
 --------
 Symbolic Z-matrix:
 Charge =  0 Multiplicity = 1

                         Standard orientation:
 ---------------------------------------------------------------------
 Center     Atomic      Atomic             Coordinates (Angstroms)
 Number     Number       Type             X           Y           Z
 ---------------------------------------------------------------------
      1          6           0       -0.671551    0.323799    0.020697
      2          8           0       -1.791593   -0.081777   -0.055627
      3          6           0        0.566114   -0.484898    0.032780
      4          6           0        1.784365    0.136306   -0.016152
      5          1           0        0.424460   -1.536060    0.162122
      6          1           0        1.984097    1.406048   -0.104271
      7          1           0        2.518112   -0.375014   -0.127228
      8          1           0       -0.667494    1.308005    0.290445
 ---------------------------------------------------------------------

 SCF Done:  E(RB2PLYPD3) =  -191.550805087     A.U. after   13 cycles
 E2(B2PLYPD3) =    -0.2470714625D+00 E(B2PLYPD3) =    -0.19179787654934D+03

 The electronic state is 1-A.
 Alpha  occ. eigenvalues --  -19.72161 -10.70022 -10.65994 -10.65248  -1.20364
 Alpha  occ. eigenvalues --   -0.92471  -0.76950  -0.67823  -0.57684  -0.56053
 Alpha  occ. eigenvalues --   -0.50975  -0.47093  -0.45924  -0.34428  -0.33102
 Alpha virt. eigenvalues --   -0.01908   0.05206   0.07180   0.07991   0.09351
 Alpha virt. eigenvalues --    0.12097   0.14320   0.15160   0.17789   0.18834
 Alpha virt. eigenvalues --    0.19874   0.22180   0.24411   0.26554   0.28576

 Mulliken charges:
               1
     1  C    0.164206
     2  O   -0.342532
     3  C   -0.069832
     4  C   -0.150622
     5  H    0.111142
     6  H    0.081433
     7  H    0.128981
     8  H    0.077225
 Sum of Mulliken charges =   0.00000

 Dipole moment (field-independent basis, Debye):
    X=              3.4281    Y=              0.6078    Z=              0.2127  Tot=              3.4881
 Quadrupole moment (field-independent basis, Debye-Ang):
   XX=            -27.4996   YY=            -21.4917   ZZ=            -25.1657
   XY=             -0.7554   XZ=             -0.7657   YZ=             -0.2231

 Normal termination of Gaussian 09 at Wed Aug 26 11:16:24 2020.
