 Gaussian 09, Revision D.01,
 Gaussian 09:  ES64L-G09RevD.01 24-Apr-2013

 --------------------
 #p B2PLYPD3/Def2QZVP
 --------------------

 --------
 acrolein
 --------
 Symbolic Z-matrix:
 Charge =  0 Multiplicity = 1

                         Standard orientation:
 ---------------------------------------------------------------------
 Center     Atomic      Atomic             Coordinates (Angstroms)
 Number     Number       Type             X           Y           Z
 ---------------------------------------------------------------------
      1          6           0       -0.673082    0.332287    0.014792
      2          8           0       -1.798887   -0.102331   -0.037321
      3          6           0        0.560576   -0.471435    0.060253
      4          6           0        1.776352    0.155727   -0.040478
      5          1           0        0.416068   -1.608364    0.060327
      6          1           0        1.827359    1.247935    0.041528
      7          1           0        2.673640   -0.397930   -0.111551
      8          1           0       -0.509050    1.477535    0.100860
 ---------------------------------------------------------------------

 SCF Done:  E(RB2PLYPD3) =  -191.608267182     A.U. after   13 cycles
 E2(B2PLYPD3) =    -0.2488469733D+00 E(B2PLYPD3) =    -0.19185711415559D+03

 The electronic state is 1-A.
 Alpha  occ. eigenvalues --  -19.72898 -10.72091 -10.66249 -10.65860  -1.19696
 Alpha  occ. eigenvalues --   -0.92150  -0.75443  -0.65538  -0.56488  -0.55694
 Alpha  occ. eigenvalues --   -0.50365  -0.47276  -0.46504  -0.34220  -0.33615
 Alpha virt. eigenvalues --   -0.02260   0.05757   0.06719   0.08071   0.09662
 Alpha virt. eigenvalues --    0.12444   0.13909   0.15317   0.16888   0.19868
 Alpha virt. eigenvalues --    0.19992   0.21507   0.24700   0.26283   0.28682

 Mulliken charges:
               1
     1  C    0.163454
     2  O   -0.342293
     3  C   -0.041572
     4  C   -0.129696
     5  H    0.099982
     6  H    0.090617
     7  H    0.108745
     8  H    0.050763
 Sum of Mulliken charges =   0.00000

 Dipole moment (field-independent basis, Debye):
    X=              3.5447    Y=              0.6241    Z=              0.1119  Tot=              3.6010
 Quadrupole moment (field-independent basis, Debye-Ang):
   XX=            -27.3899   YY=            -21.8100   ZZ=            -25.4600
   XY=             -0.7252   XZ=             -0.3918   YZ=              0.0953

 Normal termination of Gaussian 09 at Wed Aug 26 20:48:23 2020.
