 Gaussian 09, Revision D.01,
 Gaussian 09:  ES64L-G09RevD.01 24-Apr-2013

 --------------------
 #p B2PLYPD3/Def2QZVP
 --------------------

 --------
 acrolein
 --------
 Symbolic Z-matrix:
 Charge =  0 Multiplicity = 1

                         Standard orientation:
 ---------------------------------------------------------------------
 Center     Atomic      Atomic             Coordinates (Angstroms)
 Number     Number       Type             X           Y           Z
 ---------------------------------------------------------------------
      1          6           0        0.669972    0.348945    0.010279
      2          8           0        1.795147   -0.115861   -0.007852
      3          6           0       -0.581857   -0.467803    0.014950
      4          6           0       -1.752924    0.148752   -0.010780
      5          1           0       -0.444754   -1.530653   -0.023505
      6          1           0       -1.840566    1.231224   -0.010830
      7          1           0       -2.618965   -0.387501    0.008155
      8          1           0        0.531964    1.434460    0.002304
 ---------------------------------------------------------------------

 SCF Done:  E(RB2PLYPD3) =  -191.613777139     A.U. after   12 cycles
 E2(B2PLYPD3) =    -0.2468305187D+00 E(B2PLYPD3) =    -0.19186060765725D+03

 The electronic state is 1-A.
 Alpha  occ. eigenvalues --  -19.72797 -10.71625 -10.64621 -10.64400  -1.19043
 Alpha  occ. eigenvalues --   -0.93167  -0.75583  -0.67301  -0.57039  -0.56403
 Alpha  occ. eigenvalues --   -0.50738  -0.47424  -0.46372  -0.34852  -0.33716
 Alpha virt. eigenvalues --   -0.01499   0.05838   0.07324   0.07925   0.09730
 Alpha virt. eigenvalues --    0.12687   0.14084   0.15343   0.17418   0.19798
 Alpha virt. eigenvalues --    0.19994   0.21950   0.25392   0.26529   0.28681

 Mulliken charges:
               1
     1  C    0.156194
     2  O   -0.352315
     3  C   -0.046455
     4  C   -0.127885
     5  H    0.107712
     6  H    0.085049
     7  H    0.101952
     8  H    0.075749
 Sum of Mulliken charges =   0.00000

 Dipole moment (field-independent basis, Debye):
    X=             -3.4894    Y=              0.7635    Z=              0.0057  Tot=              3.5719
 Quadrupole moment (field-independent basis, Debye-Ang):
   XX=            -27.6018   YY=            -21.5840   ZZ=            -25.1477
   XY=              0.8503   XZ=              0.0483   YZ=              0.0265

 Normal termination of Gaussian 09 at Wed Aug 26 16:39:27 2020.
