 Gaussian 09, Revision D.01,
 Gaussian 09:  ES64L-G09RevD.01 24-Apr-2013

 --------------------
 #p B2PLYPD3/Def2QZVP
 --------------------

 --------
 acrolein
 --------
 Symbolic Z-matrix:
 Charge =  0 Multiplicity = 1

                         Standard orientation:
 ---------------------------------------------------------------------
 Center     Atomic      Atomic             Coordinates (Angstroms)
 Number     Number       Type             X           Y           Z
 ---------------------------------------------------------------------
      1          6           0        0.672900    0.361861    0.021485
      2          8           0        1.770527   -0.148118   -0.053980
      3          6           0       -0.537018   -0.394842    0.098971
      4          6           0       -1.747945    0.123289   -0.057512
      5          1           0       -0.395164   -1.464500    0.066392
      6          1           0       -1.867959    1.113777    0.031052
      7          1           0       -2.787953   -0.479141   -0.149977
      8          1           0        0.559241    1.472960    0.106713
 ---------------------------------------------------------------------

 SCF Done:  E(RB2PLYPD3) =  -191.598456917     A.U. after   13 cycles
 E2(B2PLYPD3) =    -0.2476442857D+00 E(B2PLYPD3) =    -0.19184610120313D+03

 The electronic state is 1-A.
 Alpha  occ. eigenvalues --  -19.72778 -10.71506 -10.65943 -10.64000  -1.19524
 Alpha  occ. eigenvalues --   -0.93640  -0.76058  -0.67264  -0.57546  -0.55533
 Alpha  occ. eigenvalues --   -0.50255  -0.47132  -0.45875  -0.34771  -0.33992
 Alpha virt. eigenvalues --   -0.02167   0.05395   0.07105   0.08426   0.09813
 Alpha virt. eigenvalues --    0.12086   0.13877   0.15269   0.17641   0.19665
 Alpha virt. eigenvalues --    0.20425   0.21079   0.24676   0.26431   0.28630

 Mulliken charges:
               1
     1  C    0.156288
     2  O   -0.351572
     3  C   -0.033806
     4  C   -0.123350
     5  H    0.106782
     6  H    0.089018
     7  H    0.092167
     8  H    0.064473
 Sum of Mulliken charges =   0.00000

 Dipole moment (field-independent basis, Debye):
    X=             -3.5146    Y=              0.8670    Z=              0.1320  Tot=              3.6224
 Quadrupole moment (field-independent basis, Debye-Ang):
   XX=            -26.9834   YY=            -22.0861   ZZ=            -25.1404
   XY=              1.0249   XZ=              0.5629   YZ=              0.1312

 Normal termination of Gaussian 09 at Wed Aug 26 12:14:51 2020.
