 Gaussian 09, Revision D.01,
 Gaussian 09:  ES64L-G09RevD.01 24-Apr-2013

 --------------------
 #p B2PLYPD3/Def2QZVP
 --------------------

 --------
 acrolein
 --------
 Symbolic Z-matrix:
 Charge =  0 Multiplicity = 1

                         Standard orientation:
 ---------------------------------------------------------------------
 Center     Atomic      Atomic             Coordinates (Angstroms)
 Number     Number       Type             X           Y           Z
 ---------------------------------------------------------------------
      1          6           0        0.669868    0.350517   -0.036454
      2          8           0        1.776944   -0.112107    0.025940
      3          6           0       -0.560243   -0.466184   -0.038218
      4          6           0       -1.713607    0.144290   -0.016153
      5          1           0       -0.501696   -1.471626    0.079524
      6          1           0       -1.917339    1.256567    0.089848
      7          1           0       -2.671291   -0.411193    0.122533
      8          1           0        0.498664    1.351375    0.045531
 ---------------------------------------------------------------------

 SCF Done:  E(RB2PLYPD3) =  -191.602147116     A.U. after   13 cycles
 E2(B2PLYPD3) =    -0.2457155019D+00 E(B2PLYPD3) =    -0.19184786261752D+03

 The electronic state is 1-A.
 Alpha  occ. eigenvalues --  -19.72574 -10.70502 -10.65594 -10.63250  -1.19951
 Alpha  occ. eigenvalues --   -0.93622  -0.75240  -0.68698  -0.57212  -0.56364
 Alpha  occ. eigenvalues --   -0.51294  -0.46997  -0.45761  -0.35133  -0.33771
 Alpha virt. eigenvalues --   -0.01139   0.05601   0.07393   0.08107   0.09536
 Alpha virt. eigenvalues --    0.12702   0.14321   0.15310   0.18116   0.19573
 Alpha virt. eigenvalues --    0.19894   0.21380   0.25340   0.26981   0.28183

 Mulliken charges:
               1
     1  C    0.156855
     2  O   -0.348344
     3  C   -0.052579
     4  C   -0.114308
     5  H    0.113649
     6  H    0.075479
     7  H    0.080978
     8  H    0.088270
 Sum of Mulliken charges =   0.00000

 Dipole moment (field-independent basis, Debye):
    X=             -3.4015    Y=              0.8101    Z=              0.1661  Tot=              3.5005
 Quadrupole moment (field-independent basis, Debye-Ang):
   XX=            -27.5666   YY=            -21.6525   ZZ=            -24.9588
   XY=              0.7462   XZ=             -0.6178   YZ=             -0.0634

 Normal termination of Gaussian 09 at Wed Aug 26 12:42:13 2020.
