 Gaussian 09, Revision D.01,
 Gaussian 09:  ES64L-G09RevD.01 24-Apr-2013

 --------------------
 #p B2PLYPD3/Def2QZVP
 --------------------

 --------
 acrolein
 --------
 Symbolic Z-matrix:
 Charge =  0 Multiplicity = 1

                         Standard orientation:
 ---------------------------------------------------------------------
 Center     Atomic      Atomic             Coordinates (Angstroms)
 Number     Number       Type             X           Y           Z
 ---------------------------------------------------------------------
      1          6           0       -0.624497    0.287911   -0.051559
      2          8           0       -1.811490   -0.072705    0.060546
      3          6           0        0.569374   -0.457587   -0.080683
      4          6           0        1.738999    0.148606    0.009053
      5          1           0        0.383375   -1.621045    0.024505
      6          1           0        1.821449    1.350394    0.133997
      7          1           0        2.665470   -0.422293    0.209182
      8          1           0       -0.481630    1.401006   -0.112915
 ---------------------------------------------------------------------

 SCF Done:  E(RB2PLYPD3) =  -191.589729254     A.U. after   13 cycles
 E2(B2PLYPD3) =    -0.2507576341D+00 E(B2PLYPD3) =    -0.19184048688819D+03

 The electronic state is 1-A.
 Alpha  occ. eigenvalues --  -19.72551 -10.71448 -10.67863 -10.65622  -1.17213
 Alpha  occ. eigenvalues --   -0.94417  -0.76261  -0.65126  -0.56765  -0.55029
 Alpha  occ. eigenvalues --   -0.49476  -0.46119  -0.45164  -0.35254  -0.33545
 Alpha virt. eigenvalues --   -0.02899   0.05083   0.06141   0.08453   0.09637
 Alpha virt. eigenvalues --    0.12250   0.13586   0.15052   0.16917   0.19058
 Alpha virt. eigenvalues --    0.19741   0.21435   0.24632   0.26667   0.28539

 Mulliken charges:
               1
     1  C    0.162267
     2  O   -0.369995
     3  C   -0.021521
     4  C   -0.101650
     5  H    0.094467
     6  H    0.083979
     7  H    0.107625
     8  H    0.044828
 Sum of Mulliken charges =   0.00000

 Dipole moment (field-independent basis, Debye):
    X=              3.9478    Y=              0.5154    Z=              0.0743  Tot=              3.9820
 Quadrupole moment (field-independent basis, Debye-Ang):
   XX=            -27.8138   YY=            -21.8949   ZZ=            -25.3483
   XY=             -0.5167   XZ=              1.0425   YZ=             -0.0340

 Normal termination of Gaussian 09 at Wed Aug 26 11:54:51 2020.
