 Gaussian 09, Revision D.01,
 Gaussian 09:  ES64L-G09RevD.01 24-Apr-2013

 --------------------
 #p B2PLYPD3/Def2QZVP
 --------------------

 --------
 acrolein
 --------
 Symbolic Z-matrix:
 Charge =  0 Multiplicity = 1

                         Standard orientation:
 ---------------------------------------------------------------------
 Center     Atomic      Atomic             Coordinates (Angstroms)
 Number     Number       Type             X           Y           Z
 ---------------------------------------------------------------------
      1          6           0       -0.672566    0.333019    0.083872
      2          8           0       -1.789493   -0.090356   -0.081101
      3          6           0        0.592334   -0.524588    0.027671
      4          6           0        1.753202    0.168228   -0.066334
      5          1           0        0.387910   -1.573682    0.230092
      6          1           0        1.872521    1.260196   -0.056074
      7          1           0        2.555178   -0.314267   -0.031689
      8          1           0       -0.537479    1.490651    0.235225
 ---------------------------------------------------------------------

 SCF Done:  E(RB2PLYPD3) =  -191.586116852     A.U. after   13 cycles
 E2(B2PLYPD3) =    -0.2479081121D+00 E(B2PLYPD3) =    -0.19183402496379D+03

 The electronic state is 1-A.
 Alpha  occ. eigenvalues --  -19.72920 -10.72267 -10.65617 -10.64274  -1.19786
 Alpha  occ. eigenvalues --   -0.92378  -0.75716  -0.65979  -0.57346  -0.55630
 Alpha  occ. eigenvalues --   -0.51040  -0.48093  -0.46229  -0.34395  -0.33162
 Alpha virt. eigenvalues --   -0.01387   0.05864   0.06741   0.07746   0.09483
 Alpha virt. eigenvalues --    0.12675   0.14129   0.15056   0.17136   0.19563
 Alpha virt. eigenvalues --    0.20090   0.22240   0.24460   0.26635   0.28619

 Mulliken charges:
               1
     1  C    0.154458
     2  O   -0.336274
     3  C   -0.051164
     4  C   -0.129831
     5  H    0.109912
     6  H    0.088152
     7  H    0.105601
     8  H    0.059146
 Sum of Mulliken charges =   0.00000

 Dipole moment (field-independent basis, Debye):
    X=              3.3739    Y=              0.6036    Z=              0.4791  Tot=              3.4608
 Quadrupole moment (field-independent basis, Debye-Ang):
   XX=            -27.5342   YY=            -21.5540   ZZ=            -25.2671
   XY=             -0.3436   XZ=             -0.4498   YZ=             -0.3425

 Normal termination of Gaussian 09 at Wed Aug 26 11:50:38 2020.
