 Gaussian 09, Revision D.01,
 Gaussian 09:  ES64L-G09RevD.01 24-Apr-2013

 --------------------
 #p B2PLYPD3/Def2QZVP
 --------------------

 --------
 acrolein
 --------
 Symbolic Z-matrix:
 Charge =  0 Multiplicity = 1

                         Standard orientation:
 ---------------------------------------------------------------------
 Center     Atomic      Atomic             Coordinates (Angstroms)
 Number     Number       Type             X           Y           Z
 ---------------------------------------------------------------------
      1          6           0       -0.674309    0.354750    0.000628
      2          8           0       -1.778863   -0.128212   -0.009076
      3          6           0        0.545663   -0.442250    0.001951
      4          6           0        1.756193    0.128218    0.001692
      5          1           0        0.450293   -1.504890    0.032547
      6          1           0        1.834219    1.222910   -0.065149
      7          1           0        2.677331   -0.419158   -0.002051
      8          1           0       -0.496222    1.482517    0.081632
 ---------------------------------------------------------------------

 SCF Done:  E(RB2PLYPD3) =  -191.615309352     A.U. after   12 cycles
 E2(B2PLYPD3) =    -0.2472890671D+00 E(B2PLYPD3) =    -0.19186259841919D+03

 The electronic state is 1-A.
 Alpha  occ. eigenvalues --  -19.72916 -10.71857 -10.65583 -10.64170  -1.19946
 Alpha  occ. eigenvalues --   -0.92964  -0.75481  -0.66660  -0.56749  -0.56199
 Alpha  occ. eigenvalues --   -0.50724  -0.47102  -0.46711  -0.34596  -0.33887
 Alpha virt. eigenvalues --   -0.01843   0.05755   0.07147   0.08249   0.09766
 Alpha virt. eigenvalues --    0.12509   0.14001   0.15369   0.17526   0.19596
 Alpha virt. eigenvalues --    0.20072   0.21533   0.25404   0.26442   0.28828

 Mulliken charges:
               1
     1  C    0.157114
     2  O   -0.342890
     3  C   -0.038265
     4  C   -0.128613
     5  H    0.106312
     6  H    0.078836
     7  H    0.103858
     8  H    0.063649
 Sum of Mulliken charges =   0.00000

 Dipole moment (field-independent basis, Debye):
    X=              3.4637    Y=              0.7172    Z=              0.0197  Tot=              3.5373
 Quadrupole moment (field-independent basis, Debye-Ang):
   XX=            -27.2315   YY=            -21.8808   ZZ=            -25.2231
   XY=             -0.9896   XZ=             -0.1356   YZ=             -0.0909

 Normal termination of Gaussian 09 at Wed Aug 26 18:34:45 2020.
