 Gaussian 09, Revision D.01,
 Gaussian 09:  ES64L-G09RevD.01 24-Apr-2013

 --------------------
 #p B2PLYPD3/Def2QZVP
 --------------------

 --------
 acrolein
 --------
 Symbolic Z-matrix:
 Charge =  0 Multiplicity = 1

                         Standard orientation:
 ---------------------------------------------------------------------
 Center     Atomic      Atomic             Coordinates (Angstroms)
 Number     Number       Type             X           Y           Z
 ---------------------------------------------------------------------
      1          6           0       -0.644697    0.323149   -0.042942
      2          8           0       -1.798464   -0.098670    0.033879
      3          6           0        0.580821   -0.472767   -0.042385
      4          6           0        1.739770    0.160605    0.011319
      5          1           0        0.451232   -1.512800    0.017472
      6          1           0        1.833371    1.269367    0.026978
      7          1           0        2.610513   -0.409370    0.115304
      8          1           0       -0.562769    1.376238    0.013263
 ---------------------------------------------------------------------

 SCF Done:  E(RB2PLYPD3) =  -191.609709195     A.U. after   12 cycles
 E2(B2PLYPD3) =    -0.2473133223D+00 E(B2PLYPD3) =    -0.19185702251728D+03

 The electronic state is 1-A.
 Alpha  occ. eigenvalues --  -19.72328 -10.70855 -10.65510 -10.64246  -1.18016
 Alpha  occ. eigenvalues --   -0.93850  -0.75890  -0.67896  -0.57110  -0.56484
 Alpha  occ. eigenvalues --   -0.50143  -0.47565  -0.45981  -0.34962  -0.33556
 Alpha virt. eigenvalues --   -0.01869   0.05705   0.07243   0.08039   0.09692
 Alpha virt. eigenvalues --    0.12661   0.13996   0.15217   0.17666   0.19516
 Alpha virt. eigenvalues --    0.20032   0.21862   0.25060   0.26708   0.28909

 Mulliken charges:
               1
     1  C    0.152990
     2  O   -0.366081
     3  C   -0.039629
     4  C   -0.123585
     5  H    0.110574
     6  H    0.092011
     7  H    0.100372
     8  H    0.073348
 Sum of Mulliken charges =   0.00000

 Dipole moment (field-independent basis, Debye):
    X=              3.7005    Y=              0.7053    Z=              0.0186  Tot=              3.7671
 Quadrupole moment (field-independent basis, Debye-Ang):
   XX=            -27.8295   YY=            -21.5050   ZZ=            -25.0904
   XY=             -0.8175   XZ=              0.4894   YZ=             -0.0589

 Normal termination of Gaussian 09 at Wed Aug 26 08:53:10 2020.
