 Gaussian 09, Revision D.01,
 Gaussian 09:  ES64L-G09RevD.01 24-Apr-2013

 --------------------
 #p B2PLYPD3/Def2QZVP
 --------------------

 --------
 acrolein
 --------
 Symbolic Z-matrix:
 Charge =  0 Multiplicity = 1

                         Standard orientation:
 ---------------------------------------------------------------------
 Center     Atomic      Atomic             Coordinates (Angstroms)
 Number     Number       Type             X           Y           Z
 ---------------------------------------------------------------------
      1          6           0        0.689395    0.360147   -0.048091
      2          8           0        1.776932   -0.139954    0.037593
      3          6           0       -0.548054   -0.445033   -0.009040
      4          6           0       -1.762850    0.148332    0.018822
      5          1           0       -0.438652   -1.475788   -0.061748
      6          1           0       -1.822088    1.172296    0.130576
      7          1           0       -2.762015   -0.465347   -0.036276
      8          1           0        0.536348    1.507793   -0.103437
 ---------------------------------------------------------------------

 SCF Done:  E(RB2PLYPD3) =  -191.605685690     A.U. after   13 cycles
 E2(B2PLYPD3) =    -0.2475435591D+00 E(B2PLYPD3) =    -0.19185322924938D+03

 The electronic state is 1-A.
 Alpha  occ. eigenvalues --  -19.73017 -10.72116 -10.65968 -10.64173  -1.20384
 Alpha  occ. eigenvalues --   -0.92426  -0.74752  -0.67147  -0.56656  -0.55699
 Alpha  occ. eigenvalues --   -0.50301  -0.47329  -0.47165  -0.34303  -0.33754
 Alpha virt. eigenvalues --   -0.01781   0.05631   0.07125   0.08026   0.09811
 Alpha virt. eigenvalues --    0.12217   0.13741   0.15399   0.17656   0.19698
 Alpha virt. eigenvalues --    0.20202   0.21126   0.25107   0.26262   0.28916

 Mulliken charges:
               1
     1  C    0.155040
     2  O   -0.337867
     3  C   -0.043108
     4  C   -0.137798
     5  H    0.112285
     6  H    0.092242
     7  H    0.096241
     8  H    0.062964
 Sum of Mulliken charges =   0.00000

 Dipole moment (field-independent basis, Debye):
    X=             -3.3167    Y=              0.7713    Z=             -0.1426  Tot=              3.4082
 Quadrupole moment (field-independent basis, Debye-Ang):
   XX=            -27.2946   YY=            -21.8528   ZZ=            -25.3091
   XY=              1.0465   XZ=             -0.2543   YZ=              0.2368

 Normal termination of Gaussian 09 at Wed Aug 26 09:16:53 2020.
