 Gaussian 09, Revision D.01,
 Gaussian 09:  ES64L-G09RevD.01 24-Apr-2013

 --------------------
 #p B2PLYPD3/Def2QZVP
 --------------------

 --------
 acrolein
 --------
 Symbolic Z-matrix:
 Charge =  0 Multiplicity = 1

                         Standard orientation:
 ---------------------------------------------------------------------
 Center     Atomic      Atomic             Coordinates (Angstroms)
 Number     Number       Type             X           Y           Z
 ---------------------------------------------------------------------
      1          6           0        0.657186    0.342481    0.022571
      2          8           0        1.800994   -0.102907   -0.033169
      3          6           0       -0.583152   -0.482321    0.026133
      4          6           0       -1.744424    0.157233   -0.019305
      5          1           0       -0.438086   -1.571644    0.045187
      6          1           0       -1.830508    1.232103   -0.118371
      7          1           0       -2.582907   -0.381811   -0.001919
      8          1           0        0.465887    1.440246    0.164058
 ---------------------------------------------------------------------

 SCF Done:  E(RB2PLYPD3) =  -191.608208218     A.U. after   13 cycles
 E2(B2PLYPD3) =    -0.2479221045D+00 E(B2PLYPD3) =    -0.19185613032222D+03

 The electronic state is 1-A.
 Alpha  occ. eigenvalues --  -19.72899 -10.72009 -10.64838 -10.64494  -1.18361
 Alpha  occ. eigenvalues --   -0.93420  -0.75857  -0.66717  -0.57117  -0.56035
 Alpha  occ. eigenvalues --   -0.50486  -0.47619  -0.46002  -0.34844  -0.33697
 Alpha virt. eigenvalues --   -0.01725   0.05828   0.07031   0.07716   0.09729
 Alpha virt. eigenvalues --    0.12822   0.14005   0.15283   0.17085   0.19466
 Alpha virt. eigenvalues --    0.20308   0.22064   0.24966   0.26738   0.28444

 Mulliken charges:
               1
     1  C    0.158358
     2  O   -0.357167
     3  C   -0.043072
     4  C   -0.126229
     5  H    0.106192
     6  H    0.088966
     7  H    0.102334
     8  H    0.070618
 Sum of Mulliken charges =   0.00000

 Dipole moment (field-independent basis, Debye):
    X=             -3.5916    Y=              0.6873    Z=              0.0940  Tot=              3.6580
 Quadrupole moment (field-independent basis, Debye-Ang):
   XX=            -27.8085   YY=            -21.5356   ZZ=            -25.1838
   XY=              0.6392   XZ=              0.3454   YZ=             -0.1334

 Normal termination of Gaussian 09 at Wed Aug 26 08:58:46 2020.
