 Gaussian 09, Revision D.01,
 Gaussian 09:  ES64L-G09RevD.01 24-Apr-2013

 --------------------
 #p B2PLYPD3/Def2QZVP
 --------------------

 --------
 acrolein
 --------
 Symbolic Z-matrix:
 Charge =  0 Multiplicity = 1

                         Standard orientation:
 ---------------------------------------------------------------------
 Center     Atomic      Atomic             Coordinates (Angstroms)
 Number     Number       Type             X           Y           Z
 ---------------------------------------------------------------------
      1          6           0       -0.653143    0.352403   -0.002862
      2          8           0       -1.777714   -0.132623    0.032866
      3          6           0        0.559905   -0.435805   -0.051800
      4          6           0        1.749561    0.164685    0.001502
      5          1           0        0.486541   -1.566365   -0.104764
      6          1           0        1.731505    1.138720   -0.040819
      7          1           0        2.622969   -0.447029    0.266791
      8          1           0       -0.557243    1.447954   -0.065172
 ---------------------------------------------------------------------

 SCF Done:  E(RB2PLYPD3) =  -191.599177016     A.U. after   13 cycles
 E2(B2PLYPD3) =    -0.2479613570D+00 E(B2PLYPD3) =    -0.19184713837333D+03

 The electronic state is 1-A.
 Alpha  occ. eigenvalues --  -19.72549 -10.71506 -10.64762 -10.64537  -1.18548
 Alpha  occ. eigenvalues --   -0.93874  -0.75941  -0.67200  -0.58005  -0.55728
 Alpha  occ. eigenvalues --   -0.49803  -0.47752  -0.46066  -0.34587  -0.33686
 Alpha virt. eigenvalues --   -0.02190   0.05857   0.06713   0.08052   0.09892
 Alpha virt. eigenvalues --    0.12540   0.13974   0.15323   0.17040   0.19375
 Alpha virt. eigenvalues --    0.20554   0.21921   0.25216   0.26268   0.29098

 Mulliken charges:
               1
     1  C    0.137883
     2  O   -0.356256
     3  C   -0.019114
     4  C   -0.136400
     5  H    0.099642
     6  H    0.091772
     7  H    0.107629
     8  H    0.074844
 Sum of Mulliken charges =   0.00000

 Dipole moment (field-independent basis, Debye):
    X=              3.5463    Y=              0.8031    Z=              0.0088  Tot=              3.6361
 Quadrupole moment (field-independent basis, Debye-Ang):
   XX=            -27.8387   YY=            -21.6056   ZZ=            -25.0757
   XY=             -1.2971   XZ=              0.7255   YZ=             -0.1164

 Normal termination of Gaussian 09 at Wed Aug 26 14:13:44 2020.
