 Gaussian 09, Revision D.01,
 Gaussian 09:  ES64L-G09RevD.01 24-Apr-2013

 --------------------
 #p B2PLYPD3/Def2QZVP
 --------------------

 --------
 acrolein
 --------
 Symbolic Z-matrix:
 Charge =  0 Multiplicity = 1

                         Standard orientation:
 ---------------------------------------------------------------------
 Center     Atomic      Atomic             Coordinates (Angstroms)
 Number     Number       Type             X           Y           Z
 ---------------------------------------------------------------------
      1          6           0        0.659855    0.346854    0.049605
      2          8           0        1.793562   -0.117280   -0.043845
      3          6           0       -0.575563   -0.447538    0.015133
      4          6           0       -1.747783    0.156577   -0.040544
      5          1           0       -0.455852   -1.608904    0.126480
      6          1           0       -1.796023    1.226272   -0.014707
      7          1           0       -2.648986   -0.424041   -0.012887
      8          1           0        0.533309    1.409556    0.106713
 ---------------------------------------------------------------------

 SCF Done:  E(RB2PLYPD3) =  -191.609163494     A.U. after   12 cycles
 E2(B2PLYPD3) =    -0.2479572954D+00 E(B2PLYPD3) =    -0.19185712078913D+03

 The electronic state is 1-A.
 Alpha  occ. eigenvalues --  -19.72742 -10.71465 -10.65217 -10.65069  -1.18384
 Alpha  occ. eigenvalues --   -0.93415  -0.75729  -0.66606  -0.56816  -0.56241
 Alpha  occ. eigenvalues --   -0.50258  -0.46654  -0.45705  -0.34898  -0.33933
 Alpha virt. eigenvalues --   -0.01831   0.05792   0.06565   0.08081   0.09704
 Alpha virt. eigenvalues --    0.12624   0.14066   0.15185   0.17079   0.19792
 Alpha virt. eigenvalues --    0.20035   0.21744   0.25319   0.26557   0.29006

 Mulliken charges:
               1
     1  C    0.152457
     2  O   -0.356844
     3  C   -0.028911
     4  C   -0.129971
     5  H    0.093908
     6  H    0.086048
     7  H    0.105665
     8  H    0.077648
 Sum of Mulliken charges =   0.00000

 Dipole moment (field-independent basis, Debye):
    X=             -3.5625    Y=              0.8125    Z=              0.2839  Tot=              3.6649
 Quadrupole moment (field-independent basis, Debye-Ang):
   XX=            -27.7733   YY=            -21.5698   ZZ=            -25.2360
   XY=              0.9959   XZ=              0.1944   YZ=             -0.1426

 Normal termination of Gaussian 09 at Wed Aug 26 21:04:04 2020.
