 Gaussian 09, Revision D.01,
 Gaussian 09:  ES64L-G09RevD.01 24-Apr-2013

 --------------------
 #p B2PLYPD3/Def2QZVP
 --------------------

 --------
 acrolein
 --------
 Symbolic Z-matrix:
 Charge =  0 Multiplicity = 1

                         Standard orientation:
 ---------------------------------------------------------------------
 Center     Atomic      Atomic             Coordinates (Angstroms)
 Number     Number       Type             X           Y           Z
 ---------------------------------------------------------------------
      1          6           0        0.661960    0.336364    0.013953
      2          8           0        1.802639   -0.107305   -0.018130
      3          6           0       -0.564287   -0.455474    0.012846
      4          6           0       -1.757157    0.140745   -0.019964
      5          1           0       -0.434853   -1.535991    0.049258
      6          1           0       -1.847426    1.250077   -0.012867
      7          1           0       -2.653209   -0.421385   -0.001545
      8          1           0        0.471283    1.435925    0.069179
 ---------------------------------------------------------------------

 SCF Done:  E(RB2PLYPD3) =  -191.614696699     A.U. after   12 cycles
 E2(B2PLYPD3) =    -0.2480823228D+00 E(B2PLYPD3) =    -0.19186277902142D+03

 The electronic state is 1-A.
 Alpha  occ. eigenvalues --  -19.72887 -10.71761 -10.65823 -10.64615  -1.18670
 Alpha  occ. eigenvalues --   -0.93298  -0.75881  -0.66657  -0.56775  -0.55951
 Alpha  occ. eigenvalues --   -0.50499  -0.46988  -0.46322  -0.34790  -0.33859
 Alpha virt. eigenvalues --   -0.02119   0.05679   0.07044   0.08205   0.09708
 Alpha virt. eigenvalues --    0.12576   0.13910   0.15284   0.17369   0.19579
 Alpha virt. eigenvalues --    0.20027   0.21683   0.25342   0.26568   0.28680

 Mulliken charges:
               1
     1  C    0.159517
     2  O   -0.356090
     3  C   -0.032915
     4  C   -0.127986
     5  H    0.102982
     6  H    0.084948
     7  H    0.105612
     8  H    0.063932
 Sum of Mulliken charges =   0.00000

 Dipole moment (field-independent basis, Debye):
    X=             -3.6454    Y=              0.6814    Z=              0.1111  Tot=              3.7102
 Quadrupole moment (field-independent basis, Debye-Ang):
   XX=            -27.5455   YY=            -21.7788   ZZ=            -25.2515
   XY=              0.7602   XZ=              0.0872   YZ=             -0.0517

 Normal termination of Gaussian 09 at Wed Aug 26 15:09:01 2020.
