 Gaussian 09, Revision D.01,
 Gaussian 09:  ES64L-G09RevD.01 24-Apr-2013

 --------------------
 #p B2PLYPD3/Def2QZVP
 --------------------

 --------
 acrolein
 --------
 Symbolic Z-matrix:
 Charge =  0 Multiplicity = 1

                         Standard orientation:
 ---------------------------------------------------------------------
 Center     Atomic      Atomic             Coordinates (Angstroms)
 Number     Number       Type             X           Y           Z
 ---------------------------------------------------------------------
      1          6           0       -0.681738    0.368181    0.006520
      2          8           0       -1.769163   -0.128905   -0.007229
      3          6           0        0.555189   -0.447004    0.007306
      4          6           0        1.757639    0.134824   -0.024945
      5          1           0        0.445583   -1.570032    0.003854
      6          1           0        1.830717    1.274297   -0.012967
      7          1           0        2.650429   -0.414154    0.080975
      8          1           0       -0.559972    1.405119    0.052684
 ---------------------------------------------------------------------

 SCF Done:  E(RB2PLYPD3) =  -191.610411713     A.U. after   12 cycles
 E2(B2PLYPD3) =    -0.2464237663D+00 E(B2PLYPD3) =    -0.19185683547952D+03

 The electronic state is 1-A.
 Alpha  occ. eigenvalues --  -19.72629 -10.70866 -10.65460 -10.64677  -1.20420
 Alpha  occ. eigenvalues --   -0.92357  -0.75311  -0.67152  -0.56601  -0.56271
 Alpha  occ. eigenvalues --   -0.50918  -0.47148  -0.45896  -0.34490  -0.33890
 Alpha virt. eigenvalues --   -0.01385   0.05750   0.07122   0.08164   0.09691
 Alpha virt. eigenvalues --    0.12399   0.14273   0.15456   0.17397   0.19339
 Alpha virt. eigenvalues --    0.19876   0.21816   0.25516   0.26564   0.28905

 Mulliken charges:
               1
     1  C    0.159876
     2  O   -0.340587
     3  C   -0.052711
     4  C   -0.129044
     5  H    0.100945
     6  H    0.072750
     7  H    0.105237
     8  H    0.083533
 Sum of Mulliken charges =   0.00000

 Dipole moment (field-independent basis, Debye):
    X=              3.2816    Y=              0.8466    Z=              0.1087  Tot=              3.3908
 Quadrupole moment (field-independent basis, Debye-Ang):
   XX=            -27.4870   YY=            -21.5594   ZZ=            -25.2347
   XY=             -1.1483   XZ=              0.1521   YZ=             -0.0332

 Normal termination of Gaussian 09 at Wed Aug 26 09:03:16 2020.
