 Gaussian 09, Revision D.01,
 Gaussian 09:  ES64L-G09RevD.01 24-Apr-2013

 --------------------
 #p B2PLYPD3/Def2QZVP
 --------------------

 --------
 acrolein
 --------
 Symbolic Z-matrix:
 Charge =  0 Multiplicity = 1

                         Standard orientation:
 ---------------------------------------------------------------------
 Center     Atomic      Atomic             Coordinates (Angstroms)
 Number     Number       Type             X           Y           Z
 ---------------------------------------------------------------------
      1          6           0       -0.668138    0.365271   -0.013396
      2          8           0       -1.783461   -0.141134    0.036713
      3          6           0        0.556158   -0.440332   -0.060251
      4          6           0        1.737845    0.119867    0.020865
      5          1           0        0.466354   -1.436237   -0.054363
      6          1           0        1.800024    1.225763    0.020024
      7          1           0        2.689562   -0.444187    0.149482
      8          1           0       -0.443447    1.514900   -0.092153
 ---------------------------------------------------------------------

 SCF Done:  E(RB2PLYPD3) =  -191.604807368     A.U. after   13 cycles
 E2(B2PLYPD3) =    -0.2481945247D+00 E(B2PLYPD3) =    -0.19185300189281D+03

 The electronic state is 1-A.
 Alpha  occ. eigenvalues --  -19.73244 -10.72644 -10.65636 -10.63152  -1.18893
 Alpha  occ. eigenvalues --   -0.93794  -0.74965  -0.67408  -0.56618  -0.55720
 Alpha  occ. eigenvalues --   -0.50646  -0.46930  -0.46425  -0.35042  -0.33978
 Alpha virt. eigenvalues --   -0.01743   0.05606   0.07120   0.08004   0.09790
 Alpha virt. eigenvalues --    0.12392   0.13540   0.15309   0.17878   0.19589
 Alpha virt. eigenvalues --    0.19806   0.21307   0.25486   0.26320   0.28796

 Mulliken charges:
               1
     1  C    0.159240
     2  O   -0.351789
     3  C   -0.035767
     4  C   -0.120051
     5  H    0.112051
     6  H    0.074699
     7  H    0.098818
     8  H    0.062800
 Sum of Mulliken charges =   0.00000

 Dipole moment (field-independent basis, Debye):
    X=              3.4998    Y=              0.7292    Z=             -0.0257  Tot=              3.5750
 Quadrupole moment (field-independent basis, Debye-Ang):
   XX=            -27.4673   YY=            -21.9128   ZZ=            -25.1668
   XY=             -1.0656   XZ=              0.5569   YZ=             -0.0649

 Normal termination of Gaussian 09 at Wed Aug 26 08:53:57 2020.
