 Gaussian 09, Revision D.01,
 Gaussian 09:  ES64L-G09RevD.01 24-Apr-2013

 --------------------
 #p B2PLYPD3/Def2QZVP
 --------------------

 --------
 acrolein
 --------
 Symbolic Z-matrix:
 Charge =  0 Multiplicity = 1

                         Standard orientation:
 ---------------------------------------------------------------------
 Center     Atomic      Atomic             Coordinates (Angstroms)
 Number     Number       Type             X           Y           Z
 ---------------------------------------------------------------------
      1          6           0       -0.675485    0.349287    0.040028
      2          8           0       -1.768870   -0.129869   -0.022910
      3          6           0        0.552799   -0.414190    0.000580
      4          6           0        1.758111    0.126727   -0.018353
      5          1           0        0.423191   -1.529323    0.030189
      6          1           0        1.777215    1.195124   -0.052591
      7          1           0        2.653452   -0.424552    0.046575
      8          1           0       -0.515451    1.426762    0.025583
 ---------------------------------------------------------------------

 SCF Done:  E(RB2PLYPD3) =  -191.613620286     A.U. after   12 cycles
 E2(B2PLYPD3) =    -0.2460981972D+00 E(B2PLYPD3) =    -0.19185971848341D+03

 The electronic state is 1-A.
 Alpha  occ. eigenvalues --  -19.72837 -10.71065 -10.64815 -10.64100  -1.20537
 Alpha  occ. eigenvalues --   -0.93455  -0.76167  -0.66729  -0.57172  -0.56722
 Alpha  occ. eigenvalues --   -0.51403  -0.47469  -0.45912  -0.34879  -0.33940
 Alpha virt. eigenvalues --   -0.01714   0.05903   0.07122   0.08674   0.09883
 Alpha virt. eigenvalues --    0.12637   0.14130   0.15400   0.17314   0.19823
 Alpha virt. eigenvalues --    0.19843   0.21894   0.25843   0.26539   0.28995

 Mulliken charges:
               1
     1  C    0.156891
     2  O   -0.340373
     3  C   -0.025156
     4  C   -0.135473
     5  H    0.091652
     6  H    0.078445
     7  H    0.111354
     8  H    0.062659
 Sum of Mulliken charges =   0.00000

 Dipole moment (field-independent basis, Debye):
    X=              3.3876    Y=              0.7744    Z=              0.1294  Tot=              3.4774
 Quadrupole moment (field-independent basis, Debye-Ang):
   XX=            -27.1496   YY=            -21.9798   ZZ=            -25.0618
   XY=             -1.1134   XZ=             -0.0414   YZ=             -0.1241

 Normal termination of Gaussian 09 at Wed Aug 26 21:06:36 2020.
