 Gaussian 09, Revision D.01,
 Gaussian 09:  ES64L-G09RevD.01 24-Apr-2013

 --------------------
 #p B2PLYPD3/Def2QZVP
 --------------------

 --------
 acrolein
 --------
 Symbolic Z-matrix:
 Charge =  0 Multiplicity = 1

                         Standard orientation:
 ---------------------------------------------------------------------
 Center     Atomic      Atomic             Coordinates (Angstroms)
 Number     Number       Type             X           Y           Z
 ---------------------------------------------------------------------
      1          6           0        0.672413    0.356092    0.005379
      2          8           0        1.784966   -0.125788   -0.006018
      3          6           0       -0.562761   -0.446600    0.024025
      4          6           0       -1.748421    0.138028   -0.014944
      5          1           0       -0.414377   -1.535819   -0.033583
      6          1           0       -1.837002    1.216212    0.025324
      7          1           0       -2.679320   -0.440747   -0.011342
      8          1           0        0.483591    1.481535   -0.019015
 ---------------------------------------------------------------------

 SCF Done:  E(RB2PLYPD3) =  -191.615206901     A.U. after   12 cycles
 E2(B2PLYPD3) =    -0.2475499921D+00 E(B2PLYPD3) =    -0.19186275689271D+03

 The electronic state is 1-A.
 Alpha  occ. eigenvalues --  -19.73028 -10.72026 -10.65444 -10.64438  -1.19534
 Alpha  occ. eigenvalues --   -0.93115  -0.75166  -0.66393  -0.56466  -0.56090
 Alpha  occ. eigenvalues --   -0.50583  -0.46871  -0.46510  -0.34901  -0.33833
 Alpha virt. eigenvalues --   -0.01641   0.05729   0.07007   0.08108   0.09800
 Alpha virt. eigenvalues --    0.12507   0.13780   0.15281   0.17312   0.19827
 Alpha virt. eigenvalues --    0.19934   0.21603   0.25406   0.26533   0.28628

 Mulliken charges:
               1
     1  C    0.160304
     2  O   -0.347153
     3  C   -0.037678
     4  C   -0.128975
     5  H    0.104506
     6  H    0.084636
     7  H    0.101700
     8  H    0.062659
 Sum of Mulliken charges =   0.00000

 Dipole moment (field-independent basis, Debye):
    X=             -3.4518    Y=              0.7432    Z=             -0.0058  Tot=              3.5309
 Quadrupole moment (field-independent basis, Debye-Ang):
   XX=            -27.4579   YY=            -21.8010   ZZ=            -25.2540
   XY=              0.8525   XZ=              0.0339   YZ=              0.0947

 Normal termination of Gaussian 09 at Wed Aug 26 16:12:01 2020.
