 Gaussian 09, Revision D.01,
 Gaussian 09:  ES64L-G09RevD.01 24-Apr-2013

 --------------------
 #p B2PLYPD3/Def2QZVP
 --------------------

 --------
 acrolein
 --------
 Symbolic Z-matrix:
 Charge =  0 Multiplicity = 1

                         Standard orientation:
 ---------------------------------------------------------------------
 Center     Atomic      Atomic             Coordinates (Angstroms)
 Number     Number       Type             X           Y           Z
 ---------------------------------------------------------------------
      1          6           0        0.681847    0.358163   -0.007783
      2          8           0        1.783126   -0.132107    0.014569
      3          6           0       -0.551348   -0.442937   -0.031848
      4          6           0       -1.759782    0.135938    0.008517
      5          1           0       -0.458257   -1.534679    0.015091
      6          1           0       -1.839914    1.211089    0.007142
      7          1           0       -2.707895   -0.421620    0.060817
      8          1           0        0.516761    1.495081   -0.012918
 ---------------------------------------------------------------------

 SCF Done:  E(RB2PLYPD3) =  -191.614869055     A.U. after   12 cycles
 E2(B2PLYPD3) =    -0.2475867755D+00 E(B2PLYPD3) =    -0.19186245583056D+03

 The electronic state is 1-A.
 Alpha  occ. eigenvalues --  -19.72986 -10.72095 -10.65666 -10.64623  -1.19975
 Alpha  occ. eigenvalues --   -0.92630  -0.75095  -0.66378  -0.56438  -0.56164
 Alpha  occ. eigenvalues --   -0.50528  -0.47052  -0.46527  -0.34542  -0.33895
 Alpha virt. eigenvalues --   -0.01767   0.05729   0.07006   0.08170   0.09734
 Alpha virt. eigenvalues --    0.12414   0.13969   0.15379   0.17389   0.19857
 Alpha virt. eigenvalues --    0.19914   0.21439   0.25392   0.26260   0.28790

 Mulliken charges:
               1
     1  C    0.156814
     2  O   -0.340657
     3  C   -0.039937
     4  C   -0.129338
     5  H    0.104422
     6  H    0.081662
     7  H    0.102147
     8  H    0.064888
 Sum of Mulliken charges =   0.00000

 Dipole moment (field-independent basis, Debye):
    X=             -3.4290    Y=              0.7620    Z=              0.0308  Tot=              3.5128
 Quadrupole moment (field-independent basis, Debye-Ang):
   XX=            -27.2472   YY=            -21.8486   ZZ=            -25.3123
   XY=              1.0001   XZ=             -0.2525   YZ=             -0.0709

 Normal termination of Gaussian 09 at Wed Aug 26 15:29:18 2020.
