 Gaussian 09, Revision D.01,
 Gaussian 09:  ES64L-G09RevD.01 24-Apr-2013

 --------------------
 #p B2PLYPD3/Def2QZVP
 --------------------

 --------
 acrolein
 --------
 Symbolic Z-matrix:
 Charge =  0 Multiplicity = 1

                         Standard orientation:
 ---------------------------------------------------------------------
 Center     Atomic      Atomic             Coordinates (Angstroms)
 Number     Number       Type             X           Y           Z
 ---------------------------------------------------------------------
      1          6           0       -0.665318    0.333076    0.008682
      2          8           0       -1.790009   -0.105135   -0.016292
      3          6           0        0.556947   -0.461991    0.008709
      4          6           0        1.756934    0.142701   -0.008263
      5          1           0        0.437158   -1.547867    0.053173
      6          1           0        1.870428    1.264651   -0.030740
      7          1           0        2.655869   -0.397469   -0.024436
      8          1           0       -0.534765    1.439057    0.077570
 ---------------------------------------------------------------------

 SCF Done:  E(RB2PLYPD3) =  -191.614237219     A.U. after   12 cycles
 E2(B2PLYPD3) =    -0.2473079159D+00 E(B2PLYPD3) =    -0.19186154513493D+03

 The electronic state is 1-A.
 Alpha  occ. eigenvalues --  -19.72607 -10.71366 -10.65940 -10.64809  -1.19602
 Alpha  occ. eigenvalues --   -0.92883  -0.75679  -0.66533  -0.56821  -0.56144
 Alpha  occ. eigenvalues --   -0.50508  -0.47028  -0.46631  -0.34621  -0.33662
 Alpha virt. eigenvalues --   -0.01922   0.05706   0.07081   0.08336   0.09646
 Alpha virt. eigenvalues --    0.12478   0.14156   0.15320   0.17382   0.19566
 Alpha virt. eigenvalues --    0.20024   0.21642   0.25315   0.26407   0.28780

 Mulliken charges:
               1
     1  C    0.157362
     2  O   -0.347389
     3  C   -0.040901
     4  C   -0.126143
     5  H    0.104945
     6  H    0.084038
     7  H    0.104554
     8  H    0.063535
 Sum of Mulliken charges =   0.00000

 Dipole moment (field-independent basis, Debye):
    X=              3.5662    Y=              0.6684    Z=              0.0722  Tot=              3.6290
 Quadrupole moment (field-independent basis, Debye-Ang):
   XX=            -27.3405   YY=            -21.7527   ZZ=            -25.2579
   XY=             -0.7768   XZ=             -0.1701   YZ=             -0.0729

 Normal termination of Gaussian 09 at Wed Aug 26 19:57:05 2020.
