 Gaussian 09, Revision D.01,
 Gaussian 09:  ES64L-G09RevD.01 24-Apr-2013

 --------------------
 #p B2PLYPD3/Def2QZVP
 --------------------

 --------
 acrolein
 --------
 Symbolic Z-matrix:
 Charge =  0 Multiplicity = 1

                         Standard orientation:
 ---------------------------------------------------------------------
 Center     Atomic      Atomic             Coordinates (Angstroms)
 Number     Number       Type             X           Y           Z
 ---------------------------------------------------------------------
      1          6           0        0.674034    0.363709    0.029178
      2          8           0        1.782010   -0.131165   -0.039592
      3          6           0       -0.542476   -0.436981    0.069280
      4          6           0       -1.747462    0.111324   -0.042861
      5          1           0       -0.428293   -1.468471    0.006487
      6          1           0       -1.883050    1.225911    0.005592
      7          1           0       -2.703768   -0.424308   -0.078839
      8          1           0        0.454457    1.487870    0.049917
 ---------------------------------------------------------------------

 SCF Done:  E(RB2PLYPD3) =  -191.610787498     A.U. after   13 cycles
 E2(B2PLYPD3) =    -0.2479070699D+00 E(B2PLYPD3) =    -0.19185869456741D+03

 The electronic state is 1-A.
 Alpha  occ. eigenvalues --  -19.73081 -10.72102 -10.66033 -10.63817  -1.19440
 Alpha  occ. eigenvalues --   -0.93191  -0.75415  -0.66973  -0.56867  -0.55727
 Alpha  occ. eigenvalues --   -0.50803  -0.46877  -0.46159  -0.34788  -0.33999
 Alpha virt. eigenvalues --   -0.01933   0.05598   0.07270   0.08109   0.09739
 Alpha virt. eigenvalues --    0.12355   0.13789   0.15289   0.17812   0.19631
 Alpha virt. eigenvalues --    0.19866   0.21381   0.25103   0.26471   0.28682

 Mulliken charges:
               1
     1  C    0.160882
     2  O   -0.348795
     3  C   -0.039677
     4  C   -0.119190
     5  H    0.111055
     6  H    0.071401
     7  H    0.098629
     8  H    0.065694
 Sum of Mulliken charges =   0.00000

 Dipole moment (field-independent basis, Debye):
    X=             -3.5164    Y=              0.7464    Z=              0.0730  Tot=              3.5954
 Quadrupole moment (field-independent basis, Debye-Ang):
   XX=            -27.1628   YY=            -21.9858   ZZ=            -25.2277
   XY=              0.8615   XZ=              0.3834   YZ=              0.1071

 Normal termination of Gaussian 09 at Wed Aug 26 10:28:12 2020.
