 Gaussian 09, Revision D.01,
 Gaussian 09:  ES64L-G09RevD.01 24-Apr-2013

 --------------------
 #p B2PLYPD3/Def2QZVP
 --------------------

 --------
 acrolein
 --------
 Symbolic Z-matrix:
 Charge =  0 Multiplicity = 1

                         Standard orientation:
 ---------------------------------------------------------------------
 Center     Atomic      Atomic             Coordinates (Angstroms)
 Number     Number       Type             X           Y           Z
 ---------------------------------------------------------------------
      1          6           0        0.662306    0.337395    0.022495
      2          8           0        1.804311   -0.112470   -0.022183
      3          6           0       -0.569269   -0.458651    0.019193
      4          6           0       -1.753828    0.146896   -0.022182
      5          1           0       -0.456482   -1.517372    0.051647
      6          1           0       -1.845849    1.217389    0.020630
      7          1           0       -2.660155   -0.412637   -0.041370
      8          1           0        0.492746    1.458545    0.029518
 ---------------------------------------------------------------------

 SCF Done:  E(RB2PLYPD3) =  -191.614897896     A.U. after   12 cycles
 E2(B2PLYPD3) =    -0.2480108016D+00 E(B2PLYPD3) =    -0.19186290869779D+03

 The electronic state is 1-A.
 Alpha  occ. eigenvalues --  -19.72894 -10.72028 -10.65423 -10.64461  -1.18448
 Alpha  occ. eigenvalues --   -0.93424  -0.75768  -0.66972  -0.56686  -0.56268
 Alpha  occ. eigenvalues --   -0.50327  -0.47478  -0.46213  -0.34809  -0.33811
 Alpha virt. eigenvalues --   -0.02062   0.05732   0.07116   0.08063   0.09715
 Alpha virt. eigenvalues --    0.12622   0.13935   0.15275   0.17415   0.19907
 Alpha virt. eigenvalues --    0.20007   0.21630   0.25289   0.26429   0.28694

 Mulliken charges:
               1
     1  C    0.156402
     2  O   -0.356731
     3  C   -0.032975
     4  C   -0.126945
     5  H    0.106479
     6  H    0.088198
     7  H    0.101555
     8  H    0.064019
 Sum of Mulliken charges =   0.00000

 Dipole moment (field-independent basis, Debye):
    X=             -3.6536    Y=              0.6945    Z=              0.1125  Tot=              3.7207
 Quadrupole moment (field-independent basis, Debye-Ang):
   XX=            -27.5398   YY=            -21.7616   ZZ=            -25.2171
   XY=              0.7988   XZ=              0.1444   YZ=             -0.0074

 Normal termination of Gaussian 09 at Wed Aug 26 12:02:19 2020.
