 Gaussian 09, Revision D.01,
 Gaussian 09:  ES64L-G09RevD.01 24-Apr-2013

 --------------------
 #p B2PLYPD3/Def2QZVP
 --------------------

 --------
 acrolein
 --------
 Symbolic Z-matrix:
 Charge =  0 Multiplicity = 1

                         Standard orientation:
 ---------------------------------------------------------------------
 Center     Atomic      Atomic             Coordinates (Angstroms)
 Number     Number       Type             X           Y           Z
 ---------------------------------------------------------------------
      1          6           0        0.647601    0.343514    0.056436
      2          8           0        1.800679   -0.106384   -0.041785
      3          6           0       -0.606157   -0.478206    0.084905
      4          6           0       -1.727458    0.154170   -0.054671
      5          1           0       -0.484859   -1.591051   -0.092235
      6          1           0       -1.780616    1.311303    0.041128
      7          1           0       -2.522972   -0.368585   -0.072962
      8          1           0        0.499104    1.382543   -0.061678
 ---------------------------------------------------------------------

 SCF Done:  E(RB2PLYPD3) =  -191.586576167     A.U. after   13 cycles
 E2(B2PLYPD3) =    -0.2482381387D+00 E(B2PLYPD3) =    -0.19183481430554D+03

 The electronic state is 1-A.
 Alpha  occ. eigenvalues --  -19.72802 -10.71614 -10.64751 -10.64204  -1.17573
 Alpha  occ. eigenvalues --   -0.94265  -0.76188  -0.66852  -0.57718  -0.55675
 Alpha  occ. eigenvalues --   -0.50347  -0.46573  -0.45522  -0.35517  -0.33748
 Alpha virt. eigenvalues --   -0.01505   0.05755   0.06864   0.07184   0.09730
 Alpha virt. eigenvalues --    0.12642   0.13730   0.15252   0.17374   0.19624
 Alpha virt. eigenvalues --    0.19835   0.22348   0.24203   0.27210   0.28618

 Mulliken charges:
               1
     1  C    0.157683
     2  O   -0.363619
     3  C   -0.047547
     4  C   -0.118505
     5  H    0.102449
     6  H    0.079922
     7  H    0.106206
     8  H    0.083411
 Sum of Mulliken charges =   0.00000

 Dipole moment (field-independent basis, Debye):
    X=             -3.5972    Y=              0.7578    Z=              0.0174  Tot=              3.6762
 Quadrupole moment (field-independent basis, Debye-Ang):
   XX=            -28.1341   YY=            -21.4130   ZZ=            -25.0883
   XY=              0.9280   XZ=              0.3582   YZ=              0.2675

 Normal termination of Gaussian 09 at Wed Aug 26 12:08:06 2020.
