 Gaussian 09, Revision D.01,
 Gaussian 09:  ES64L-G09RevD.01 24-Apr-2013

 --------------------
 #p B2PLYPD3/Def2QZVP
 --------------------

 --------
 acrolein
 --------
 Symbolic Z-matrix:
 Charge =  0 Multiplicity = 1

                         Standard orientation:
 ---------------------------------------------------------------------
 Center     Atomic      Atomic             Coordinates (Angstroms)
 Number     Number       Type             X           Y           Z
 ---------------------------------------------------------------------
      1          6           0       -0.668819    0.351048   -0.016525
      2          8           0       -1.788620   -0.129421    0.023411
      3          6           0        0.565012   -0.441495   -0.026706
      4          6           0        1.744793    0.145514    0.007542
      5          1           0        0.452594   -1.510089   -0.047133
      6          1           0        1.785019    1.173414    0.005142
      7          1           0        2.693115   -0.440950    0.102699
      8          1           0       -0.467686    1.482587   -0.033864
 ---------------------------------------------------------------------

 SCF Done:  E(RB2PLYPD3) =  -191.611784499     A.U. after   12 cycles
 E2(B2PLYPD3) =    -0.2476286141D+00 E(B2PLYPD3) =    -0.19185941311351D+03

 The electronic state is 1-A.
 Alpha  occ. eigenvalues --  -19.73096 -10.72210 -10.65069 -10.64056  -1.19157
 Alpha  occ. eigenvalues --   -0.93647  -0.75377  -0.66983  -0.56544  -0.56255
 Alpha  occ. eigenvalues --   -0.50424  -0.47225  -0.46610  -0.34964  -0.33899
 Alpha virt. eigenvalues --   -0.01763   0.05750   0.06996   0.08158   0.09846
 Alpha virt. eigenvalues --    0.12596   0.13722   0.15298   0.17376   0.19835
 Alpha virt. eigenvalues --    0.20204   0.21522   0.25571   0.26376   0.28781

 Mulliken charges:
               1
     1  C    0.153813
     2  O   -0.350104
     3  C   -0.025008
     4  C   -0.132918
     5  H    0.104212
     6  H    0.087759
     7  H    0.101563
     8  H    0.060683
 Sum of Mulliken charges =   0.00000

 Dipole moment (field-independent basis, Debye):
    X=              3.5042    Y=              0.7316    Z=             -0.0291  Tot=              3.5798
 Quadrupole moment (field-independent basis, Debye-Ang):
   XX=            -27.4976   YY=            -21.8583   ZZ=            -25.1731
   XY=             -0.9624   XZ=              0.3522   YZ=             -0.0126

 Normal termination of Gaussian 09 at Wed Aug 26 16:31:28 2020.
