 Gaussian 09, Revision D.01,
 Gaussian 09:  ES64L-G09RevD.01 24-Apr-2013

 --------------------
 #p B2PLYPD3/Def2QZVP
 --------------------

 --------
 acrolein
 --------
 Symbolic Z-matrix:
 Charge =  0 Multiplicity = 1

                         Standard orientation:
 ---------------------------------------------------------------------
 Center     Atomic      Atomic             Coordinates (Angstroms)
 Number     Number       Type             X           Y           Z
 ---------------------------------------------------------------------
      1          6           0        0.664202    0.344378    0.022435
      2          8           0        1.802802   -0.107665   -0.019916
      3          6           0       -0.571594   -0.458250    0.003235
      4          6           0       -1.759392    0.146864   -0.016805
      5          1           0       -0.415897   -1.570398    0.067678
      6          1           0       -1.845113    1.215922   -0.009951
      7          1           0       -2.652706   -0.397089   -0.005565
      8          1           0        0.492004    1.414931    0.053970
 ---------------------------------------------------------------------

 SCF Done:  E(RB2PLYPD3) =  -191.613603092     A.U. after   12 cycles
 E2(B2PLYPD3) =    -0.2477910309D+00 E(B2PLYPD3) =    -0.19186139412313D+03

 The electronic state is 1-A.
 Alpha  occ. eigenvalues --  -19.72840 -10.71557 -10.65202 -10.64995  -1.18557
 Alpha  occ. eigenvalues --   -0.93151  -0.76034  -0.66919  -0.56744  -0.56392
 Alpha  occ. eigenvalues --   -0.50563  -0.46945  -0.46145  -0.34738  -0.33884
 Alpha virt. eigenvalues --   -0.01990   0.05767   0.07063   0.08044   0.09701
 Alpha virt. eigenvalues --    0.12696   0.14069   0.15267   0.17188   0.19839
 Alpha virt. eigenvalues --    0.20031   0.21870   0.25294   0.26636   0.28686

 Mulliken charges:
               1
     1  C    0.157776
     2  O   -0.357815
     3  C   -0.034627
     4  C   -0.130707
     5  H    0.101045
     6  H    0.086009
     7  H    0.104734
     8  H    0.073585
 Sum of Mulliken charges =   0.00000

 Dipole moment (field-independent basis, Debye):
    X=             -3.6082    Y=              0.7635    Z=              0.1368  Tot=              3.6906
 Quadrupole moment (field-independent basis, Debye-Ang):
   XX=            -27.5777   YY=            -21.6870   ZZ=            -25.2244
   XY=              0.7170   XZ=              0.0895   YZ=             -0.0858

 Normal termination of Gaussian 09 at Wed Aug 26 19:44:56 2020.
