 Gaussian 09, Revision D.01,
 Gaussian 09:  ES64L-G09RevD.01 24-Apr-2013

 --------------------
 #p B2PLYPD3/Def2QZVP
 --------------------

 --------
 acrolein
 --------
 Symbolic Z-matrix:
 Charge =  0 Multiplicity = 1

                         Standard orientation:
 ---------------------------------------------------------------------
 Center     Atomic      Atomic             Coordinates (Angstroms)
 Number     Number       Type             X           Y           Z
 ---------------------------------------------------------------------
      1          6           0        0.649550    0.335998    0.066966
      2          8           0        1.794823   -0.117389   -0.059542
      3          6           0       -0.534987   -0.421576    0.027566
      4          6           0       -1.735030    0.134534   -0.060438
      5          1           0       -0.383219   -1.518859    0.106115
      6          1           0       -1.804485    1.238394   -0.148169
      7          1           0       -2.855722   -0.520494    0.092351
      8          1           0        0.407643    1.446337    0.221474
 ---------------------------------------------------------------------

 SCF Done:  E(RB2PLYPD3) =  -191.581942612     A.U. after   13 cycles
 E2(B2PLYPD3) =    -0.2509881016D+00 E(B2PLYPD3) =    -0.19183293071321D+03

 The electronic state is 1-A.
 Alpha  occ. eigenvalues --  -19.73084 -10.71992 -10.68312 -10.64467  -1.18080
 Alpha  occ. eigenvalues --   -0.94075  -0.75473  -0.66177  -0.56089  -0.54855
 Alpha  occ. eigenvalues --   -0.49621  -0.46174  -0.45000  -0.34934  -0.34123
 Alpha virt. eigenvalues --   -0.02878   0.04574   0.06369   0.08328   0.09686
 Alpha virt. eigenvalues --    0.11934   0.13504   0.15196   0.17323   0.18650
 Alpha virt. eigenvalues --    0.20044   0.20640   0.25158   0.26489   0.28071

 Mulliken charges:
               1
     1  C    0.156291
     2  O   -0.362152
     3  C   -0.010539
     4  C   -0.125658
     5  H    0.103005
     6  H    0.087570
     7  H    0.097053
     8  H    0.054431
 Sum of Mulliken charges =   0.00000

 Dipole moment (field-independent basis, Debye):
    X=             -3.7087    Y=              0.6920    Z=              0.3250  Tot=              3.7866
 Quadrupole moment (field-independent basis, Debye-Ang):
   XX=            -27.5948   YY=            -22.0772   ZZ=            -25.4150
   XY=              0.7568   XZ=              0.1932   YZ=             -0.2988

 Normal termination of Gaussian 09 at Wed Aug 26 10:50:55 2020.
