 Gaussian 09, Revision D.01,
 Gaussian 09:  ES64L-G09RevD.01 24-Apr-2013

 --------------------
 #p B2PLYPD3/Def2QZVP
 --------------------

 --------
 acrolein
 --------
 Symbolic Z-matrix:
 Charge =  0 Multiplicity = 1

                         Standard orientation:
 ---------------------------------------------------------------------
 Center     Atomic      Atomic             Coordinates (Angstroms)
 Number     Number       Type             X           Y           Z
 ---------------------------------------------------------------------
      1          6           0        0.659029    0.309232    0.050550
      2          8           0        1.817126   -0.086192   -0.047683
      3          6           0       -0.569789   -0.499580    0.031997
      4          6           0       -1.737412    0.159207   -0.055509
      5          1           0       -0.585930   -1.502083    0.167256
      6          1           0       -2.000793    1.332774    0.101443
      7          1           0       -2.571808   -0.400515   -0.113628
      8          1           0        0.510560    1.446208    0.064160
 ---------------------------------------------------------------------

 SCF Done:  E(RB2PLYPD3) =  -191.588943208     A.U. after   13 cycles
 E2(B2PLYPD3) =    -0.2488907783D+00 E(B2PLYPD3) =    -0.19183783398611D+03

 The electronic state is 1-A.
 Alpha  occ. eigenvalues --  -19.72618 -10.72056 -10.66299 -10.64589  -1.18260
 Alpha  occ. eigenvalues --   -0.93505  -0.75636  -0.67007  -0.56915  -0.55735
 Alpha  occ. eigenvalues --   -0.50063  -0.47347  -0.45727  -0.34629  -0.33480
 Alpha virt. eigenvalues --   -0.02153   0.05355   0.06876   0.07856   0.09240
 Alpha virt. eigenvalues --    0.12367   0.14171   0.15126   0.17836   0.19481
 Alpha virt. eigenvalues --    0.20082   0.21367   0.24441   0.26489   0.27895

 Mulliken charges:
               1
     1  C    0.156368
     2  O   -0.352533
     3  C   -0.046109
     4  C   -0.112136
     5  H    0.106333
     6  H    0.088397
     7  H    0.093820
     8  H    0.065859
 Sum of Mulliken charges =   0.00000

 Dipole moment (field-independent basis, Debye):
    X=             -3.8074    Y=              0.5516    Z=              0.3346  Tot=              3.8616
 Quadrupole moment (field-independent basis, Debye-Ang):
   XX=            -27.5786   YY=            -21.6334   ZZ=            -25.2491
   XY=              0.6368   XZ=              0.1858   YZ=             -0.0362

 Normal termination of Gaussian 09 at Wed Aug 26 12:09:36 2020.
