 Gaussian 09, Revision D.01,
 Gaussian 09:  ES64L-G09RevD.01 24-Apr-2013

 --------------------
 #p B2PLYPD3/Def2QZVP
 --------------------

 --------
 acrolein
 --------
 Symbolic Z-matrix:
 Charge =  0 Multiplicity = 1

                         Standard orientation:
 ---------------------------------------------------------------------
 Center     Atomic      Atomic             Coordinates (Angstroms)
 Number     Number       Type             X           Y           Z
 ---------------------------------------------------------------------
      1          6           0       -0.668463    0.336536    0.014846
      2          8           0       -1.793369   -0.110201   -0.022155
      3          6           0        0.562356   -0.455369    0.015532
      4          6           0        1.763718    0.139380   -0.022607
      5          1           0        0.436320   -1.547141    0.051766
      6          1           0        1.862491    1.266370   -0.043424
      7          1           0        2.633492   -0.411291    0.016349
      8          1           0       -0.531022    1.450391    0.105927
 ---------------------------------------------------------------------

 SCF Done:  E(RB2PLYPD3) =  -191.612720620     A.U. after   12 cycles
 E2(B2PLYPD3) =    -0.2475398397D+00 E(B2PLYPD3) =    -0.19186026045966D+03

 The electronic state is 1-A.
 Alpha  occ. eigenvalues --  -19.72765 -10.71635 -10.65708 -10.64829  -1.19461
 Alpha  occ. eigenvalues --   -0.92913  -0.75794  -0.66285  -0.56951  -0.55998
 Alpha  occ. eigenvalues --   -0.50634  -0.46950  -0.46569  -0.34657  -0.33729
 Alpha virt. eigenvalues --   -0.01956   0.05736   0.07019   0.08305   0.09680
 Alpha virt. eigenvalues --    0.12464   0.14058   0.15351   0.17293   0.19402
 Alpha virt. eigenvalues --    0.20052   0.21831   0.25290   0.26443   0.28761

 Mulliken charges:
               1
     1  C    0.159979
     2  O   -0.347495
     3  C   -0.041709
     4  C   -0.126914
     5  H    0.102349
     6  H    0.084060
     7  H    0.107528
     8  H    0.062202
 Sum of Mulliken charges =   0.00000

 Dipole moment (field-independent basis, Debye):
    X=              3.5453    Y=              0.6729    Z=              0.1233  Tot=              3.6107
 Quadrupole moment (field-independent basis, Debye-Ang):
   XX=            -27.4163   YY=            -21.7558   ZZ=            -25.2685
   XY=             -0.8411   XZ=             -0.1165   YZ=             -0.0908

 Normal termination of Gaussian 09 at Wed Aug 26 15:22:49 2020.
