 Gaussian 09, Revision D.01,
 Gaussian 09:  ES64L-G09RevD.01 24-Apr-2013

 --------------------
 #p B2PLYPD3/Def2QZVP
 --------------------

 --------
 acrolein
 --------
 Symbolic Z-matrix:
 Charge =  0 Multiplicity = 1

                         Standard orientation:
 ---------------------------------------------------------------------
 Center     Atomic      Atomic             Coordinates (Angstroms)
 Number     Number       Type             X           Y           Z
 ---------------------------------------------------------------------
      1          6           0       -0.672071    0.354043   -0.028831
      2          8           0       -1.788397   -0.127808    0.027291
      3          6           0        0.553915   -0.433392   -0.016180
      4          6           0        1.757730    0.131243    0.009862
      5          1           0        0.435010   -1.484837   -0.040179
      6          1           0        1.819268    1.188233    0.073999
      7          1           0        2.718589   -0.420108    0.026713
      8          1           0       -0.503135    1.427810   -0.067974
 ---------------------------------------------------------------------

 SCF Done:  E(RB2PLYPD3) =  -191.615112587     A.U. after   12 cycles
 E2(B2PLYPD3) =    -0.2471535983D+00 E(B2PLYPD3) =    -0.19186226618561D+03

 The electronic state is 1-A.
 Alpha  occ. eigenvalues --  -19.72864 -10.71447 -10.65517 -10.63962  -1.19179
 Alpha  occ. eigenvalues --   -0.93314  -0.75816  -0.67639  -0.56776  -0.56380
 Alpha  occ. eigenvalues --   -0.50736  -0.46832  -0.46643  -0.34707  -0.34028
 Alpha virt. eigenvalues --   -0.01964   0.05701   0.07330   0.08259   0.09761
 Alpha virt. eigenvalues --    0.12562   0.14021   0.15359   0.17684   0.19704
 Alpha virt. eigenvalues --    0.20077   0.21435   0.25534   0.26482   0.28931

 Mulliken charges:
               1
     1  C    0.152747
     2  O   -0.353567
     3  C   -0.031771
     4  C   -0.131873
     5  H    0.106521
     6  H    0.081126
     7  H    0.102003
     8  H    0.074815
 Sum of Mulliken charges =   0.00000

 Dipole moment (field-independent basis, Debye):
    X=              3.5311    Y=              0.8036    Z=             -0.0677  Tot=              3.6220
 Quadrupole moment (field-independent basis, Debye-Ang):
   XX=            -27.2978   YY=            -21.8750   ZZ=            -25.1430
   XY=             -0.9866   XZ=              0.2938   YZ=              0.0955

 Normal termination of Gaussian 09 at Wed Aug 26 15:50:32 2020.
