 Gaussian 09, Revision D.01,
 Gaussian 09:  ES64L-G09RevD.01 24-Apr-2013

 --------------------
 #p B2PLYPD3/Def2QZVP
 --------------------

 --------
 acrolein
 --------
 Symbolic Z-matrix:
 Charge =  0 Multiplicity = 1

                         Standard orientation:
 ---------------------------------------------------------------------
 Center     Atomic      Atomic             Coordinates (Angstroms)
 Number     Number       Type             X           Y           Z
 ---------------------------------------------------------------------
      1          6           0        0.676015    0.331041   -0.071970
      2          8           0        1.771157   -0.104980    0.072195
      3          6           0       -0.535257   -0.457961   -0.093161
      4          6           0       -1.756547    0.146487    0.018693
      5          1           0       -0.389121   -1.548913    0.019625
      6          1           0       -1.910397    1.220479    0.107416
      7          1           0       -2.684993   -0.441572    0.221950
      8          1           0        0.509989    1.492441   -0.047924
 ---------------------------------------------------------------------

 SCF Done:  E(RB2PLYPD3) =  -191.607368781     A.U. after   13 cycles
 E2(B2PLYPD3) =    -0.2478808868D+00 E(B2PLYPD3) =    -0.19185524966825D+03

 The electronic state is 1-A.
 Alpha  occ. eigenvalues --  -19.72746 -10.71585 -10.66698 -10.65199  -1.20975
 Alpha  occ. eigenvalues --   -0.92335  -0.75385  -0.65786  -0.56748  -0.55769
 Alpha  occ. eigenvalues --   -0.50126  -0.47689  -0.46747  -0.34327  -0.33474
 Alpha virt. eigenvalues --   -0.02154   0.05644   0.06911   0.08418   0.09731
 Alpha virt. eigenvalues --    0.12383   0.13843   0.15393   0.17426   0.19635
 Alpha virt. eigenvalues --    0.19785   0.21582   0.24578   0.26457   0.28360

 Mulliken charges:
               1
     1  C    0.161639
     2  O   -0.334581
     3  C   -0.038932
     4  C   -0.122453
     5  H    0.107094
     6  H    0.089904
     7  H    0.095876
     8  H    0.041454
 Sum of Mulliken charges =   0.00000

 Dipole moment (field-independent basis, Debye):
    X=             -3.4384    Y=              0.6031    Z=              0.0548  Tot=              3.4914
 Quadrupole moment (field-independent basis, Debye-Ang):
   XX=            -27.1028   YY=            -22.0087   ZZ=            -25.3240
   XY=              0.5316   XZ=             -1.0899   YZ=             -0.0520

 Normal termination of Gaussian 09 at Wed Aug 26 14:32:43 2020.
