 Gaussian 09, Revision D.01,
 Gaussian 09:  ES64L-G09RevD.01 24-Apr-2013

 --------------------
 #p B2PLYPD3/Def2QZVP
 --------------------

 --------
 acrolein
 --------
 Symbolic Z-matrix:
 Charge =  0 Multiplicity = 1

                         Standard orientation:
 ---------------------------------------------------------------------
 Center     Atomic      Atomic             Coordinates (Angstroms)
 Number     Number       Type             X           Y           Z
 ---------------------------------------------------------------------
      1          6           0       -0.685317    0.319147    0.050679
      2          8           0       -1.801309   -0.098707   -0.063386
      3          6           0        0.590788   -0.484150    0.036375
      4          6           0        1.757184    0.152242   -0.018359
      5          1           0        0.522169   -1.522607    0.173758
      6          1           0        1.927676    1.351626   -0.084471
      7          1           0        2.515433   -0.413305   -0.185585
      8          1           0       -0.530742    1.450509    0.191224
 ---------------------------------------------------------------------

 SCF Done:  E(RB2PLYPD3) =  -191.588645392     A.U. after   12 cycles
 E2(B2PLYPD3) =    -0.2471312209D+00 E(B2PLYPD3) =    -0.19183577661283D+03

 The electronic state is 1-A.
 Alpha  occ. eigenvalues --  -19.73011 -10.72020 -10.65163 -10.64525  -1.20375
 Alpha  occ. eigenvalues --   -0.93095  -0.75415  -0.66163  -0.57307  -0.55446
 Alpha  occ. eigenvalues --   -0.50971  -0.47619  -0.46506  -0.34980  -0.33272
 Alpha virt. eigenvalues --   -0.01311   0.05678   0.07100   0.07930   0.09446
 Alpha virt. eigenvalues --    0.12362   0.13927   0.15028   0.17771   0.19181
 Alpha virt. eigenvalues --    0.19727   0.22077   0.24807   0.26643   0.28164

 Mulliken charges:
               1
     1  C    0.160042
     2  O   -0.331918
     3  C   -0.055465
     4  C   -0.124549
     5  H    0.103988
     6  H    0.082984
     7  H    0.105672
     8  H    0.059246
 Sum of Mulliken charges =   0.00000

 Dipole moment (field-independent basis, Debye):
    X=              3.3791    Y=              0.5512    Z=              0.1809  Tot=              3.4285
 Quadrupole moment (field-independent basis, Debye-Ang):
   XX=            -27.6688   YY=            -21.6483   ZZ=            -25.1770
   XY=             -0.7244   XZ=             -0.7905   YZ=             -0.1977

 Normal termination of Gaussian 09 at Wed Aug 26 10:54:51 2020.
