 Gaussian 09, Revision D.01,
 Gaussian 09:  ES64L-G09RevD.01 24-Apr-2013

 --------------------
 #p B2PLYPD3/Def2QZVP
 --------------------

 --------
 acrolein
 --------
 Symbolic Z-matrix:
 Charge =  0 Multiplicity = 1

                         Standard orientation:
 ---------------------------------------------------------------------
 Center     Atomic      Atomic             Coordinates (Angstroms)
 Number     Number       Type             X           Y           Z
 ---------------------------------------------------------------------
      1          6           0       -0.673390    0.348301   -0.009420
      2          8           0       -1.794228   -0.117583    0.010066
      3          6           0        0.582876   -0.465895   -0.021577
      4          6           0        1.757657    0.152146    0.000138
      5          1           0        0.448402   -1.540501    0.034321
      6          1           0        1.836910    1.239184    0.033460
      7          1           0        2.597541   -0.412489    0.039359
      8          1           0       -0.531891    1.447158   -0.002518
 ---------------------------------------------------------------------

 SCF Done:  E(RB2PLYPD3) =  -191.612794654     A.U. after   12 cycles
 E2(B2PLYPD3) =    -0.2469539478D+00 E(B2PLYPD3) =    -0.19185974860142D+03

 The electronic state is 1-A.
 Alpha  occ. eigenvalues --  -19.72849 -10.71746 -10.64655 -10.64513  -1.19284
 Alpha  occ. eigenvalues --   -0.93048  -0.75477  -0.66905  -0.57077  -0.56200
 Alpha  occ. eigenvalues --   -0.50662  -0.47508  -0.46479  -0.34791  -0.33685
 Alpha virt. eigenvalues --   -0.01483   0.05861   0.07201   0.07959   0.09746
 Alpha virt. eigenvalues --    0.12668   0.13968   0.15347   0.17356   0.19736
 Alpha virt. eigenvalues --    0.19987   0.22029   0.25322   0.26503   0.28601

 Mulliken charges:
               1
     1  C    0.157421
     2  O   -0.348954
     3  C   -0.046837
     4  C   -0.130417
     5  H    0.105071
     6  H    0.088189
     7  H    0.103972
     8  H    0.071556
 Sum of Mulliken charges =   0.00000

 Dipole moment (field-independent basis, Debye):
    X=              3.4498    Y=              0.7460    Z=              0.0626  Tot=              3.5301
 Quadrupole moment (field-independent basis, Debye-Ang):
   XX=            -27.6732   YY=            -21.5613   ZZ=            -25.1851
   XY=             -0.8931   XZ=              0.2254   YZ=             -0.0422

 Normal termination of Gaussian 09 at Wed Aug 26 13:33:55 2020.
