 Gaussian 09, Revision D.01,
 Gaussian 09:  ES64L-G09RevD.01 24-Apr-2013

 --------------------
 #p B2PLYPD3/Def2QZVP
 --------------------

 --------
 acrolein
 --------
 Symbolic Z-matrix:
 Charge =  0 Multiplicity = 1

                         Standard orientation:
 ---------------------------------------------------------------------
 Center     Atomic      Atomic             Coordinates (Angstroms)
 Number     Number       Type             X           Y           Z
 ---------------------------------------------------------------------
      1          6           0       -0.667736    0.352827   -0.003422
      2          8           0       -1.774904   -0.132070    0.010678
      3          6           0        0.561204   -0.438896   -0.026200
      4          6           0        1.744380    0.137461   -0.001949
      5          1           0        0.491147   -1.470934    0.046286
      6          1           0        1.798509    1.176780    0.078062
      7          1           0        2.605227   -0.406552    0.023264
      8          1           0       -0.522742    1.448914   -0.043607
 ---------------------------------------------------------------------

 SCF Done:  E(RB2PLYPD3) =  -191.611904419     A.U. after   12 cycles
 E2(B2PLYPD3) =    -0.2458994123D+00 E(B2PLYPD3) =    -0.19185780383158D+03

 The electronic state is 1-A.
 Alpha  occ. eigenvalues --  -19.72747 -10.71446 -10.63937 -10.63389  -1.19622
 Alpha  occ. eigenvalues --   -0.93866  -0.76071  -0.67767  -0.57589  -0.56817
 Alpha  occ. eigenvalues --   -0.50846  -0.47797  -0.46817  -0.34868  -0.33866
 Alpha virt. eigenvalues --   -0.01548   0.05944   0.07376   0.08274   0.09848
 Alpha virt. eigenvalues --    0.12853   0.14087   0.15371   0.17708   0.19757
 Alpha virt. eigenvalues --    0.20252   0.21940   0.25689   0.26354   0.28861

 Mulliken charges:
               1
     1  C    0.149111
     2  O   -0.347363
     3  C   -0.033629
     4  C   -0.126970
     5  H    0.104386
     6  H    0.080817
     7  H    0.101059
     8  H    0.072589
 Sum of Mulliken charges =   0.00000

 Dipole moment (field-independent basis, Debye):
    X=              3.4613    Y=              0.7723    Z=              0.0899  Tot=              3.5476
 Quadrupole moment (field-independent basis, Debye-Ang):
   XX=            -27.3630   YY=            -21.7532   ZZ=            -24.9499
   XY=             -1.1209   XZ=              0.2746   YZ=             -0.0176

 Normal termination of Gaussian 09 at Wed Aug 26 08:57:25 2020.
