 Gaussian 09, Revision D.01,
 Gaussian 09:  ES64L-G09RevD.01 24-Apr-2013

 --------------------
 #p B2PLYPD3/Def2QZVP
 --------------------

 --------
 acrolein
 --------
 Symbolic Z-matrix:
 Charge =  0 Multiplicity = 1

                         Standard orientation:
 ---------------------------------------------------------------------
 Center     Atomic      Atomic             Coordinates (Angstroms)
 Number     Number       Type             X           Y           Z
 ---------------------------------------------------------------------
      1          6           0       -0.668983    0.325653    0.023441
      2          8           0       -1.801364   -0.101053   -0.032501
      3          6           0        0.565800   -0.463117   -0.000395
      4          6           0        1.756898    0.156912   -0.005242
      5          1           0        0.427987   -1.502102    0.131412
      6          1           0        1.875651    1.180289   -0.101251
      7          1           0        2.669189   -0.415794   -0.039462
      8          1           0       -0.484212    1.429342    0.162490
 ---------------------------------------------------------------------

 SCF Done:  E(RB2PLYPD3) =  -191.612568294     A.U. after   12 cycles
 E2(B2PLYPD3) =    -0.2472444581D+00 E(B2PLYPD3) =    -0.19185981275212D+03

 The electronic state is 1-A.
 Alpha  occ. eigenvalues --  -19.72868 -10.71625 -10.65318 -10.64483  -1.19432
 Alpha  occ. eigenvalues --   -0.93223  -0.76067  -0.67196  -0.56872  -0.56410
 Alpha  occ. eigenvalues --   -0.50655  -0.47922  -0.46504  -0.34766  -0.33576
 Alpha virt. eigenvalues --   -0.02045   0.05821   0.07227   0.08128   0.09715
 Alpha virt. eigenvalues --    0.12765   0.13916   0.15110   0.17614   0.19661
 Alpha virt. eigenvalues --    0.20248   0.21727   0.24751   0.26859   0.28410

 Mulliken charges:
               1
     1  C    0.152864
     2  O   -0.348209
     3  C   -0.034150
     4  C   -0.127944
     5  H    0.108164
     6  H    0.092203
     7  H    0.097158
     8  H    0.059915
 Sum of Mulliken charges =   0.00000

 Dipole moment (field-independent basis, Debye):
    X=              3.5847    Y=              0.6532    Z=              0.1461  Tot=              3.6467
 Quadrupole moment (field-independent basis, Debye-Ang):
   XX=            -27.3817   YY=            -21.8995   ZZ=            -25.1291
   XY=             -0.5617   XZ=             -0.3601   YZ=             -0.2479

 Normal termination of Gaussian 09 at Wed Aug 26 09:01:26 2020.
