 Gaussian 09, Revision D.01,
 Gaussian 09:  ES64L-G09RevD.01 24-Apr-2013

 --------------------
 #p B2PLYPD3/Def2QZVP
 --------------------

 --------
 acrolein
 --------
 Symbolic Z-matrix:
 Charge =  0 Multiplicity = 1

                         Standard orientation:
 ---------------------------------------------------------------------
 Center     Atomic      Atomic             Coordinates (Angstroms)
 Number     Number       Type             X           Y           Z
 ---------------------------------------------------------------------
      1          6           0       -0.683219    0.358342   -0.003558
      2          8           0       -1.780645   -0.118736   -0.035021
      3          6           0        0.559870   -0.478909    0.034159
      4          6           0        1.778915    0.131710   -0.007430
      5          1           0        0.357176   -1.552342    0.102178
      6          1           0        1.917553    1.286023   -0.130214
      7          1           0        2.619816   -0.393816   -0.074039
      8          1           0       -0.582781    1.543168    0.243219
 ---------------------------------------------------------------------

 SCF Done:  E(RB2PLYPD3) =  -191.594425445     A.U. after   13 cycles
 E2(B2PLYPD3) =    -0.2484492417D+00 E(B2PLYPD3) =    -0.19184287468644D+03

 The electronic state is 1-A.
 Alpha  occ. eigenvalues --  -19.73042 -10.72486 -10.65810 -10.65526  -1.20560
 Alpha  occ. eigenvalues --   -0.91756  -0.75189  -0.65149  -0.57110  -0.55107
 Alpha  occ. eigenvalues --   -0.50773  -0.47242  -0.46602  -0.34340  -0.33257
 Alpha virt. eigenvalues --   -0.01769   0.05696   0.06671   0.07770   0.09547
 Alpha virt. eigenvalues --    0.12261   0.13988   0.15316   0.17139   0.19129
 Alpha virt. eigenvalues --    0.20001   0.21882   0.24589   0.26417   0.28556

 Mulliken charges:
               1
     1  C    0.169936
     2  O   -0.331373
     3  C   -0.070831
     4  C   -0.121395
     5  H    0.113056
     6  H    0.082294
     7  H    0.106129
     8  H    0.052185
 Sum of Mulliken charges =   0.00000

 Dipole moment (field-independent basis, Debye):
    X=              3.3071    Y=              0.6004    Z=              0.0560  Tot=              3.3616
 Quadrupole moment (field-independent basis, Debye-Ang):
   XX=            -27.2379   YY=            -21.8111   ZZ=            -25.4267
   XY=             -0.6964   XZ=             -0.5488   YZ=             -0.1752

 Normal termination of Gaussian 09 at Wed Aug 26 12:50:57 2020.
