 Gaussian 09, Revision D.01,
 Gaussian 09:  ES64L-G09RevD.01 24-Apr-2013

 --------------------
 #p B2PLYPD3/Def2QZVP
 --------------------

 --------
 acrolein
 --------
 Symbolic Z-matrix:
 Charge =  0 Multiplicity = 1

                         Standard orientation:
 ---------------------------------------------------------------------
 Center     Atomic      Atomic             Coordinates (Angstroms)
 Number     Number       Type             X           Y           Z
 ---------------------------------------------------------------------
      1          6           0       -0.668142    0.346732    0.011652
      2          8           0       -1.779395   -0.130139   -0.017352
      3          6           0        0.555879   -0.433110    0.007089
      4          6           0        1.748743    0.143038   -0.022094
      5          1           0        0.461998   -1.499695    0.064479
      6          1           0        1.802916    1.163304   -0.027242
      7          1           0        2.691711   -0.421615    0.028761
      8          1           0       -0.540342    1.459155    0.092926
 ---------------------------------------------------------------------

 SCF Done:  E(RB2PLYPD3) =  -191.613811191     A.U. after   12 cycles
 E2(B2PLYPD3) =    -0.2466720729D+00 E(B2PLYPD3) =    -0.19186048326360D+03

 The electronic state is 1-A.
 Alpha  occ. eigenvalues --  -19.72751 -10.71557 -10.64894 -10.64008  -1.19599
 Alpha  occ. eigenvalues --   -0.93584  -0.75780  -0.67230  -0.57169  -0.56438
 Alpha  occ. eigenvalues --   -0.50519  -0.47345  -0.46745  -0.34821  -0.33849
 Alpha virt. eigenvalues --   -0.01788   0.05821   0.07106   0.08434   0.09813
 Alpha virt. eigenvalues --    0.12617   0.14074   0.15341   0.17489   0.19793
 Alpha virt. eigenvalues --    0.20254   0.21595   0.25571   0.26359   0.28959

 Mulliken charges:
               1
     1  C    0.147994
     2  O   -0.347342
     3  C   -0.027878
     4  C   -0.131376
     5  H    0.104423
     6  H    0.086733
     7  H    0.101070
     8  H    0.066375
 Sum of Mulliken charges =   0.00000

 Dipole moment (field-independent basis, Debye):
    X=              3.4989    Y=              0.7626    Z=              0.1402  Tot=              3.5838
 Quadrupole moment (field-independent basis, Debye-Ang):
   XX=            -27.2695   YY=            -21.8596   ZZ=            -25.0963
   XY=             -1.0504   XZ=             -0.0227   YZ=             -0.0984

 Normal termination of Gaussian 09 at Wed Aug 26 15:22:47 2020.
