 Gaussian 09, Revision D.01,
 Gaussian 09:  ES64L-G09RevD.01 24-Apr-2013

 --------------------
 #p B2PLYPD3/Def2QZVP
 --------------------

 --------
 acrolein
 --------
 Symbolic Z-matrix:
 Charge =  0 Multiplicity = 1

                         Standard orientation:
 ---------------------------------------------------------------------
 Center     Atomic      Atomic             Coordinates (Angstroms)
 Number     Number       Type             X           Y           Z
 ---------------------------------------------------------------------
      1          6           0       -0.671516    0.347940    0.008290
      2          8           0       -1.786819   -0.115169   -0.022711
      3          6           0        0.558289   -0.477417    0.046230
      4          6           0        1.758270    0.151300   -0.033075
      5          1           0        0.479016   -1.539558    0.024333
      6          1           0        1.792616    1.243932    0.055983
      7          1           0        2.638990   -0.385754   -0.071179
      8          1           0       -0.486324    1.471795    0.043883
 ---------------------------------------------------------------------

 SCF Done:  E(RB2PLYPD3) =  -191.612479115     A.U. after   13 cycles
 E2(B2PLYPD3) =    -0.2477271614D+00 E(B2PLYPD3) =    -0.19186020627670D+03

 The electronic state is 1-A.
 Alpha  occ. eigenvalues --  -19.72857 -10.71996 -10.65368 -10.64640  -1.19688
 Alpha  occ. eigenvalues --   -0.92575  -0.75300  -0.66850  -0.56884  -0.55876
 Alpha  occ. eigenvalues --   -0.50463  -0.47759  -0.46748  -0.34275  -0.33771
 Alpha virt. eigenvalues --   -0.01823   0.05826   0.07111   0.07869   0.09748
 Alpha virt. eigenvalues --    0.12635   0.14019   0.15317   0.17407   0.19935
 Alpha virt. eigenvalues --    0.19989   0.21568   0.24916   0.26382   0.28777

 Mulliken charges:
               1
     1  C    0.156794
     2  O   -0.343048
     3  C   -0.044149
     4  C   -0.130476
     5  H    0.107215
     6  H    0.084275
     7  H    0.103661
     8  H    0.065727
 Sum of Mulliken charges =   0.00000

 Dipole moment (field-independent basis, Debye):
    X=              3.4693    Y=              0.6850    Z=              0.0750  Tot=              3.5371
 Quadrupole moment (field-independent basis, Debye-Ang):
   XX=            -27.5126   YY=            -21.6616   ZZ=            -25.2896
   XY=             -0.9449   XZ=             -0.2049   YZ=              0.1210

 Normal termination of Gaussian 09 at Wed Aug 26 08:43:37 2020.
