 Gaussian 09, Revision D.01,
 Gaussian 09:  ES64L-G09RevD.01 24-Apr-2013

 --------------------
 #p B2PLYPD3/Def2QZVP
 --------------------

 --------
 acrolein
 --------
 Symbolic Z-matrix:
 Charge =  0 Multiplicity = 1

                         Standard orientation:
 ---------------------------------------------------------------------
 Center     Atomic      Atomic             Coordinates (Angstroms)
 Number     Number       Type             X           Y           Z
 ---------------------------------------------------------------------
      1          6           0        0.665257    0.331743    0.017633
      2          8           0        1.807445   -0.106310   -0.021194
      3          6           0       -0.580486   -0.461831    0.031963
      4          6           0       -1.758380    0.133072   -0.026829
      5          1           0       -0.460777   -1.545091    0.011055
      6          1           0       -1.896237    1.303740    0.003795
      7          1           0       -2.550647   -0.408745   -0.022291
      8          1           0        0.489753    1.482672    0.040392
 ---------------------------------------------------------------------

 SCF Done:  E(RB2PLYPD3) =  -191.596106927     A.U. after   13 cycles
 E2(B2PLYPD3) =    -0.2482025422D+00 E(B2PLYPD3) =    -0.19184430946889D+03

 The electronic state is 1-A.
 Alpha  occ. eigenvalues --  -19.73070 -10.72362 -10.65111 -10.64700  -1.18777
 Alpha  occ. eigenvalues --   -0.93591  -0.76247  -0.65784  -0.57767  -0.55255
 Alpha  occ. eigenvalues --   -0.50655  -0.46759  -0.46388  -0.35109  -0.33711
 Alpha virt. eigenvalues --   -0.01895   0.05634   0.06969   0.08140   0.09601
 Alpha virt. eigenvalues --    0.12394   0.13939   0.15274   0.17115   0.19379
 Alpha virt. eigenvalues --    0.19981   0.22282   0.25237   0.26430   0.28399

 Mulliken charges:
               1
     1  C    0.165938
     2  O   -0.350172
     3  C   -0.041738
     4  C   -0.122577
     5  H    0.099894
     6  H    0.083772
     7  H    0.110026
     8  H    0.054855
 Sum of Mulliken charges =   0.00000

 Dipole moment (field-independent basis, Debye):
    X=             -3.6048    Y=              0.5983    Z=              0.0701  Tot=              3.6548
 Quadrupole moment (field-independent basis, Debye-Ang):
   XX=            -27.6068   YY=            -21.7244   ZZ=            -25.2480
   XY=              0.7489   XZ=              0.1497   YZ=              0.0375

 Normal termination of Gaussian 09 at Wed Aug 26 08:45:55 2020.
