 Gaussian 09, Revision D.01,
 Gaussian 09:  ES64L-G09RevD.01 24-Apr-2013

 --------------------
 #p B2PLYPD3/Def2QZVP
 --------------------

 --------
 acrolein
 --------
 Symbolic Z-matrix:
 Charge =  0 Multiplicity = 1

                         Standard orientation:
 ---------------------------------------------------------------------
 Center     Atomic      Atomic             Coordinates (Angstroms)
 Number     Number       Type             X           Y           Z
 ---------------------------------------------------------------------
      1          6           0        0.675504    0.346062   -0.029667
      2          8           0        1.787942   -0.113306    0.024680
      3          6           0       -0.563038   -0.469677   -0.013044
      4          6           0       -1.753900    0.146802    0.002983
      5          1           0       -0.462820   -1.538567   -0.024914
      6          1           0       -1.842160    1.244408    0.069783
      7          1           0       -2.639729   -0.395167    0.040421
      8          1           0        0.489776    1.456652   -0.044359
 ---------------------------------------------------------------------

 SCF Done:  E(RB2PLYPD3) =  -191.615080851     A.U. after   12 cycles
 E2(B2PLYPD3) =    -0.2470836160D+00 E(B2PLYPD3) =    -0.19186216446694D+03

 The electronic state is 1-A.
 Alpha  occ. eigenvalues --  -19.72890 -10.71793 -10.65239 -10.64512  -1.19895
 Alpha  occ. eigenvalues --   -0.92736  -0.75335  -0.66817  -0.56764  -0.56123
 Alpha  occ. eigenvalues --   -0.50715  -0.47287  -0.46908  -0.34561  -0.33751
 Alpha virt. eigenvalues --   -0.01616   0.05798   0.07212   0.08033   0.09712
 Alpha virt. eigenvalues --    0.12660   0.14068   0.15353   0.17442   0.19733
 Alpha virt. eigenvalues --    0.19996   0.21697   0.25287   0.26481   0.28606

 Mulliken charges:
               1
     1  C    0.158539
     2  O   -0.342586
     3  C   -0.044400
     4  C   -0.129405
     5  H    0.105916
     6  H    0.082870
     7  H    0.102058
     8  H    0.067007
 Sum of Mulliken charges =   0.00000

 Dipole moment (field-independent basis, Debye):
    X=             -3.4430    Y=              0.6974    Z=             -0.0306  Tot=              3.5130
 Quadrupole moment (field-independent basis, Debye-Ang):
   XX=            -27.4537   YY=            -21.6934   ZZ=            -25.2351
   XY=              0.8215   XZ=             -0.3171   YZ=              0.0835

 Normal termination of Gaussian 09 at Wed Aug 26 11:29:27 2020.
