 Gaussian 09, Revision D.01,
 Gaussian 09:  ES64L-G09RevD.01 24-Apr-2013

 --------------------
 #p B2PLYPD3/Def2QZVP
 --------------------

 --------
 acrolein
 --------
 Symbolic Z-matrix:
 Charge =  0 Multiplicity = 1

                         Standard orientation:
 ---------------------------------------------------------------------
 Center     Atomic      Atomic             Coordinates (Angstroms)
 Number     Number       Type             X           Y           Z
 ---------------------------------------------------------------------
      1          6           0        0.667052    0.317474   -0.048022
      2          8           0        1.806687   -0.101882    0.026850
      3          6           0       -0.563191   -0.433545   -0.027876
      4          6           0       -1.744400    0.157639   -0.014774
      5          1           0       -0.501475   -1.543479    0.045493
      6          1           0       -1.849436    1.197404    0.045945
      7          1           0       -2.723871   -0.440287    0.140313
      8          1           0        0.464521    1.352014    0.097485
 ---------------------------------------------------------------------

 SCF Done:  E(RB2PLYPD3) =  -191.605519808     A.U. after   13 cycles
 E2(B2PLYPD3) =    -0.2476013093D+00 E(B2PLYPD3) =    -0.19185312111735D+03

 The electronic state is 1-A.
 Alpha  occ. eigenvalues --  -19.72881 -10.71066 -10.65978 -10.64528  -1.19130
 Alpha  occ. eigenvalues --   -0.93889  -0.76185  -0.67291  -0.57258  -0.55830
 Alpha  occ. eigenvalues --   -0.50378  -0.46836  -0.46104  -0.35145  -0.33869
 Alpha virt. eigenvalues --   -0.02249   0.05547   0.06912   0.08353   0.09663
 Alpha virt. eigenvalues --    0.12736   0.14171   0.15202   0.17642   0.19518
 Alpha virt. eigenvalues --    0.20073   0.21504   0.25209   0.26853   0.28309

 Mulliken charges:
               1
     1  C    0.156882
     2  O   -0.352708
     3  C   -0.020163
     4  C   -0.124729
     5  H    0.095654
     6  H    0.086630
     7  H    0.094063
     8  H    0.064370
 Sum of Mulliken charges =   0.00000

 Dipole moment (field-independent basis, Debye):
    X=             -3.6430    Y=              0.7119    Z=              0.1109  Tot=              3.7136
 Quadrupole moment (field-independent basis, Debye-Ang):
   XX=            -27.5002   YY=            -21.9845   ZZ=            -25.0959
   XY=              0.7439   XZ=             -0.5568   YZ=             -0.0605

 Normal termination of Gaussian 09 at Wed Aug 26 14:43:40 2020.
