 Gaussian 09, Revision D.01,
 Gaussian 09:  ES64L-G09RevD.01 24-Apr-2013

 --------------------
 #p B2PLYPD3/Def2QZVP
 --------------------

 --------
 acrolein
 --------
 Symbolic Z-matrix:
 Charge =  0 Multiplicity = 1

                         Standard orientation:
 ---------------------------------------------------------------------
 Center     Atomic      Atomic             Coordinates (Angstroms)
 Number     Number       Type             X           Y           Z
 ---------------------------------------------------------------------
      1          6           0       -0.644583   -0.314584    0.050194
      2          8           0       -1.804263    0.087306   -0.048246
      3          6           0        0.598261    0.497333   -0.027801
      4          6           0        1.735799   -0.203122   -0.009856
      5          1           0        0.489005    1.626892    0.227887
      6          1           0        1.767846   -1.168428   -0.144125
      7          1           0        2.554966    0.362081   -0.012923
      8          1           0       -0.514575   -1.396752    0.239902
 ---------------------------------------------------------------------

 SCF Done:  E(RB2PLYPD3) =  -191.589055309     A.U. after   14 cycles
 E2(B2PLYPD3) =    -0.2482456541D+00 E(B2PLYPD3) =    -0.19183730096359D+03

 The electronic state is 1-A.
 Alpha  occ. eigenvalues --  -19.72598 -10.71698 -10.65681 -10.63611  -1.18021
 Alpha  occ. eigenvalues --   -0.93904  -0.76247  -0.66902  -0.58212  -0.56041
 Alpha  occ. eigenvalues --   -0.49839  -0.48226  -0.45446  -0.34919  -0.33412
 Alpha virt. eigenvalues --   -0.01878   0.06107   0.06213   0.07580   0.09621
 Alpha virt. eigenvalues --    0.13121   0.13936   0.14853   0.16971   0.19679
 Alpha virt. eigenvalues --    0.20774   0.22198   0.23966   0.26993   0.28110

 Mulliken charges:
               1
     1  C    0.142746
     2  O   -0.355403
     3  C   -0.030253
     4  C   -0.123091
     5  H    0.099911
     6  H    0.095289
     7  H    0.098688
     8  H    0.072113
 Sum of Mulliken charges =   0.00000

 Dipole moment (field-independent basis, Debye):
    X=              3.6527    Y=             -0.6673    Z=              0.3177  Tot=              3.7267
 Quadrupole moment (field-independent basis, Debye-Ang):
   XX=            -28.0529   YY=            -21.4669   ZZ=            -25.0644
   XY=              0.6619   XZ=             -0.3858   YZ=              0.4594

 Normal termination of Gaussian 09 at Wed Aug 26 13:45:05 2020.
