 Gaussian 09, Revision D.01,
 Gaussian 09:  ES64L-G09RevD.01 24-Apr-2013

 --------------------
 #p B2PLYPD3/Def2QZVP
 --------------------

 --------
 acrolein
 --------
 Symbolic Z-matrix:
 Charge =  0 Multiplicity = 1

                         Standard orientation:
 ---------------------------------------------------------------------
 Center     Atomic      Atomic             Coordinates (Angstroms)
 Number     Number       Type             X           Y           Z
 ---------------------------------------------------------------------
      1          6           0        0.675885    0.364578    0.042957
      2          8           0        1.789344   -0.128964   -0.036972
      3          6           0       -0.572993   -0.448044    0.021541
      4          6           0       -1.759467    0.139972   -0.041480
      5          1           0       -0.430545   -1.534547    0.038042
      6          1           0       -1.807741    1.211397   -0.107843
      7          1           0       -2.612239   -0.437696    0.095699
      8          1           0        0.475221    1.453520    0.131775
 ---------------------------------------------------------------------

 SCF Done:  E(RB2PLYPD3) =  -191.612531720     A.U. after   13 cycles
 E2(B2PLYPD3) =    -0.2476021924D+00 E(B2PLYPD3) =    -0.19186013391279D+03

 The electronic state is 1-A.
 Alpha  occ. eigenvalues --  -19.73134 -10.72035 -10.64640 -10.64358  -1.19075
 Alpha  occ. eigenvalues --   -0.93089  -0.75547  -0.66824  -0.56931  -0.56044
 Alpha  occ. eigenvalues --   -0.50826  -0.47120  -0.46394  -0.34737  -0.33860
 Alpha virt. eigenvalues --   -0.01759   0.05851   0.07109   0.07923   0.09872
 Alpha virt. eigenvalues --    0.12659   0.13782   0.15446   0.17244   0.19315
 Alpha virt. eigenvalues --    0.20095   0.22078   0.25257   0.26696   0.28668

 Mulliken charges:
               1
     1  C    0.156990
     2  O   -0.350134
     3  C   -0.039500
     4  C   -0.133995
     5  H    0.103031
     6  H    0.083138
     7  H    0.105758
     8  H    0.074711
 Sum of Mulliken charges =   0.00000

 Dipole moment (field-independent basis, Debye):
    X=             -3.4031    Y=              0.7997    Z=              0.2050  Tot=              3.5018
 Quadrupole moment (field-independent basis, Debye-Ang):
   XX=            -27.7553   YY=            -21.6413   ZZ=            -25.1877
   XY=              0.9552   XZ=              0.0773   YZ=             -0.1719

 Normal termination of Gaussian 09 at Wed Aug 26 08:47:41 2020.
