 Gaussian 09, Revision D.01,
 Gaussian 09:  ES64L-G09RevD.01 24-Apr-2013

 --------------------
 #p B2PLYPD3/Def2QZVP
 --------------------

 --------
 acrolein
 --------
 Symbolic Z-matrix:
 Charge =  0 Multiplicity = 1

                         Standard orientation:
 ---------------------------------------------------------------------
 Center     Atomic      Atomic             Coordinates (Angstroms)
 Number     Number       Type             X           Y           Z
 ---------------------------------------------------------------------
      1          6           0       -0.668352   -0.333088   -0.036665
      2          8           0       -1.799945    0.086985    0.015105
      3          6           0        0.557926    0.478332   -0.035383
      4          6           0        1.779231   -0.157606   -0.018726
      5          1           0        0.424953    1.651225    0.082554
      6          1           0        1.878736   -1.334451   -0.019077
      7          1           0        2.684698    0.376964    0.184514
      8          1           0       -0.601660   -1.315450    0.175814
 ---------------------------------------------------------------------

 SCF Done:  E(RB2PLYPD3) =  -191.588744817     A.U. after   13 cycles
 E2(B2PLYPD3) =    -0.2487603113D+00 E(B2PLYPD3) =    -0.19183750512871D+03

 The electronic state is 1-A.
 Alpha  occ. eigenvalues --  -19.72311 -10.70291 -10.67192 -10.66406  -1.19506
 Alpha  occ. eigenvalues --   -0.91701  -0.75506  -0.67122  -0.56347  -0.55513
 Alpha  occ. eigenvalues --   -0.50235  -0.46504  -0.45681  -0.34117  -0.33615
 Alpha virt. eigenvalues --   -0.02329   0.05507   0.06518   0.07871   0.09482
 Alpha virt. eigenvalues --    0.12250   0.14383   0.15271   0.17267   0.18768
 Alpha virt. eigenvalues --    0.19907   0.21592   0.24402   0.27057   0.29047

 Mulliken charges:
               1
     1  C    0.170293
     2  O   -0.350228
     3  C   -0.060561
     4  C   -0.125051
     5  H    0.102875
     6  H    0.080798
     7  H    0.105838
     8  H    0.076036
 Sum of Mulliken charges =   0.00000

 Dipole moment (field-independent basis, Debye):
    X=              3.5342    Y=             -0.7380    Z=              0.2175  Tot=              3.6169
 Quadrupole moment (field-independent basis, Debye-Ang):
   XX=            -27.6525   YY=            -21.5274   ZZ=            -25.4107
   XY=              0.7519   XZ=              0.5185   YZ=              0.1975

 Normal termination of Gaussian 09 at Wed Aug 26 14:36:08 2020.
