 Gaussian 09, Revision D.01,
 Gaussian 09:  ES64L-G09RevD.01 24-Apr-2013

 --------------------
 #p B2PLYPD3/Def2QZVP
 --------------------

 --------
 acrolein
 --------
 Symbolic Z-matrix:
 Charge =  0 Multiplicity = 1

                         Standard orientation:
 ---------------------------------------------------------------------
 Center     Atomic      Atomic             Coordinates (Angstroms)
 Number     Number       Type             X           Y           Z
 ---------------------------------------------------------------------
      1          6           0       -0.700447    0.341473    0.097648
      2          8           0       -1.770591   -0.149734   -0.070532
      3          6           0        0.547769   -0.402152    0.012369
      4          6           0        1.760927    0.129105   -0.069993
      5          1           0        0.446932   -1.429039    0.167138
      6          1           0        1.792492    1.078079   -0.151745
      7          1           0        2.801994   -0.427565    0.141195
      8          1           0       -0.526185    1.565840    0.167528
 ---------------------------------------------------------------------

 SCF Done:  E(RB2PLYPD3) =  -191.578854865     A.U. after   13 cycles
 E2(B2PLYPD3) =    -0.2474776379D+00 E(B2PLYPD3) =    -0.19182633250281D+03

 The electronic state is 1-A.
 Alpha  occ. eigenvalues --  -19.73665 -10.72816 -10.64968 -10.63712  -1.21512
 Alpha  occ. eigenvalues --   -0.93505  -0.75808  -0.66605  -0.56952  -0.56134
 Alpha  occ. eigenvalues --   -0.50823  -0.47932  -0.46607  -0.34816  -0.33745
 Alpha virt. eigenvalues --   -0.02122   0.05656   0.06952   0.08382   0.09895
 Alpha virt. eigenvalues --    0.12184   0.13824   0.15267   0.17508   0.19249
 Alpha virt. eigenvalues --    0.20278   0.21807   0.24942   0.26319   0.29099

 Mulliken charges:
               1
     1  C    0.154081
     2  O   -0.319615
     3  C   -0.015663
     4  C   -0.135480
     5  H    0.097941
     6  H    0.090760
     7  H    0.097409
     8  H    0.030568
 Sum of Mulliken charges =   0.00000

 Dipole moment (field-independent basis, Debye):
    X=              3.2375    Y=              0.6634    Z=              0.4286  Tot=              3.3325
 Quadrupole moment (field-independent basis, Debye-Ang):
   XX=            -26.6856   YY=            -22.5399   ZZ=            -25.1041
   XY=             -0.9420   XZ=             -0.0613   YZ=             -0.4559

 Normal termination of Gaussian 09 at Wed Aug 26 14:06:42 2020.
