 Gaussian 09, Revision D.01,
 Gaussian 09:  ES64L-G09RevD.01 24-Apr-2013

 --------------------
 #p B2PLYPD3/Def2QZVP
 --------------------

 --------
 acrolein
 --------
 Symbolic Z-matrix:
 Charge =  0 Multiplicity = 1

                         Standard orientation:
 ---------------------------------------------------------------------
 Center     Atomic      Atomic             Coordinates (Angstroms)
 Number     Number       Type             X           Y           Z
 ---------------------------------------------------------------------
      1          6           0        0.683072    0.342588   -0.038932
      2          8           0        1.782804   -0.104704    0.036227
      3          6           0       -0.536122   -0.464263   -0.069054
      4          6           0       -1.773404    0.127896    0.013717
      5          1           0       -0.459802   -1.483487    0.029855
      6          1           0       -2.018363    1.334305   -0.046680
      7          1           0       -2.609764   -0.442393    0.214385
      8          1           0        0.584226    1.391890    0.078242
 ---------------------------------------------------------------------

 SCF Done:  E(RB2PLYPD3) =  -191.594061208     A.U. after   13 cycles
 E2(B2PLYPD3) =    -0.2470329116D+00 E(B2PLYPD3) =    -0.19184109411998D+03

 The electronic state is 1-A.
 Alpha  occ. eigenvalues --  -19.72300 -10.70537 -10.67005 -10.64494  -1.20622
 Alpha  occ. eigenvalues --   -0.92084  -0.75529  -0.67658  -0.56683  -0.56403
 Alpha  occ. eigenvalues --   -0.50674  -0.47197  -0.46372  -0.33996  -0.33621
 Alpha virt. eigenvalues --   -0.02002   0.05404   0.07451   0.08128   0.09430
 Alpha virt. eigenvalues --    0.12170   0.14243   0.15420   0.18141   0.18814
 Alpha virt. eigenvalues --    0.19994   0.21803   0.24312   0.26864   0.28431

 Mulliken charges:
               1
     1  C    0.159404
     2  O   -0.340654
     3  C   -0.063986
     4  C   -0.129386
     5  H    0.115350
     6  H    0.080358
     7  H    0.102141
     8  H    0.076772
 Sum of Mulliken charges =   0.00000

 Dipole moment (field-independent basis, Debye):
    X=             -3.4579    Y=              0.7024    Z=              0.0901  Tot=              3.5297
 Quadrupole moment (field-independent basis, Debye-Ang):
   XX=            -27.2626   YY=            -21.6530   ZZ=            -25.2445
   XY=              0.8335   XZ=             -0.6574   YZ=             -0.2322

 Normal termination of Gaussian 09 at Wed Aug 26 12:32:43 2020.
