 Gaussian 09, Revision D.01,
 Gaussian 09:  ES64L-G09RevD.01 24-Apr-2013

 --------------------
 #p B2PLYPD3/Def2QZVP
 --------------------

 --------
 acrolein
 --------
 Symbolic Z-matrix:
 Charge =  0 Multiplicity = 1

                         Standard orientation:
 ---------------------------------------------------------------------
 Center     Atomic      Atomic             Coordinates (Angstroms)
 Number     Number       Type             X           Y           Z
 ---------------------------------------------------------------------
      1          6           0       -0.665316    0.358531   -0.045760
      2          8           0       -1.791185   -0.132166    0.035014
      3          6           0        0.561413   -0.449171   -0.008036
      4          6           0        1.748649    0.132185    0.003904
      5          1           0        0.464419   -1.542546   -0.047697
      6          1           0        1.794546    1.209676    0.146105
      7          1           0        2.668348   -0.401611    0.009000
      8          1           0       -0.466303    1.542534   -0.088164
 ---------------------------------------------------------------------

 SCF Done:  E(RB2PLYPD3) =  -191.608390176     A.U. after   13 cycles
 E2(B2PLYPD3) =    -0.2490386826D+00 E(B2PLYPD3) =    -0.19185742885838D+03

 The electronic state is 1-A.
 Alpha  occ. eigenvalues --  -19.73257 -10.72975 -10.65191 -10.64590  -1.18587
 Alpha  occ. eigenvalues --   -0.93384  -0.75308  -0.65908  -0.56846  -0.55596
 Alpha  occ. eigenvalues --   -0.50342  -0.46587  -0.46376  -0.34872  -0.33958
 Alpha virt. eigenvalues --   -0.02016   0.05702   0.06787   0.07821   0.09781
 Alpha virt. eigenvalues --    0.12528   0.13788   0.15213   0.17013   0.19665
 Alpha virt. eigenvalues --    0.20217   0.21625   0.25086   0.26326   0.28858

 Mulliken charges:
               1
     1  C    0.162093
     2  O   -0.350086
     3  C   -0.033604
     4  C   -0.121536
     5  H    0.103102
     6  H    0.078955
     7  H    0.103370
     8  H    0.057706
 Sum of Mulliken charges =   0.00000

 Dipole moment (field-independent basis, Debye):
    X=              3.5498    Y=              0.6979    Z=             -0.0682  Tot=              3.6184
 Quadrupole moment (field-independent basis, Debye-Ang):
   XX=            -27.4889   YY=            -21.8583   ZZ=            -25.2963
   XY=             -0.9988   XZ=              0.3699   YZ=              0.2009

 Normal termination of Gaussian 09 at Wed Aug 26 09:34:00 2020.
