 Gaussian 09, Revision D.01,
 Gaussian 09:  ES64L-G09RevD.01 24-Apr-2013

 --------------------
 #p B2PLYPD3/Def2QZVP
 --------------------

 --------
 acrolein
 --------
 Symbolic Z-matrix:
 Charge =  0 Multiplicity = 1

                         Standard orientation:
 ---------------------------------------------------------------------
 Center     Atomic      Atomic             Coordinates (Angstroms)
 Number     Number       Type             X           Y           Z
 ---------------------------------------------------------------------
      1          6           0       -0.672002    0.356249    0.002058
      2          8           0       -1.775838   -0.131949    0.018343
      3          6           0        0.558172   -0.422261   -0.039386
      4          6           0        1.749011    0.121811    0.013809
      5          1           0        0.445248   -1.512065   -0.040543
      6          1           0        1.815818    1.226492   -0.026248
      7          1           0        2.624789   -0.437483    0.112863
      8          1           0       -0.490231    1.443856   -0.051704
 ---------------------------------------------------------------------

 SCF Done:  E(RB2PLYPD3) =  -191.614328187     A.U. after   12 cycles
 E2(B2PLYPD3) =    -0.2465625139D+00 E(B2PLYPD3) =    -0.19186089070070D+03

 The electronic state is 1-A.
 Alpha  occ. eigenvalues --  -19.72942 -10.71497 -10.64901 -10.63827  -1.19839
 Alpha  occ. eigenvalues --   -0.93619  -0.75933  -0.66691  -0.57193  -0.56316
 Alpha  occ. eigenvalues --   -0.51181  -0.47166  -0.46051  -0.35028  -0.33956
 Alpha virt. eigenvalues --   -0.01620   0.05821   0.07125   0.08458   0.09824
 Alpha virt. eigenvalues --    0.12568   0.14049   0.15355   0.17411   0.19681
 Alpha virt. eigenvalues --    0.19841   0.21924   0.25722   0.26532   0.28720

 Mulliken charges:
               1
     1  C    0.159030
     2  O   -0.345881
     3  C   -0.031653
     4  C   -0.130440
     5  H    0.097561
     6  H    0.076165
     7  H    0.107990
     8  H    0.067229
 Sum of Mulliken charges =   0.00000

 Dipole moment (field-independent basis, Debye):
    X=              3.4350    Y=              0.7634    Z=             -0.0105  Tot=              3.5189
 Quadrupole moment (field-independent basis, Debye-Ang):
   XX=            -27.3609   YY=            -21.8758   ZZ=            -25.0728
   XY=             -1.0853   XZ=              0.3237   YZ=             -0.0907

 Normal termination of Gaussian 09 at Wed Aug 26 09:40:13 2020.
