 Gaussian 09, Revision D.01,
 Gaussian 09:  ES64L-G09RevD.01 24-Apr-2013

 --------------------
 #p B2PLYPD3/Def2QZVP
 --------------------

 --------
 acrolein
 --------
 Symbolic Z-matrix:
 Charge =  0 Multiplicity = 1

                         Standard orientation:
 ---------------------------------------------------------------------
 Center     Atomic      Atomic             Coordinates (Angstroms)
 Number     Number       Type             X           Y           Z
 ---------------------------------------------------------------------
      1          6           0        0.667607    0.349985    0.017767
      2          8           0        1.784310   -0.128910   -0.021475
      3          6           0       -0.552279   -0.431709    0.014156
      4          6           0       -1.747735    0.134399   -0.007695
      5          1           0       -0.441259   -1.498915    0.028608
      6          1           0       -1.814358    1.195396   -0.087330
      7          1           0       -2.735289   -0.432526   -0.003777
      8          1           0        0.510873    1.451272    0.088927
 ---------------------------------------------------------------------

 SCF Done:  E(RB2PLYPD3) =  -191.613763326     A.U. after   13 cycles
 E2(B2PLYPD3) =    -0.2473877160D+00 E(B2PLYPD3) =    -0.19186115104214D+03

 The electronic state is 1-A.
 Alpha  occ. eigenvalues --  -19.72837 -10.71610 -10.65814 -10.64032  -1.19271
 Alpha  occ. eigenvalues --   -0.93490  -0.75498  -0.67111  -0.56752  -0.56116
 Alpha  occ. eigenvalues --   -0.50471  -0.46782  -0.46482  -0.34861  -0.33964
 Alpha virt. eigenvalues --   -0.01907   0.05634   0.07107   0.08328   0.09757
 Alpha virt. eigenvalues --    0.12453   0.13966   0.15346   0.17555   0.19620
 Alpha virt. eigenvalues --    0.20162   0.21261   0.25530   0.26421   0.28926

 Mulliken charges:
               1
     1  C    0.152599
     2  O   -0.351712
     3  C   -0.030278
     4  C   -0.127965
     5  H    0.105794
     6  H    0.082938
     7  H    0.100164
     8  H    0.068459
 Sum of Mulliken charges =   0.00000

 Dipole moment (field-independent basis, Debye):
    X=             -3.5356    Y=              0.7702    Z=              0.0455  Tot=              3.6188
 Quadrupole moment (field-independent basis, Debye-Ang):
   XX=            -27.3042   YY=            -21.9041   ZZ=            -25.1793
   XY=              1.0014   XZ=              0.2387   YZ=             -0.1011

 Normal termination of Gaussian 09 at Wed Aug 26 16:31:56 2020.
