 Gaussian 09, Revision D.01,
 Gaussian 09:  ES64L-G09RevD.01 24-Apr-2013

 --------------------
 #p B2PLYPD3/Def2QZVP
 --------------------

 --------
 acrolein
 --------
 Symbolic Z-matrix:
 Charge =  0 Multiplicity = 1

                         Standard orientation:
 ---------------------------------------------------------------------
 Center     Atomic      Atomic             Coordinates (Angstroms)
 Number     Number       Type             X           Y           Z
 ---------------------------------------------------------------------
      1          6           0        0.677471    0.361915    0.026674
      2          8           0        1.784574   -0.145113   -0.027121
      3          6           0       -0.560735   -0.439515    0.050677
      4          6           0       -1.737657    0.122288   -0.024570
      5          1           0       -0.511263   -1.444755   -0.037395
      6          1           0       -1.835895    1.213816   -0.018569
      7          1           0       -2.710583   -0.409441   -0.050374
      8          1           0        0.506681    1.533162    0.006620
 ---------------------------------------------------------------------

 SCF Done:  E(RB2PLYPD3) =  -191.606433976     A.U. after   13 cycles
 E2(B2PLYPD3) =    -0.2476428598D+00 E(B2PLYPD3) =    -0.19185407683615D+03

 The electronic state is 1-A.
 Alpha  occ. eigenvalues --  -19.73210 -10.72744 -10.65302 -10.63355  -1.19313
 Alpha  occ. eigenvalues --   -0.93672  -0.74784  -0.67175  -0.56653  -0.56150
 Alpha  occ. eigenvalues --   -0.50630  -0.46858  -0.46311  -0.35170  -0.33935
 Alpha virt. eigenvalues --   -0.01550   0.05669   0.07169   0.08011   0.09713
 Alpha virt. eigenvalues --    0.12325   0.13776   0.15276   0.17918   0.19776
 Alpha virt. eigenvalues --    0.19866   0.21177   0.25412   0.26329   0.28870

 Mulliken charges:
               1
     1  C    0.156015
     2  O   -0.344481
     3  C   -0.040085
     4  C   -0.114361
     5  H    0.111256
     6  H    0.072330
     7  H    0.094994
     8  H    0.064332
 Sum of Mulliken charges =   0.00000

 Dipole moment (field-independent basis, Debye):
    X=             -3.4602    Y=              0.7598    Z=             -0.0049  Tot=              3.5426
 Quadrupole moment (field-independent basis, Debye-Ang):
   XX=            -27.2375   YY=            -21.9576   ZZ=            -25.1736
   XY=              1.1064   XZ=              0.3093   YZ=              0.0862

 Normal termination of Gaussian 09 at Wed Aug 26 09:48:11 2020.
