 Gaussian 09, Revision D.01,
 Gaussian 09:  ES64L-G09RevD.01 24-Apr-2013

 --------------------
 #p B2PLYPD3/Def2QZVP
 --------------------

 --------
 acrolein
 --------
 Symbolic Z-matrix:
 Charge =  0 Multiplicity = 1

                         Standard orientation:
 ---------------------------------------------------------------------
 Center     Atomic      Atomic             Coordinates (Angstroms)
 Number     Number       Type             X           Y           Z
 ---------------------------------------------------------------------
      1          6           0       -0.660904    0.332980   -0.013377
      2          8           0       -1.804932   -0.106380    0.018450
      3          6           0        0.568207   -0.454026   -0.020927
      4          6           0        1.756820    0.140662    0.003404
      5          1           0        0.448317   -1.549825   -0.033772
      6          1           0        1.866155    1.258927    0.003504
      7          1           0        2.637002   -0.413632    0.092935
      8          1           0       -0.496761    1.437869   -0.024872
 ---------------------------------------------------------------------

 SCF Done:  E(RB2PLYPD3) =  -191.613185718     A.U. after   12 cycles
 E2(B2PLYPD3) =    -0.2480776846D+00 E(B2PLYPD3) =    -0.19186126340234D+03

 The electronic state is 1-A.
 Alpha  occ. eigenvalues --  -19.72828 -10.71761 -10.65737 -10.64776  -1.18545
 Alpha  occ. eigenvalues --   -0.93384  -0.75966  -0.66449  -0.56901  -0.55993
 Alpha  occ. eigenvalues --   -0.50422  -0.46803  -0.46268  -0.34874  -0.33817
 Alpha virt. eigenvalues --   -0.02114   0.05674   0.06999   0.08220   0.09663
 Alpha virt. eigenvalues --    0.12529   0.14016   0.15274   0.17286   0.19607
 Alpha virt. eigenvalues --    0.19943   0.21811   0.25330   0.26479   0.28638

 Mulliken charges:
               1
     1  C    0.159376
     2  O   -0.356420
     3  C   -0.033908
     4  C   -0.124582
     5  H    0.101343
     6  H    0.084099
     7  H    0.105842
     8  H    0.064251
 Sum of Mulliken charges =   0.00000

 Dipole moment (field-independent basis, Debye):
    X=              3.6679    Y=              0.6802    Z=             -0.0110  Tot=              3.7305
 Quadrupole moment (field-independent basis, Debye-Ang):
   XX=            -27.5547   YY=            -21.7561   ZZ=            -25.2424
   XY=             -0.7753   XZ=              0.3129   YZ=             -0.0152

 Normal termination of Gaussian 09 at Wed Aug 26 20:52:05 2020.
