 Gaussian 09, Revision D.01,
 Gaussian 09:  ES64L-G09RevD.01 24-Apr-2013

 --------------------
 #p B2PLYPD3/Def2QZVP
 --------------------

 --------
 acrolein
 --------
 Symbolic Z-matrix:
 Charge =  0 Multiplicity = 1

                         Standard orientation:
 ---------------------------------------------------------------------
 Center     Atomic      Atomic             Coordinates (Angstroms)
 Number     Number       Type             X           Y           Z
 ---------------------------------------------------------------------
      1          6           0       -0.674926    0.347116    0.021156
      2          8           0       -1.781203   -0.131506   -0.023795
      3          6           0        0.552322   -0.413016   -0.005828
      4          6           0        1.765657    0.125434   -0.014981
      5          1           0        0.401504   -1.525027    0.111859
      6          1           0        1.828421    1.168950   -0.055264
      7          1           0        2.712340   -0.421168    0.016338
      8          1           0       -0.550960    1.472091    0.115352
 ---------------------------------------------------------------------

 SCF Done:  E(RB2PLYPD3) =  -191.612369043     A.U. after   12 cycles
 E2(B2PLYPD3) =    -0.2471581753D+00 E(B2PLYPD3) =    -0.19185952721865D+03

 The electronic state is 1-A.
 Alpha  occ. eigenvalues --  -19.72901 -10.71671 -10.65324 -10.64603  -1.19920
 Alpha  occ. eigenvalues --   -0.93312  -0.76066  -0.66202  -0.57022  -0.56444
 Alpha  occ. eigenvalues --   -0.50921  -0.47267  -0.45770  -0.34863  -0.33892
 Alpha virt. eigenvalues --   -0.02007   0.05793   0.06940   0.08607   0.09791
 Alpha virt. eigenvalues --    0.12456   0.14034   0.15258   0.17283   0.19684
 Alpha virt. eigenvalues --    0.20112   0.21625   0.25403   0.26599   0.28988

 Mulliken charges:
               1
     1  C    0.155118
     2  O   -0.343394
     3  C   -0.028027
     4  C   -0.128611
     5  H    0.096216
     6  H    0.082733
     7  H    0.107617
     8  H    0.058348
 Sum of Mulliken charges =   0.00000

 Dipole moment (field-independent basis, Debye):
    X=              3.4975    Y=              0.7682    Z=              0.1742  Tot=              3.5851
 Quadrupole moment (field-independent basis, Debye-Ang):
   XX=            -26.9944   YY=            -22.0991   ZZ=            -25.1704
   XY=             -0.9835   XZ=             -0.1037   YZ=             -0.1953

 Normal termination of Gaussian 09 at Wed Aug 26 09:47:59 2020.
