 Gaussian 09, Revision D.01,
 Gaussian 09:  ES64L-G09RevD.01 24-Apr-2013

 --------------------
 #p B2PLYPD3/Def2QZVP
 --------------------

 --------
 acrolein
 --------
 Symbolic Z-matrix:
 Charge =  0 Multiplicity = 1

                         Standard orientation:
 ---------------------------------------------------------------------
 Center     Atomic      Atomic             Coordinates (Angstroms)
 Number     Number       Type             X           Y           Z
 ---------------------------------------------------------------------
      1          6           0       -0.712591    0.390957    0.091335
      2          8           0       -1.753794   -0.176431   -0.069990
      3          6           0        0.550479   -0.427937    0.022789
      4          6           0        1.765284    0.108033   -0.068770
      5          1           0        0.489151   -1.318406    0.158098
      6          1           0        1.828900    1.240208   -0.136833
      7          1           0        2.702502   -0.456004    0.119857
      8          1           0       -0.609235    1.519329    0.146675
 ---------------------------------------------------------------------

 SCF Done:  E(RB2PLYPD3) =  -191.577623173     A.U. after   13 cycles
 E2(B2PLYPD3) =    -0.2465696342D+00 E(B2PLYPD3) =    -0.19182419280680D+03

 The electronic state is 1-A.
 Alpha  occ. eigenvalues --  -19.73253 -10.72299 -10.65403 -10.62223  -1.20886
 Alpha  occ. eigenvalues --   -0.92665  -0.74125  -0.68803  -0.57098  -0.56102
 Alpha  occ. eigenvalues --   -0.51275  -0.47284  -0.46562  -0.34578  -0.33667
 Alpha virt. eigenvalues --   -0.01361   0.05734   0.07463   0.07882   0.09806
 Alpha virt. eigenvalues --    0.12045   0.13910   0.15491   0.18278   0.19140
 Alpha virt. eigenvalues --    0.19727   0.21524   0.25062   0.26545   0.29374

 Mulliken charges:
               1
     1  C    0.158366
     2  O   -0.328835
     3  C   -0.084488
     4  C   -0.118344
     5  H    0.132840
     6  H    0.064292
     7  H    0.093426
     8  H    0.082742
 Sum of Mulliken charges =   0.00000

 Dipole moment (field-independent basis, Debye):
    X=              2.9922    Y=              0.9313    Z=              0.4673  Tot=              3.1684
 Quadrupole moment (field-independent basis, Debye-Ang):
   XX=            -27.2431   YY=            -21.8137   ZZ=            -25.1002
   XY=             -1.5362   XZ=             -0.0795   YZ=             -0.3594

 Normal termination of Gaussian 09 at Wed Aug 26 12:03:12 2020.
