 Gaussian 09, Revision D.01,
 Gaussian 09:  ES64L-G09RevD.01 24-Apr-2013

 --------------------
 #p B2PLYPD3/Def2QZVP
 --------------------

 --------
 acrolein
 --------
 Symbolic Z-matrix:
 Charge =  0 Multiplicity = 1

                         Standard orientation:
 ---------------------------------------------------------------------
 Center     Atomic      Atomic             Coordinates (Angstroms)
 Number     Number       Type             X           Y           Z
 ---------------------------------------------------------------------
      1          6           0        0.671649    0.352520    0.013896
      2          8           0        1.783119   -0.131797   -0.022027
      3          6           0       -0.553163   -0.441235    0.012896
      4          6           0       -1.745962    0.148378   -0.011090
      5          1           0       -0.477022   -1.519105    0.067959
      6          1           0       -1.775959    1.160729   -0.048837
      7          1           0       -2.740580   -0.422277   -0.030764
      8          1           0        0.493462    1.477049    0.093653
 ---------------------------------------------------------------------

 SCF Done:  E(RB2PLYPD3) =  -191.609259895     A.U. after   12 cycles
 E2(B2PLYPD3) =    -0.2475630116D+00 E(B2PLYPD3) =    -0.19185682290685D+03

 The electronic state is 1-A.
 Alpha  occ. eigenvalues --  -19.72962 -10.72028 -10.65315 -10.64238  -1.19505
 Alpha  occ. eigenvalues --   -0.93370  -0.75311  -0.67084  -0.56830  -0.55967
 Alpha  occ. eigenvalues --   -0.50263  -0.47167  -0.46677  -0.34736  -0.33934
 Alpha virt. eigenvalues --   -0.01808   0.05711   0.06931   0.08187   0.09778
 Alpha virt. eigenvalues --    0.12530   0.13928   0.15299   0.17419   0.19782
 Alpha virt. eigenvalues --    0.20343   0.21295   0.25457   0.26303   0.28952

 Mulliken charges:
               1
     1  C    0.148181
     2  O   -0.346109
     3  C   -0.026339
     4  C   -0.133329
     5  H    0.104787
     6  H    0.087194
     7  H    0.099532
     8  H    0.066082
 Sum of Mulliken charges =   0.00000

 Dipole moment (field-independent basis, Debye):
    X=             -3.4859    Y=              0.7641    Z=              0.0859  Tot=              3.5697
 Quadrupole moment (field-independent basis, Debye-Ang):
   XX=            -27.3397   YY=            -21.8709   ZZ=            -25.2127
   XY=              1.0440   XZ=              0.2232   YZ=             -0.0936

 Normal termination of Gaussian 09 at Wed Aug 26 15:52:47 2020.
