 Gaussian 09, Revision D.01,
 Gaussian 09:  ES64L-G09RevD.01 24-Apr-2013

 --------------------
 #p B2PLYPD3/Def2QZVP
 --------------------

 --------
 acrolein
 --------
 Symbolic Z-matrix:
 Charge =  0 Multiplicity = 1

                         Standard orientation:
 ---------------------------------------------------------------------
 Center     Atomic      Atomic             Coordinates (Angstroms)
 Number     Number       Type             X           Y           Z
 ---------------------------------------------------------------------
      1          6           0       -0.683201    0.322639    0.070602
      2          8           0       -1.806797   -0.094401   -0.052751
      3          6           0        0.530771   -0.442759    0.067802
      4          6           0        1.782741    0.129212   -0.051319
      5          1           0        0.418439   -1.561097   -0.031744
      6          1           0        1.898112    1.325433   -0.000439
      7          1           0        2.779716   -0.461957   -0.048354
      8          1           0       -0.423751    1.398280   -0.019965
 ---------------------------------------------------------------------

 SCF Done:  E(RB2PLYPD3) =  -191.593964991     A.U. after   13 cycles
 E2(B2PLYPD3) =    -0.2500586342D+00 E(B2PLYPD3) =    -0.19184402362530D+03

 The electronic state is 1-A.
 Alpha  occ. eigenvalues --  -19.73035 -10.71438 -10.68710 -10.65537  -1.19972
 Alpha  occ. eigenvalues --   -0.92141  -0.75468  -0.65756  -0.56233  -0.54912
 Alpha  occ. eigenvalues --   -0.50236  -0.47211  -0.45181  -0.34480  -0.33662
 Alpha virt. eigenvalues --   -0.02938   0.05122   0.06794   0.08224   0.09619
 Alpha virt. eigenvalues --    0.12016   0.13714   0.15316   0.17649   0.19083
 Alpha virt. eigenvalues --    0.19738   0.20894   0.24406   0.27000   0.28538

 Mulliken charges:
               1
     1  C    0.168584
     2  O   -0.343245
     3  C   -0.032577
     4  C   -0.125739
     5  H    0.098958
     6  H    0.075101
     7  H    0.108291
     8  H    0.050626
 Sum of Mulliken charges =   0.00000

 Dipole moment (field-independent basis, Debye):
    X=              3.6428    Y=              0.5977    Z=              0.1116  Tot=              3.6932
 Quadrupole moment (field-independent basis, Debye-Ang):
   XX=            -27.0797   YY=            -22.1706   ZZ=            -25.5592
   XY=             -0.6968   XZ=             -0.4034   YZ=              0.1091

 Normal termination of Gaussian 09 at Wed Aug 26 12:26:12 2020.
