 Gaussian 09, Revision D.01,
 Gaussian 09:  ES64L-G09RevD.01 24-Apr-2013

 --------------------
 #p B2PLYPD3/Def2QZVP
 --------------------

 --------
 acrolein
 --------
 Symbolic Z-matrix:
 Charge =  0 Multiplicity = 1

                         Standard orientation:
 ---------------------------------------------------------------------
 Center     Atomic      Atomic             Coordinates (Angstroms)
 Number     Number       Type             X           Y           Z
 ---------------------------------------------------------------------
      1          6           0       -0.673883    0.345211    0.021119
      2          8           0       -1.775944   -0.127538   -0.019849
      3          6           0        0.554573   -0.431140    0.015863
      4          6           0        1.750337    0.140259   -0.020920
      5          1           0        0.440137   -1.497228    0.006485
      6          1           0        1.818189    1.164161   -0.072697
      7          1           0        2.696238   -0.422533    0.052087
      8          1           0       -0.533173    1.449925    0.076552
 ---------------------------------------------------------------------

 SCF Done:  E(RB2PLYPD3) =  -191.614623304     A.U. after   12 cycles
 E2(B2PLYPD3) =    -0.2461938635D+00 E(B2PLYPD3) =    -0.19186081716704D+03

 The electronic state is 1-A.
 Alpha  occ. eigenvalues --  -19.72763 -10.71337 -10.64976 -10.63944  -1.20200
 Alpha  occ. eigenvalues --   -0.93423  -0.75762  -0.67230  -0.57175  -0.56455
 Alpha  occ. eigenvalues --   -0.50743  -0.47248  -0.47059  -0.34798  -0.33797
 Alpha virt. eigenvalues --   -0.01702   0.05821   0.07240   0.08532   0.09832
 Alpha virt. eigenvalues --    0.12613   0.14028   0.15421   0.17521   0.19711
 Alpha virt. eigenvalues --    0.20190   0.21651   0.25668   0.26373   0.28844

 Mulliken charges:
               1
     1  C    0.150957
     2  O   -0.343338
     3  C   -0.030299
     4  C   -0.132452
     5  H    0.103933
     6  H    0.086272
     7  H    0.101343
     8  H    0.063583
 Sum of Mulliken charges =   0.00000

 Dipole moment (field-independent basis, Debye):
    X=              3.4427    Y=              0.7544    Z=              0.0788  Tot=              3.5252
 Quadrupole moment (field-independent basis, Debye-Ang):
   XX=            -27.1696   YY=            -21.9175   ZZ=            -25.0769
   XY=             -0.9645   XZ=             -0.0787   YZ=             -0.0893

 Normal termination of Gaussian 09 at Wed Aug 26 20:24:12 2020.
