 Gaussian 09, Revision D.01,
 Gaussian 09:  ES64L-G09RevD.01 24-Apr-2013

 --------------------
 #p B2PLYPD3/Def2QZVP
 --------------------

 --------
 acrolein
 --------
 Symbolic Z-matrix:
 Charge =  0 Multiplicity = 1

                         Standard orientation:
 ---------------------------------------------------------------------
 Center     Atomic      Atomic             Coordinates (Angstroms)
 Number     Number       Type             X           Y           Z
 ---------------------------------------------------------------------
      1          6           0       -0.674967    0.338661    0.023548
      2          8           0       -1.791947   -0.110622   -0.037925
      3          6           0        0.572885   -0.463740    0.038323
      4          6           0        1.769762    0.150160   -0.038087
      5          1           0        0.463607   -1.487922    0.081201
      6          1           0        1.821731    1.234550   -0.021334
      7          1           0        2.590894   -0.393254   -0.038010
      8          1           0       -0.546739    1.381115    0.138835
 ---------------------------------------------------------------------

 SCF Done:  E(RB2PLYPD3) =  -191.606653994     A.U. after   12 cycles
 E2(B2PLYPD3) =    -0.2461003923D+00 E(B2PLYPD3) =    -0.19185275438583D+03

 The electronic state is 1-A.
 Alpha  occ. eigenvalues --  -19.72637 -10.70932 -10.64586 -10.64062  -1.19705
 Alpha  occ. eigenvalues --   -0.93004  -0.76281  -0.68186  -0.57703  -0.56445
 Alpha  occ. eigenvalues --   -0.50941  -0.48364  -0.46570  -0.34452  -0.33723
 Alpha virt. eigenvalues --   -0.01712   0.05922   0.07454   0.08221   0.09739
 Alpha virt. eigenvalues --    0.12786   0.14151   0.15391   0.17803   0.19544
 Alpha virt. eigenvalues --    0.20125   0.22038   0.25195   0.26593   0.28817

 Mulliken charges:
               1
     1  C    0.154069
     2  O   -0.348367
     3  C   -0.047918
     4  C   -0.134403
     5  H    0.106829
     6  H    0.086705
     7  H    0.105760
     8  H    0.077326
 Sum of Mulliken charges =   0.00000

 Dipole moment (field-independent basis, Debye):
    X=              3.4575    Y=              0.7403    Z=              0.1823  Tot=              3.5405
 Quadrupole moment (field-independent basis, Debye-Ang):
   XX=            -27.5170   YY=            -21.6118   ZZ=            -25.0562
   XY=             -0.9457   XZ=             -0.2904   YZ=             -0.0495

 Normal termination of Gaussian 09 at Wed Aug 26 09:52:08 2020.
