 Gaussian 09, Revision D.01,
 Gaussian 09:  ES64L-G09RevD.01 24-Apr-2013

 --------------------
 #p B2PLYPD3/Def2QZVP
 --------------------

 --------
 acrolein
 --------
 Symbolic Z-matrix:
 Charge =  0 Multiplicity = 1

                         Standard orientation:
 ---------------------------------------------------------------------
 Center     Atomic      Atomic             Coordinates (Angstroms)
 Number     Number       Type             X           Y           Z
 ---------------------------------------------------------------------
      1          6           0        0.696194    0.352067   -0.053402
      2          8           0        1.776966   -0.135793    0.041456
      3          6           0       -0.545551   -0.433868   -0.023231
      4          6           0       -1.756950    0.139390    0.029617
      5          1           0       -0.452235   -1.445768   -0.038154
      6          1           0       -1.850102    1.190137    0.105622
      7          1           0       -2.785745   -0.469867   -0.032700
      8          1           0        0.510196    1.466314   -0.084318
 ---------------------------------------------------------------------

 SCF Done:  E(RB2PLYPD3) =  -191.604406580     A.U. after   13 cycles
 E2(B2PLYPD3) =    -0.2467322979D+00 E(B2PLYPD3) =    -0.19185113887829D+03

 The electronic state is 1-A.
 Alpha  occ. eigenvalues --  -19.73062 -10.71692 -10.66273 -10.63605  -1.21053
 Alpha  occ. eigenvalues --   -0.92661  -0.74777  -0.67590  -0.56833  -0.55799
 Alpha  occ. eigenvalues --   -0.50669  -0.47620  -0.46690  -0.34546  -0.33778
 Alpha virt. eigenvalues --   -0.01649   0.05514   0.07325   0.08340   0.09753
 Alpha virt. eigenvalues --    0.12251   0.13792   0.15491   0.18043   0.19579
 Alpha virt. eigenvalues --    0.19958   0.20997   0.25465   0.26244   0.28704

 Mulliken charges:
               1
     1  C    0.154407
     2  O   -0.333635
     3  C   -0.039387
     4  C   -0.135094
     5  H    0.111398
     6  H    0.086392
     7  H    0.092737
     8  H    0.063182
 Sum of Mulliken charges =   0.00000

 Dipole moment (field-independent basis, Debye):
    X=             -3.2842    Y=              0.7658    Z=             -0.1502  Tot=              3.3756
 Quadrupole moment (field-independent basis, Debye-Ang):
   XX=            -27.1311   YY=            -21.9975   ZZ=            -25.2282
   XY=              0.9607   XZ=             -0.2530   YZ=              0.1708

 Normal termination of Gaussian 09 at Wed Aug 26 09:17:20 2020.
