 Gaussian 09, Revision D.01,
 Gaussian 09:  ES64L-G09RevD.01 24-Apr-2013

 --------------------
 #p B2PLYPD3/Def2QZVP
 --------------------

 --------
 acrolein
 --------
 Symbolic Z-matrix:
 Charge =  0 Multiplicity = 1

                         Standard orientation:
 ---------------------------------------------------------------------
 Center     Atomic      Atomic             Coordinates (Angstroms)
 Number     Number       Type             X           Y           Z
 ---------------------------------------------------------------------
      1          6           0        0.676223    0.379988    0.066635
      2          8           0        1.801871   -0.148607   -0.070601
      3          6           0       -0.561893   -0.464766    0.026385
      4          6           0       -1.738567    0.125940   -0.063077
      5          1           0       -0.526396   -1.397359    0.265234
      6          1           0       -1.786691    1.253000   -0.084392
      7          1           0       -2.773708   -0.437864   -0.025671
      8          1           0        0.417242    1.524110    0.229979
 ---------------------------------------------------------------------

 SCF Done:  E(RB2PLYPD3) =  -191.582879371     A.U. after   13 cycles
 E2(B2PLYPD3) =    -0.2505808165D+00 E(B2PLYPD3) =    -0.19183346018728D+03

 The electronic state is 1-A.
 Alpha  occ. eigenvalues --  -19.73650 -10.73676 -10.66440 -10.63286  -1.17661
 Alpha  occ. eigenvalues --   -0.93356  -0.73995  -0.67957  -0.55880  -0.55137
 Alpha  occ. eigenvalues --   -0.50755  -0.46509  -0.45205  -0.34814  -0.34125
 Alpha virt. eigenvalues --   -0.01929   0.05314   0.06404   0.07559   0.09600
 Alpha virt. eigenvalues --    0.12094   0.13270   0.14884   0.18330   0.19066
 Alpha virt. eigenvalues --    0.19982   0.20702   0.24680   0.26699   0.29055

 Mulliken charges:
               1
     1  C    0.157919
     2  O   -0.354102
     3  C   -0.040210
     4  C   -0.115563
     5  H    0.114822
     6  H    0.069022
     7  H    0.089635
     8  H    0.078477
 Sum of Mulliken charges =   0.00000

 Dipole moment (field-independent basis, Debye):
    X=             -3.4889    Y=              0.8532    Z=              0.4839  Tot=              3.6242
 Quadrupole moment (field-independent basis, Debye-Ang):
   XX=            -27.7682   YY=            -21.8825   ZZ=            -25.3181
   XY=              1.1105   XZ=              0.2946   YZ=             -0.2896

 Normal termination of Gaussian 09 at Wed Aug 26 14:41:01 2020.
