 Gaussian 09, Revision D.01,
 Gaussian 09:  ES64L-G09RevD.01 24-Apr-2013

 --------------------
 #p B2PLYPD3/Def2QZVP
 --------------------

 --------
 acrolein
 --------
 Symbolic Z-matrix:
 Charge =  0 Multiplicity = 1

                         Standard orientation:
 ---------------------------------------------------------------------
 Center     Atomic      Atomic             Coordinates (Angstroms)
 Number     Number       Type             X           Y           Z
 ---------------------------------------------------------------------
      1          6           0       -0.668372    0.343247    0.028887
      2          8           0       -1.780904   -0.119590   -0.031023
      3          6           0        0.526557   -0.430803    0.054064
      4          6           0        1.759690    0.132834   -0.032737
      5          1           0        0.407420   -1.495900   -0.039003
      6          1           0        1.847560    1.207597   -0.039063
      7          1           0        2.776057   -0.462923   -0.015605
      8          1           0       -0.491060    1.436276    0.040571
 ---------------------------------------------------------------------

 SCF Done:  E(RB2PLYPD3) =  -191.607407347     A.U. after   13 cycles
 E2(B2PLYPD3) =    -0.2481089543D+00 E(B2PLYPD3) =    -0.19185551630150D+03

 The electronic state is 1-A.
 Alpha  occ. eigenvalues --  -19.72648 -10.71114 -10.67137 -10.64385  -1.19748
 Alpha  occ. eigenvalues --   -0.92964  -0.75693  -0.67063  -0.56752  -0.55647
 Alpha  occ. eigenvalues --   -0.50072  -0.47197  -0.46405  -0.34421  -0.33855
 Alpha virt. eigenvalues --   -0.02467   0.05421   0.07101   0.08513   0.09737
 Alpha virt. eigenvalues --    0.12265   0.13741   0.15306   0.17831   0.19609
 Alpha virt. eigenvalues --    0.19911   0.21037   0.25234   0.26435   0.28878

 Mulliken charges:
               1
     1  C    0.153839
     2  O   -0.350203
     3  C   -0.029496
     4  C   -0.127895
     5  H    0.107620
     6  H    0.084743
     7  H    0.100201
     8  H    0.061191
 Sum of Mulliken charges =   0.00000

 Dipole moment (field-independent basis, Debye):
    X=              3.6012    Y=              0.7392    Z=              0.0284  Tot=              3.6764
 Quadrupole moment (field-independent basis, Debye-Ang):
   XX=            -27.1012   YY=            -21.9977   ZZ=            -25.2977
   XY=             -0.8753   XZ=             -0.2783   YZ=              0.0611

 Normal termination of Gaussian 09 at Wed Aug 26 09:15:15 2020.
