 Gaussian 09, Revision D.01,
 Gaussian 09:  ES64L-G09RevD.01 24-Apr-2013

 --------------------
 #p B2PLYPD3/Def2QZVP
 --------------------

 --------
 acrolein
 --------
 Symbolic Z-matrix:
 Charge =  0 Multiplicity = 1

                         Standard orientation:
 ---------------------------------------------------------------------
 Center     Atomic      Atomic             Coordinates (Angstroms)
 Number     Number       Type             X           Y           Z
 ---------------------------------------------------------------------
      1          6           0       -0.676953    0.358813   -0.001488
      2          8           0       -1.792251   -0.140945   -0.038729
      3          6           0        0.532433   -0.403035    0.019163
      4          6           0        1.778682    0.108597   -0.020253
      5          1           0        0.378514   -1.516740    0.170240
      6          1           0        1.860310    1.178630   -0.193167
      7          1           0        2.775842   -0.470771    0.017254
      8          1           0       -0.481632    1.550195    0.330975
 ---------------------------------------------------------------------

 SCF Done:  E(RB2PLYPD3) =  -191.592578204     A.U. after   13 cycles
 E2(B2PLYPD3) =    -0.2507286893D+00 E(B2PLYPD3) =    -0.19184330689376D+03

 The electronic state is 1-A.
 Alpha  occ. eigenvalues --  -19.73529 -10.73108 -10.66888 -10.65189  -1.19343
 Alpha  occ. eigenvalues --   -0.92900  -0.75807  -0.64665  -0.56322  -0.55406
 Alpha  occ. eigenvalues --   -0.50482  -0.46983  -0.44988  -0.34794  -0.33737
 Alpha virt. eigenvalues --   -0.02811   0.05496   0.06007   0.07998   0.09735
 Alpha virt. eigenvalues --    0.12196   0.13681   0.15126   0.17156   0.18747
 Alpha virt. eigenvalues --    0.20257   0.21118   0.24493   0.26972   0.28754

 Mulliken charges:
               1
     1  C    0.165756
     2  O   -0.341257
     3  C   -0.034537
     4  C   -0.123482
     5  H    0.102213
     6  H    0.082529
     7  H    0.108467
     8  H    0.040312
 Sum of Mulliken charges =   0.00000

 Dipole moment (field-independent basis, Debye):
    X=              3.5892    Y=              0.6317    Z=              0.1612  Tot=              3.6479
 Quadrupole moment (field-independent basis, Debye-Ang):
   XX=            -26.9157   YY=            -22.4527   ZZ=            -25.4073
   XY=             -0.9093   XZ=             -0.3469   YZ=             -0.3365

 Normal termination of Gaussian 09 at Wed Aug 26 14:02:45 2020.
