 Gaussian 09, Revision D.01,
 Gaussian 09:  ES64L-G09RevD.01 24-Apr-2013

 --------------------
 #p B2PLYPD3/Def2QZVP
 --------------------

 --------
 acrolein
 --------
 Symbolic Z-matrix:
 Charge =  0 Multiplicity = 1

                         Standard orientation:
 ---------------------------------------------------------------------
 Center     Atomic      Atomic             Coordinates (Angstroms)
 Number     Number       Type             X           Y           Z
 ---------------------------------------------------------------------
      1          6           0        0.705155    0.361951   -0.074728
      2          8           0        1.763191   -0.159450    0.062007
      3          6           0       -0.537859   -0.407032   -0.065038
      4          6           0       -1.760315    0.145188    0.021077
      5          1           0       -0.507131   -1.457710   -0.017860
      6          1           0       -1.778233    1.165092    0.084452
      7          1           0       -2.859927   -0.489244    0.142866
      8          1           0        0.597875    1.456819    0.006627
 ---------------------------------------------------------------------

 SCF Done:  E(RB2PLYPD3) =  -191.589434999     A.U. after   13 cycles
 E2(B2PLYPD3) =    -0.2471760482D+00 E(B2PLYPD3) =    -0.19183661104717D+03

 The electronic state is 1-A.
 Alpha  occ. eigenvalues --  -19.72924 -10.71512 -10.66419 -10.63865  -1.21245
 Alpha  occ. eigenvalues --   -0.92615  -0.74658  -0.67631  -0.57586  -0.55238
 Alpha  occ. eigenvalues --   -0.49775  -0.47790  -0.45857  -0.34526  -0.33882
 Alpha virt. eigenvalues --   -0.01639   0.05087   0.07085   0.08265   0.09748
 Alpha virt. eigenvalues --    0.11941   0.13957   0.15486   0.18154   0.19645
 Alpha virt. eigenvalues --    0.19960   0.20564   0.25091   0.26102   0.29044

 Mulliken charges:
               1
     1  C    0.148528
     2  O   -0.330356
     3  C   -0.038533
     4  C   -0.138103
     5  H    0.107669
     6  H    0.085369
     7  H    0.094746
     8  H    0.070680
 Sum of Mulliken charges =   0.00000

 Dipole moment (field-independent basis, Debye):
    X=             -3.1839    Y=              0.8787    Z=             -0.0375  Tot=              3.3031
 Quadrupole moment (field-independent basis, Debye-Ang):
   XX=            -27.0258   YY=            -22.0142   ZZ=            -25.2720
   XY=              1.4950   XZ=             -0.7705   YZ=              0.0217

 Normal termination of Gaussian 09 at Wed Aug 26 14:47:25 2020.
