 Gaussian 09, Revision D.01,
 Gaussian 09:  ES64L-G09RevD.01 24-Apr-2013

 --------------------
 #p B2PLYPD3/Def2QZVP
 --------------------

 --------
 acrolein
 --------
 Symbolic Z-matrix:
 Charge =  0 Multiplicity = 1

                         Standard orientation:
 ---------------------------------------------------------------------
 Center     Atomic      Atomic             Coordinates (Angstroms)
 Number     Number       Type             X           Y           Z
 ---------------------------------------------------------------------
      1          6           0       -0.651222    0.313071   -0.036884
      2          8           0       -1.813577   -0.081439    0.040273
      3          6           0        0.585342   -0.458467   -0.035116
      4          6           0        1.762761    0.146014    0.006238
      5          1           0        0.340855   -1.569909    0.044326
      6          1           0        1.880113    1.324988    0.221343
      7          1           0        2.669870   -0.416105   -0.013184
      8          1           0       -0.563509    1.308823   -0.180097
 ---------------------------------------------------------------------

 SCF Done:  E(RB2PLYPD3) =  -191.592239417     A.U. after   14 cycles
 E2(B2PLYPD3) =    -0.2484763798D+00 E(B2PLYPD3) =    -0.19184071579674D+03

 The electronic state is 1-A.
 Alpha  occ. eigenvalues --  -19.72470 -10.70312 -10.66984 -10.65301  -1.18161
 Alpha  occ. eigenvalues --   -0.93388  -0.76230  -0.67197  -0.56887  -0.55448
 Alpha  occ. eigenvalues --   -0.50485  -0.46218  -0.45456  -0.34960  -0.33630
 Alpha virt. eigenvalues --   -0.02337   0.05212   0.06973   0.08157   0.09599
 Alpha virt. eigenvalues --    0.12405   0.13693   0.15356   0.17352   0.18542
 Alpha virt. eigenvalues --    0.20194   0.21495   0.24847   0.27116   0.28634

 Mulliken charges:
               1
     1  C    0.172287
     2  O   -0.368312
     3  C   -0.047608
     4  C   -0.117535
     5  H    0.099736
     6  H    0.085619
     7  H    0.107663
     8  H    0.068149
 Sum of Mulliken charges =   0.00000

 Dipole moment (field-independent basis, Debye):
    X=              3.7175    Y=              0.6790    Z=              0.0058  Tot=              3.7790
 Quadrupole moment (field-independent basis, Debye-Ang):
   XX=            -27.7179   YY=            -21.7665   ZZ=            -25.2130
   XY=             -0.5841   XZ=              0.5803   YZ=              0.1659

 Normal termination of Gaussian 09 at Wed Aug 26 11:14:48 2020.
