 Gaussian 09, Revision D.01,
 Gaussian 09:  ES64L-G09RevD.01 24-Apr-2013

 --------------------
 #p B2PLYPD3/Def2QZVP
 --------------------

 --------
 acrolein
 --------
 Symbolic Z-matrix:
 Charge =  0 Multiplicity = 1

                         Standard orientation:
 ---------------------------------------------------------------------
 Center     Atomic      Atomic             Coordinates (Angstroms)
 Number     Number       Type             X           Y           Z
 ---------------------------------------------------------------------
      1          6           0       -0.651184    0.343390   -0.050286
      2          8           0       -1.791238   -0.122121    0.040155
      3          6           0        0.565675   -0.436509   -0.039417
      4          6           0        1.745226    0.150607    0.006133
      5          1           0        0.444760   -1.477909   -0.009092
      6          1           0        1.766413    1.112077    0.069358
      7          1           0        2.657983   -0.416547    0.123497
      8          1           0       -0.497558    1.414417   -0.003582
 ---------------------------------------------------------------------

 SCF Done:  E(RB2PLYPD3) =  -191.601967297     A.U. after   12 cycles
 E2(B2PLYPD3) =    -0.2472167868D+00 E(B2PLYPD3) =    -0.19184918408340D+03

 The electronic state is 1-A.
 Alpha  occ. eigenvalues --  -19.72739 -10.71365 -10.64163 -10.63735  -1.18032
 Alpha  occ. eigenvalues --   -0.94487  -0.76752  -0.68451  -0.57764  -0.56602
 Alpha  occ. eigenvalues --   -0.50292  -0.48063  -0.46183  -0.34930  -0.33950
 Alpha virt. eigenvalues --   -0.02191   0.05829   0.07311   0.08158   0.09887
 Alpha virt. eigenvalues --    0.12904   0.14000   0.15240   0.17532   0.19795
 Alpha virt. eigenvalues --    0.20533   0.21936   0.25385   0.26560   0.28924

 Mulliken charges:
               1
     1  C    0.146245
     2  O   -0.365687
     3  C   -0.016131
     4  C   -0.134054
     5  H    0.105726
     6  H    0.090594
     7  H    0.100722
     8  H    0.072586
 Sum of Mulliken charges =   0.00000

 Dipole moment (field-independent basis, Debye):
    X=              3.6610    Y=              0.7790    Z=              0.0111  Tot=              3.7429
 Quadrupole moment (field-independent basis, Debye-Ang):
   XX=            -27.5593   YY=            -21.7775   ZZ=            -24.9373
   XY=             -0.9796   XZ=              0.5926   YZ=              0.0098

 Normal termination of Gaussian 09 at Wed Aug 26 10:27:42 2020.
