 Gaussian 09, Revision D.01,
 Gaussian 09:  ES64L-G09RevD.01 24-Apr-2013

 --------------------
 #p B2PLYPD3/Def2QZVP
 --------------------

 --------
 acrolein
 --------
 Symbolic Z-matrix:
 Charge =  0 Multiplicity = 1

                         Standard orientation:
 ---------------------------------------------------------------------
 Center     Atomic      Atomic             Coordinates (Angstroms)
 Number     Number       Type             X           Y           Z
 ---------------------------------------------------------------------
      1          6           0        0.711066    0.363866   -0.068096
      2          8           0        1.754409   -0.155165    0.049661
      3          6           0       -0.540490   -0.408314   -0.012504
      4          6           0       -1.766235    0.131435   -0.000748
      5          1           0       -0.442803   -1.327087   -0.068633
      6          1           0       -1.738639    1.106355    0.184955
      7          1           0       -2.840395   -0.441962    0.043950
      8          1           0        0.560518    1.382097   -0.069470
 ---------------------------------------------------------------------

 SCF Done:  E(RB2PLYPD3) =  -191.567544881     A.U. after   13 cycles
 E2(B2PLYPD3) =    -0.2448122181D+00 E(B2PLYPD3) =    -0.19181235709885D+03

 The electronic state is 1-A.
 Alpha  occ. eigenvalues --  -19.72885 -10.70428 -10.65269 -10.62000  -1.22226
 Alpha  occ. eigenvalues --   -0.93189  -0.75533  -0.70343  -0.58009  -0.55890
 Alpha  occ. eigenvalues --   -0.51150  -0.48250  -0.47203  -0.34403  -0.33848
 Alpha virt. eigenvalues --   -0.01378   0.05607   0.07849   0.08318   0.09850
 Alpha virt. eigenvalues --    0.12331   0.13999   0.15362   0.18620   0.19561
 Alpha virt. eigenvalues --    0.20198   0.21071   0.25056   0.26377   0.29173

 Mulliken charges:
               1
     1  C    0.152500
     2  O   -0.328666
     3  C   -0.056268
     4  C   -0.141887
     5  H    0.118864
     6  H    0.080411
     7  H    0.094175
     8  H    0.080870
 Sum of Mulliken charges =   0.00000

 Dipole moment (field-independent basis, Debye):
    X=             -3.0539    Y=              0.8953    Z=             -0.0835  Tot=              3.1835
 Quadrupole moment (field-independent basis, Debye-Ang):
   XX=            -26.7793   YY=            -22.1122   ZZ=            -24.8717
   XY=              1.3967   XZ=             -0.5856   YZ=              0.2592

 Normal termination of Gaussian 09 at Wed Aug 26 11:07:14 2020.
