 Gaussian 09, Revision D.01,
 Gaussian 09:  ES64L-G09RevD.01 24-Apr-2013

 --------------------
 #p B2PLYPD3/Def2QZVP
 --------------------

 --------
 acrolein
 --------
 Symbolic Z-matrix:
 Charge =  0 Multiplicity = 1

                         Standard orientation:
 ---------------------------------------------------------------------
 Center     Atomic      Atomic             Coordinates (Angstroms)
 Number     Number       Type             X           Y           Z
 ---------------------------------------------------------------------
      1          6           0       -0.677675    0.341787    0.048027
      2          8           0       -1.778296   -0.111969   -0.045901
      3          6           0        0.582951   -0.470973    0.013426
      4          6           0        1.739223    0.163904   -0.007856
      5          1           0        0.451717   -1.585599    0.099461
      6          1           0        1.857981    1.225091   -0.121636
      7          1           0        2.620210   -0.384960   -0.063603
      8          1           0       -0.570536    1.432916    0.131408
 ---------------------------------------------------------------------

 SCF Done:  E(RB2PLYPD3) =  -191.612572231     A.U. after   13 cycles
 E2(B2PLYPD3) =    -0.2459470587D+00 E(B2PLYPD3) =    -0.19185851928962D+03

 The electronic state is 1-A.
 Alpha  occ. eigenvalues --  -19.72668 -10.71310 -10.64851 -10.64396  -1.20438
 Alpha  occ. eigenvalues --   -0.92880  -0.75018  -0.66669  -0.56874  -0.56500
 Alpha  occ. eigenvalues --   -0.50819  -0.47175  -0.46727  -0.34928  -0.33471
 Alpha virt. eigenvalues --   -0.01005   0.05943   0.07061   0.08038   0.09686
 Alpha virt. eigenvalues --    0.12768   0.14243   0.15210   0.17244   0.19694
 Alpha virt. eigenvalues --    0.20125   0.21998   0.25088   0.26477   0.28351

 Mulliken charges:
               1
     1  C    0.154963
     2  O   -0.336782
     3  C   -0.048645
     4  C   -0.126215
     5  H    0.102384
     6  H    0.086231
     7  H    0.096937
     8  H    0.071128
 Sum of Mulliken charges =   0.00000

 Dipole moment (field-independent basis, Debye):
    X=              3.3172    Y=              0.7370    Z=              0.1288  Tot=              3.4005
 Quadrupole moment (field-independent basis, Debye-Ang):
   XX=            -27.4940   YY=            -21.5789   ZZ=            -25.1316
   XY=             -0.7829   XZ=             -0.5378   YZ=             -0.2262

 Normal termination of Gaussian 09 at Wed Aug 26 09:08:53 2020.
