 Gaussian 09, Revision D.01,
 Gaussian 09:  ES64L-G09RevD.01 24-Apr-2013

 --------------------
 #p B2PLYPD3/Def2QZVP
 --------------------

 --------
 acrolein
 --------
 Symbolic Z-matrix:
 Charge =  0 Multiplicity = 1

                         Standard orientation:
 ---------------------------------------------------------------------
 Center     Atomic      Atomic             Coordinates (Angstroms)
 Number     Number       Type             X           Y           Z
 ---------------------------------------------------------------------
      1          6           0       -0.698337    0.376015    0.022228
      2          8           0       -1.768169   -0.151353   -0.034127
      3          6           0        0.552631   -0.434286    0.038491
      4          6           0        1.758186    0.134320   -0.037493
      5          1           0        0.482994   -1.494249    0.076519
      6          1           0        1.836239    1.194502   -0.002095
      7          1           0        2.736805   -0.420398   -0.036158
      8          1           0       -0.585563    1.474668    0.095398
 ---------------------------------------------------------------------

 SCF Done:  E(RB2PLYPD3) =  -191.613911732     A.U. after   12 cycles
 E2(B2PLYPD3) =    -0.2463550947D+00 E(B2PLYPD3) =    -0.19186026682693D+03

 The electronic state is 1-A.
 Alpha  occ. eigenvalues --  -19.72907 -10.71747 -10.65226 -10.64071  -1.20732
 Alpha  occ. eigenvalues --   -0.92332  -0.74617  -0.67320  -0.56980  -0.56018
 Alpha  occ. eigenvalues --   -0.50807  -0.47373  -0.46370  -0.34425  -0.33917
 Alpha virt. eigenvalues --   -0.01265   0.05774   0.07242   0.08145   0.09726
 Alpha virt. eigenvalues --    0.12320   0.14176   0.15490   0.17768   0.19743
 Alpha virt. eigenvalues --    0.19951   0.21280   0.25575   0.26136   0.28810

 Mulliken charges:
               1
     1  C    0.152188
     2  O   -0.333610
     3  C   -0.053198
     4  C   -0.130280
     5  H    0.109177
     6  H    0.077751
     7  H    0.095807
     8  H    0.082167
 Sum of Mulliken charges =   0.00000

 Dipole moment (field-independent basis, Debye):
    X=              3.2124    Y=              0.8919    Z=              0.1673  Tot=              3.3381
 Quadrupole moment (field-independent basis, Debye-Ang):
   XX=            -27.1676   YY=            -21.7643   ZZ=            -25.2318
   XY=             -1.2542   XZ=             -0.2190   YZ=             -0.0246

 Normal termination of Gaussian 09 at Wed Aug 26 08:38:21 2020.
