 Gaussian 09, Revision D.01,
 Gaussian 09:  ES64L-G09RevD.01 24-Apr-2013

 --------------------
 #p B2PLYPD3/Def2QZVP
 --------------------

 --------
 acrolein
 --------
 Symbolic Z-matrix:
 Charge =  0 Multiplicity = 1

                         Standard orientation:
 ---------------------------------------------------------------------
 Center     Atomic      Atomic             Coordinates (Angstroms)
 Number     Number       Type             X           Y           Z
 ---------------------------------------------------------------------
      1          6           0       -0.662844    0.337830    0.015043
      2          8           0       -1.782980   -0.112544   -0.028491
      3          6           0        0.549448   -0.465494    0.049090
      4          6           0        1.749926    0.143080   -0.039230
      5          1           0        0.482964   -1.497853    0.060134
      6          1           0        1.834321    1.278549    0.093479
      7          1           0        2.670628   -0.402405   -0.105107
      8          1           0       -0.543249    1.429561    0.030008
 ---------------------------------------------------------------------

 SCF Done:  E(RB2PLYPD3) =  -191.610995079     A.U. after   13 cycles
 E2(B2PLYPD3) =    -0.2473072273D+00 E(B2PLYPD3) =    -0.19185830230668D+03

 The electronic state is 1-A.
 Alpha  occ. eigenvalues --  -19.72456 -10.71197 -10.66322 -10.64185  -1.19509
 Alpha  occ. eigenvalues --   -0.92961  -0.75304  -0.67453  -0.56649  -0.56357
 Alpha  occ. eigenvalues --   -0.50334  -0.47340  -0.46548  -0.34396  -0.33731
 Alpha virt. eigenvalues --   -0.01943   0.05632   0.07204   0.08178   0.09649
 Alpha virt. eigenvalues --    0.12412   0.14181   0.15307   0.17735   0.19631
 Alpha virt. eigenvalues --    0.20012   0.21358   0.24876   0.26328   0.28892

 Mulliken charges:
               1
     1  C    0.152906
     2  O   -0.348889
     3  C   -0.042657
     4  C   -0.125559
     5  H    0.110705
     6  H    0.081304
     7  H    0.100681
     8  H    0.071509
 Sum of Mulliken charges =   0.00000

 Dipole moment (field-independent basis, Debye):
    X=              3.5586    Y=              0.6874    Z=              0.1268  Tot=              3.6266
 Quadrupole moment (field-independent basis, Debye-Ang):
   XX=            -27.4179   YY=            -21.7064   ZZ=            -25.2126
   XY=             -1.0233   XZ=             -0.2349   YZ=              0.1289

 Normal termination of Gaussian 09 at Wed Aug 26 21:15:06 2020.
