 Gaussian 09, Revision D.01,
 Gaussian 09:  ES64L-G09RevD.01 24-Apr-2013

 --------------------
 #p B2PLYPD3/Def2QZVP
 --------------------

 --------
 acrolein
 --------
 Symbolic Z-matrix:
 Charge =  0 Multiplicity = 1

                         Standard orientation:
 ---------------------------------------------------------------------
 Center     Atomic      Atomic             Coordinates (Angstroms)
 Number     Number       Type             X           Y           Z
 ---------------------------------------------------------------------
      1          6           0        0.685756    0.357238   -0.010191
      2          8           0        1.777080   -0.133600    0.013428
      3          6           0       -0.549979   -0.438814   -0.028817
      4          6           0       -1.754556    0.136759    0.002961
      5          1           0       -0.495097   -1.477591    0.028930
      6          1           0       -1.826485    1.197705    0.021189
      7          1           0       -2.709493   -0.414266    0.058958
      8          1           0        0.527110    1.431853   -0.000220
 ---------------------------------------------------------------------

 SCF Done:  E(RB2PLYPD3) =  -191.615026333     A.U. after   12 cycles
 E2(B2PLYPD3) =    -0.2461172869D+00 E(B2PLYPD3) =    -0.19186114361999D+03

 The electronic state is 1-A.
 Alpha  occ. eigenvalues --  -19.72800 -10.71318 -10.65264 -10.63721  -1.20422
 Alpha  occ. eigenvalues --   -0.92902  -0.75313  -0.67825  -0.57074  -0.56348
 Alpha  occ. eigenvalues --   -0.50835  -0.47305  -0.46873  -0.34544  -0.33945
 Alpha virt. eigenvalues --   -0.01531   0.05783   0.07404   0.08300   0.09725
 Alpha virt. eigenvalues --    0.12580   0.14160   0.15432   0.17922   0.19855
 Alpha virt. eigenvalues --    0.19912   0.21353   0.25557   0.26389   0.28818

 Mulliken charges:
               1
     1  C    0.149173
     2  O   -0.339725
     3  C   -0.040442
     4  C   -0.131872
     5  H    0.107408
     6  H    0.078696
     7  H    0.098501
     8  H    0.078261
 Sum of Mulliken charges =   0.00000

 Dipole moment (field-independent basis, Debye):
    X=             -3.3717    Y=              0.8184    Z=              0.0572  Tot=              3.4701
 Quadrupole moment (field-independent basis, Debye-Ang):
   XX=            -27.1953   YY=            -21.8272   ZZ=            -25.1226
   XY=              1.1103   XZ=             -0.2736   YZ=             -0.0632

 Normal termination of Gaussian 09 at Wed Aug 26 18:05:57 2020.
