 Gaussian 09, Revision D.01,
 Gaussian 09:  ES64L-G09RevD.01 24-Apr-2013

 --------------------
 #p B2PLYPD3/Def2QZVP
 --------------------

 --------
 acrolein
 --------
 Symbolic Z-matrix:
 Charge =  0 Multiplicity = 1

                         Standard orientation:
 ---------------------------------------------------------------------
 Center     Atomic      Atomic             Coordinates (Angstroms)
 Number     Number       Type             X           Y           Z
 ---------------------------------------------------------------------
      1          6           0        0.672413    0.332683   -0.010976
      2          8           0        1.788289   -0.102868    0.022017
      3          6           0       -0.556922   -0.434119   -0.041674
      4          6           0       -1.754638    0.147640   -0.004691
      5          1           0       -0.360916   -1.535281   -0.024898
      6          1           0       -1.868111    1.269566   -0.034222
      7          1           0       -2.769807   -0.492173    0.197742
      8          1           0        0.527403    1.303611    0.029288
 ---------------------------------------------------------------------

 SCF Done:  E(RB2PLYPD3) =  -191.591524660     A.U. after   13 cycles
 E2(B2PLYPD3) =    -0.2470313865D+00 E(B2PLYPD3) =    -0.19183855604696D+03

 The electronic state is 1-A.
 Alpha  occ. eigenvalues --  -19.72487 -10.69740 -10.67489 -10.64567  -1.20114
 Alpha  occ. eigenvalues --   -0.93008  -0.75722  -0.67976  -0.56859  -0.55208
 Alpha  occ. eigenvalues --   -0.50469  -0.47170  -0.45416  -0.34780  -0.33823
 Alpha virt. eigenvalues --   -0.01886   0.05194   0.07024   0.08593   0.09610
 Alpha virt. eigenvalues --    0.12267   0.13811   0.15329   0.17676   0.19060
 Alpha virt. eigenvalues --    0.19807   0.21168   0.25356   0.27363   0.28428

 Mulliken charges:
               1
     1  C    0.169143
     2  O   -0.353977
     3  C   -0.033014
     4  C   -0.134200
     5  H    0.100239
     6  H    0.086999
     7  H    0.096868
     8  H    0.067942
 Sum of Mulliken charges =   0.00000

 Dipole moment (field-independent basis, Debye):
    X=             -3.4599    Y=              0.8081    Z=              0.0638  Tot=              3.5536
 Quadrupole moment (field-independent basis, Debye-Ang):
   XX=            -27.5614   YY=            -21.7955   ZZ=            -25.1938
   XY=              0.7223   XZ=             -0.5330   YZ=             -0.1455

 Normal termination of Gaussian 09 at Wed Aug 26 11:49:19 2020.
