 Gaussian 09, Revision D.01,
 Gaussian 09:  ES64L-G09RevD.01 24-Apr-2013

 --------------------
 #p B2PLYPD3/Def2QZVP
 --------------------

 --------
 acrolein
 --------
 Symbolic Z-matrix:
 Charge =  0 Multiplicity = 1

                         Standard orientation:
 ---------------------------------------------------------------------
 Center     Atomic      Atomic             Coordinates (Angstroms)
 Number     Number       Type             X           Y           Z
 ---------------------------------------------------------------------
      1          6           0       -0.643540    0.344896   -0.083537
      2          8           0       -1.797764   -0.121673    0.067030
      3          6           0        0.555243   -0.473868   -0.031726
      4          6           0        1.736930    0.171552    0.033358
      5          1           0        0.458551   -1.520639   -0.072946
      6          1           0        1.652498    1.185817    0.230630
      7          1           0        2.863026   -0.412445   -0.013773
      8          1           0       -0.483758    1.465166   -0.188725
 ---------------------------------------------------------------------

 SCF Done:  E(RB2PLYPD3) =  -191.586459186     A.U. after   13 cycles
 E2(B2PLYPD3) =    -0.2511306483D+00 E(B2PLYPD3) =    -0.19183758983472D+03

 The electronic state is 1-A.
 Alpha  occ. eigenvalues --  -19.72840 -10.72426 -10.67274 -10.64660  -1.17022
 Alpha  occ. eigenvalues --   -0.93579  -0.74636  -0.67701  -0.56242  -0.54693
 Alpha  occ. eigenvalues --   -0.49451  -0.46965  -0.45417  -0.34416  -0.33926
 Alpha virt. eigenvalues --   -0.02636   0.05031   0.06628   0.07356   0.09607
 Alpha virt. eigenvalues --    0.12081   0.13714   0.15161   0.17149   0.19281
 Alpha virt. eigenvalues --    0.20506   0.20735   0.24551   0.25852   0.29154

 Mulliken charges:
               1
     1  C    0.147999
     2  O   -0.370491
     3  C   -0.025868
     4  C   -0.132152
     5  H    0.113704
     6  H    0.093875
     7  H    0.097739
     8  H    0.075194
 Sum of Mulliken charges =   0.00000

 Dipole moment (field-independent basis, Debye):
    X=              3.6890    Y=              0.7404    Z=             -0.2029  Tot=              3.7680
 Quadrupole moment (field-independent basis, Debye-Ang):
   XX=            -27.8963   YY=            -21.7341   ZZ=            -25.4224
   XY=             -1.1682   XZ=              0.5480   YZ=              0.2976

 Normal termination of Gaussian 09 at Wed Aug 26 12:56:36 2020.
