 Gaussian 09, Revision D.01,
 Gaussian 09:  ES64L-G09RevD.01 24-Apr-2013

 --------------------
 #p B2PLYPD3/Def2QZVP
 --------------------

 --------
 acrolein
 --------
 Symbolic Z-matrix:
 Charge =  0 Multiplicity = 1

                         Standard orientation:
 ---------------------------------------------------------------------
 Center     Atomic      Atomic             Coordinates (Angstroms)
 Number     Number       Type             X           Y           Z
 ---------------------------------------------------------------------
      1          6           0        0.652610    0.319197    0.049578
      2          8           0        1.803696   -0.100993   -0.054953
      3          6           0       -0.593683   -0.477429   -0.014276
      4          6           0       -1.750811    0.192273   -0.013857
      5          1           0       -0.467161   -1.587467    0.245915
      6          1           0       -1.692277    1.165693   -0.148947
      7          1           0       -2.612460   -0.402899   -0.051381
      8          1           0        0.493632    1.428370    0.265373
 ---------------------------------------------------------------------

 SCF Done:  E(RB2PLYPD3) =  -191.596087168     A.U. after   14 cycles
 E2(B2PLYPD3) =    -0.2487872688D+00 E(B2PLYPD3) =    -0.19184487443719D+03

 The electronic state is 1-A.
 Alpha  occ. eigenvalues --  -19.72949 -10.72190 -10.65379 -10.64325  -1.18341
 Alpha  occ. eigenvalues --   -0.93830  -0.75790  -0.66490  -0.57826  -0.55650
 Alpha  occ. eigenvalues --   -0.50007  -0.48149  -0.45516  -0.34985  -0.33535
 Alpha virt. eigenvalues --   -0.02031   0.06106   0.06205   0.07614   0.09696
 Alpha virt. eigenvalues --    0.12905   0.13675   0.14670   0.17068   0.19428
 Alpha virt. eigenvalues --    0.20796   0.21829   0.23904   0.27123   0.28510

 Mulliken charges:
               1
     1  C    0.144439
     2  O   -0.351434
     3  C   -0.025244
     4  C   -0.127978
     5  H    0.097953
     6  H    0.093126
     7  H    0.106367
     8  H    0.062771
 Sum of Mulliken charges =   0.00000

 Dipole moment (field-independent basis, Debye):
    X=             -3.5766    Y=              0.6390    Z=              0.3087  Tot=              3.6463
 Quadrupole moment (field-independent basis, Debye-Ang):
   XX=            -27.9841   YY=            -21.7501   ZZ=            -25.1365
   XY=              0.8996   XZ=              0.4869   YZ=             -0.4403

 Normal termination of Gaussian 09 at Wed Aug 26 13:04:25 2020.
