 Gaussian 09, Revision D.01,
 Gaussian 09:  ES64L-G09RevD.01 24-Apr-2013

 --------------------
 #p B2PLYPD3/Def2QZVP
 --------------------

 --------
 acrolein
 --------
 Symbolic Z-matrix:
 Charge =  0 Multiplicity = 1

                         Standard orientation:
 ---------------------------------------------------------------------
 Center     Atomic      Atomic             Coordinates (Angstroms)
 Number     Number       Type             X           Y           Z
 ---------------------------------------------------------------------
      1          6           0       -0.666084    0.336049    0.019779
      2          8           0       -1.781833   -0.107932   -0.023368
      3          6           0        0.570465   -0.463202    0.052354
      4          6           0        1.749495    0.149275   -0.032382
      5          1           0        0.469707   -1.520460   -0.037507
      6          1           0        1.807111    1.250391    0.024131
      7          1           0        2.568748   -0.391796   -0.045073
      8          1           0       -0.514159    1.392593    0.006885
 ---------------------------------------------------------------------

 SCF Done:  E(RB2PLYPD3) =  -191.608056728     A.U. after   12 cycles
 E2(B2PLYPD3) =    -0.2459584102D+00 E(B2PLYPD3) =    -0.19185401513778D+03

 The electronic state is 1-A.
 Alpha  occ. eigenvalues --  -19.72585 -10.70887 -10.64503 -10.64044  -1.19904
 Alpha  occ. eigenvalues --   -0.93415  -0.76205  -0.67570  -0.57575  -0.56469
 Alpha  occ. eigenvalues --   -0.50899  -0.47643  -0.46905  -0.34775  -0.33701
 Alpha virt. eigenvalues --   -0.01526   0.05932   0.07359   0.08183   0.09783
 Alpha virt. eigenvalues --    0.12808   0.14042   0.15322   0.17664   0.19824
 Alpha virt. eigenvalues --    0.19943   0.22118   0.25079   0.26717   0.28733

 Mulliken charges:
               1
     1  C    0.153778
     2  O   -0.346257
     3  C   -0.041161
     4  C   -0.130068
     5  H    0.102693
     6  H    0.084370
     7  H    0.105351
     8  H    0.071294
 Sum of Mulliken charges =   0.00000

 Dipole moment (field-independent basis, Debye):
    X=              3.4639    Y=              0.7131    Z=              0.0187  Tot=              3.5366
 Quadrupole moment (field-independent basis, Debye-Ang):
   XX=            -27.5369   YY=            -21.6241   ZZ=            -25.0304
   XY=             -0.9193   XZ=             -0.2244   YZ=              0.1463

 Normal termination of Gaussian 09 at Wed Aug 26 09:39:33 2020.
