 Gaussian 09, Revision D.01,
 Gaussian 09:  ES64L-G09RevD.01 24-Apr-2013

 --------------------
 #p B2PLYPD3/Def2QZVP
 --------------------

 --------
 acrolein
 --------
 Symbolic Z-matrix:
 Charge =  0 Multiplicity = 1

                         Standard orientation:
 ---------------------------------------------------------------------
 Center     Atomic      Atomic             Coordinates (Angstroms)
 Number     Number       Type             X           Y           Z
 ---------------------------------------------------------------------
      1          6           0       -0.662429    0.357958   -0.039132
      2          8           0       -1.781043   -0.132021    0.040092
      3          6           0        0.565903   -0.449819   -0.030700
      4          6           0        1.734203    0.140668    0.016375
      5          1           0        0.484137   -1.443784   -0.016995
      6          1           0        1.772756    1.234829    0.170426
      7          1           0        2.661467   -0.444154   -0.006475
      8          1           0       -0.496084    1.416433   -0.146953
 ---------------------------------------------------------------------

 SCF Done:  E(RB2PLYPD3) =  -191.608612274     A.U. after   13 cycles
 E2(B2PLYPD3) =    -0.2469211202D+00 E(B2PLYPD3) =    -0.19185553339413D+03

 The electronic state is 1-A.
 Alpha  occ. eigenvalues --  -19.72798 -10.71452 -10.65300 -10.63007  -1.18725
 Alpha  occ. eigenvalues --   -0.93856  -0.75266  -0.68407  -0.56999  -0.56122
 Alpha  occ. eigenvalues --   -0.50653  -0.47347  -0.46295  -0.34921  -0.33939
 Alpha virt. eigenvalues --   -0.01576   0.05691   0.07375   0.07885   0.09796
 Alpha virt. eigenvalues --    0.12671   0.13749   0.15380   0.17976   0.19090
 Alpha virt. eigenvalues --    0.20282   0.21516   0.25269   0.26642   0.28967

 Mulliken charges:
               1
     1  C    0.150829
     2  O   -0.357325
     3  C   -0.043077
     4  C   -0.124763
     5  H    0.111943
     6  H    0.080140
     7  H    0.097895
     8  H    0.084359
 Sum of Mulliken charges =   0.00000

 Dipole moment (field-independent basis, Debye):
    X=              3.4792    Y=              0.7922    Z=             -0.0707  Tot=              3.5690
 Quadrupole moment (field-independent basis, Debye-Ang):
   XX=            -27.7407   YY=            -21.6410   ZZ=            -25.0359
   XY=             -1.1796   XZ=              0.4304   YZ=              0.1584

 Normal termination of Gaussian 09 at Wed Aug 26 08:46:07 2020.
