 Gaussian 09, Revision D.01,
 Gaussian 09:  ES64L-G09RevD.01 24-Apr-2013

 --------------------
 #p B2PLYPD3/Def2QZVP
 --------------------

 --------
 acrolein
 --------
 Symbolic Z-matrix:
 Charge =  0 Multiplicity = 1

                         Standard orientation:
 ---------------------------------------------------------------------
 Center     Atomic      Atomic             Coordinates (Angstroms)
 Number     Number       Type             X           Y           Z
 ---------------------------------------------------------------------
      1          6           0       -0.674780    0.350462    0.001124
      2          8           0       -1.780596   -0.131113    0.000653
      3          6           0        0.554897   -0.445812    0.002563
      4          6           0        1.747681    0.139950   -0.010360
      5          1           0        0.496563   -1.488348   -0.020808
      6          1           0        1.826429    1.226426   -0.006491
      7          1           0        2.673607   -0.436027    0.052738
      8          1           0       -0.518624    1.479253    0.009371
 ---------------------------------------------------------------------

 SCF Done:  E(RB2PLYPD3) =  -191.615243681     A.U. after   13 cycles
 E2(B2PLYPD3) =    -0.2469473352D+00 E(B2PLYPD3) =    -0.19186219101579D+03

 The electronic state is 1-A.
 Alpha  occ. eigenvalues --  -19.72864 -10.71865 -10.65446 -10.63844  -1.19864
 Alpha  occ. eigenvalues --   -0.93193  -0.75112  -0.67065  -0.56626  -0.56351
 Alpha  occ. eigenvalues --   -0.50487  -0.47170  -0.46931  -0.34743  -0.33835
 Alpha virt. eigenvalues --   -0.01633   0.05759   0.07152   0.08256   0.09747
 Alpha virt. eigenvalues --    0.12509   0.13927   0.15368   0.17726   0.19735
 Alpha virt. eigenvalues --    0.19910   0.21448   0.25628   0.26245   0.28815

 Mulliken charges:
               1
     1  C    0.153013
     2  O   -0.342705
     3  C   -0.038170
     4  C   -0.127323
     5  H    0.107351
     6  H    0.081907
     7  H    0.099685
     8  H    0.066242
 Sum of Mulliken charges =   0.00000

 Dipole moment (field-independent basis, Debye):
    X=              3.4453    Y=              0.7294    Z=              0.0240  Tot=              3.5217
 Quadrupole moment (field-independent basis, Debye-Ang):
   XX=            -27.3786   YY=            -21.7858   ZZ=            -25.1888
   XY=             -1.0871   XZ=              0.1126   YZ=             -0.0009

 Normal termination of Gaussian 09 at Wed Aug 26 15:20:57 2020.
