 Gaussian 09, Revision D.01,
 Gaussian 09:  ES64L-G09RevD.01 24-Apr-2013

 --------------------
 #p B2PLYPD3/Def2QZVP
 --------------------

 --------
 acrolein
 --------
 Symbolic Z-matrix:
 Charge =  0 Multiplicity = 1

                         Standard orientation:
 ---------------------------------------------------------------------
 Center     Atomic      Atomic             Coordinates (Angstroms)
 Number     Number       Type             X           Y           Z
 ---------------------------------------------------------------------
      1          6           0       -0.657928    0.339319   -0.001990
      2          8           0       -1.788879   -0.128258    0.027643
      3          6           0        0.565275   -0.431714   -0.053868
      4          6           0        1.734382    0.138765    0.012057
      5          1           0        0.485111   -1.486239   -0.041424
      6          1           0        1.770373    1.160704   -0.003227
      7          1           0        2.696393   -0.402322    0.160992
      8          1           0       -0.491223    1.475702   -0.074680
 ---------------------------------------------------------------------

 SCF Done:  E(RB2PLYPD3) =  -191.608787069     A.U. after   12 cycles
 E2(B2PLYPD3) =    -0.2474075688D+00 E(B2PLYPD3) =    -0.19185619463753D+03

 The electronic state is 1-A.
 Alpha  occ. eigenvalues --  -19.72973 -10.72106 -10.64845 -10.63641  -1.18796
 Alpha  occ. eigenvalues --   -0.94427  -0.75792  -0.67268  -0.56762  -0.56634
 Alpha  occ. eigenvalues --   -0.50438  -0.47182  -0.46474  -0.35256  -0.33881
 Alpha virt. eigenvalues --   -0.01892   0.05762   0.07024   0.08320   0.09798
 Alpha virt. eigenvalues --    0.12625   0.13978   0.15261   0.17447   0.19667
 Alpha virt. eigenvalues --    0.20361   0.21541   0.25496   0.26284   0.28903

 Mulliken charges:
               1
     1  C    0.150399
     2  O   -0.353252
     3  C   -0.018930
     4  C   -0.123023
     5  H    0.103179
     6  H    0.083548
     7  H    0.100044
     8  H    0.058034
 Sum of Mulliken charges =   0.00000

 Dipole moment (field-independent basis, Debye):
    X=              3.6134    Y=              0.7131    Z=              0.0140  Tot=              3.6831
 Quadrupole moment (field-independent basis, Debye-Ang):
   XX=            -27.3401   YY=            -22.0020   ZZ=            -25.0302
   XY=             -1.0056   XZ=              0.5239   YZ=             -0.0911

 Normal termination of Gaussian 09 at Wed Aug 26 09:25:25 2020.
