 Gaussian 09, Revision D.01,
 Gaussian 09:  ES64L-G09RevD.01 24-Apr-2013

 --------------------
 #p B2PLYPD3/Def2QZVP
 --------------------

 --------
 acrolein
 --------
 Symbolic Z-matrix:
 Charge =  0 Multiplicity = 1

                         Standard orientation:
 ---------------------------------------------------------------------
 Center     Atomic      Atomic             Coordinates (Angstroms)
 Number     Number       Type             X           Y           Z
 ---------------------------------------------------------------------
      1          6           0       -0.690210    0.340555    0.060107
      2          8           0       -1.762027   -0.111878   -0.074832
      3          6           0        0.528133   -0.425970    0.022057
      4          6           0        1.780736    0.136992   -0.035998
      5          1           0        0.373415   -1.504050    0.225989
      6          1           0        1.899834    1.264098   -0.134596
      7          1           0        2.700620   -0.496560   -0.055959
      8          1           0       -0.589611    1.322076    0.286233
 ---------------------------------------------------------------------

 SCF Done:  E(RB2PLYPD3) =  -191.600446553     A.U. after   13 cycles
 E2(B2PLYPD3) =    -0.2460339975D+00 E(B2PLYPD3) =    -0.19184648055097D+03

 The electronic state is 1-A.
 Alpha  occ. eigenvalues --  -19.72305 -10.69580 -10.66943 -10.64642  -1.21847
 Alpha  occ. eigenvalues --   -0.91831  -0.75806  -0.67698  -0.56876  -0.55869
 Alpha  occ. eigenvalues --   -0.51126  -0.48012  -0.45789  -0.34113  -0.33541
 Alpha virt. eigenvalues --   -0.01847   0.05631   0.07157   0.08620   0.09557
 Alpha virt. eigenvalues --    0.12438   0.13877   0.15206   0.18143   0.18673
 Alpha virt. eigenvalues --    0.20018   0.21382   0.24776   0.27524   0.29009

 Mulliken charges:
               1
     1  C    0.160570
     2  O   -0.332305
     3  C   -0.049895
     4  C   -0.141514
     5  H    0.101937
     6  H    0.084224
     7  H    0.106216
     8  H    0.070766
 Sum of Mulliken charges =   0.00000

 Dipole moment (field-independent basis, Debye):
    X=              3.2731    Y=              0.7854    Z=              0.3721  Tot=              3.3865
 Quadrupole moment (field-independent basis, Debye-Ang):
   XX=            -27.1145   YY=            -21.8378   ZZ=            -25.1913
   XY=             -0.9224   XZ=             -0.6561   YZ=             -0.3806

 Normal termination of Gaussian 09 at Wed Aug 26 12:08:41 2020.
