 Gaussian 09, Revision D.01,
 Gaussian 09:  ES64L-G09RevD.01 24-Apr-2013

 --------------------
 #p B2PLYPD3/Def2QZVP
 --------------------

 --------
 acrolein
 --------
 Symbolic Z-matrix:
 Charge =  0 Multiplicity = 1

                         Standard orientation:
 ---------------------------------------------------------------------
 Center     Atomic      Atomic             Coordinates (Angstroms)
 Number     Number       Type             X           Y           Z
 ---------------------------------------------------------------------
      1          6           0       -0.648898    0.344187   -0.020773
      2          8           0       -1.809591   -0.107936    0.050500
      3          6           0        0.626836   -0.492461   -0.092070
      4          6           0        1.722324    0.154175    0.037457
      5          1           0        0.480188   -1.563775   -0.022967
      6          1           0        1.859182    1.277395    0.026396
      7          1           0        2.462991   -0.334442    0.198987
      8          1           0       -0.527200    1.448904   -0.154099
 ---------------------------------------------------------------------

 SCF Done:  E(RB2PLYPD3) =  -191.571628618     A.U. after   13 cycles
 E2(B2PLYPD3) =    -0.2480615824D+00 E(B2PLYPD3) =    -0.19181969020041D+03

 The electronic state is 1-A.
 Alpha  occ. eigenvalues --  -19.72885 -10.72405 -10.64455 -10.63064  -1.17189
 Alpha  occ. eigenvalues --   -0.94740  -0.76100  -0.66814  -0.58339  -0.55695
 Alpha  occ. eigenvalues --   -0.50525  -0.47193  -0.45335  -0.35656  -0.33452
 Alpha virt. eigenvalues --   -0.01163   0.05777   0.06972   0.07418   0.09566
 Alpha virt. eigenvalues --    0.12665   0.14005   0.15280   0.17068   0.19623
 Alpha virt. eigenvalues --    0.19945   0.22654   0.24797   0.26341   0.28193

 Mulliken charges:
               1
     1  C    0.158963
     2  O   -0.365105
     3  C   -0.052061
     4  C   -0.127354
     5  H    0.108192
     6  H    0.084899
     7  H    0.113739
     8  H    0.078726
 Sum of Mulliken charges =   0.00000

 Dipole moment (field-independent basis, Debye):
    X=              3.6392    Y=              0.7241    Z=             -0.0192  Tot=              3.7106
 Quadrupole moment (field-independent basis, Debye-Ang):
   XX=            -28.0526   YY=            -21.3396   ZZ=            -24.9957
   XY=             -0.7024   XZ=              0.7848   YZ=             -0.1536

 Normal termination of Gaussian 09 at Wed Aug 26 12:31:52 2020.
