 Gaussian 09, Revision D.01,
 Gaussian 09:  ES64L-G09RevD.01 24-Apr-2013

 --------------------
 #p B2PLYPD3/Def2QZVP
 --------------------

 --------
 acrolein
 --------
 Symbolic Z-matrix:
 Charge =  0 Multiplicity = 1

                         Standard orientation:
 ---------------------------------------------------------------------
 Center     Atomic      Atomic             Coordinates (Angstroms)
 Number     Number       Type             X           Y           Z
 ---------------------------------------------------------------------
      1          6           0        0.673598    0.397163    0.050675
      2          8           0        1.791400   -0.159027   -0.067950
      3          6           0       -0.571336   -0.431871    0.076382
      4          6           0       -1.751622    0.113089   -0.071365
      5          1           0       -0.485894   -1.536925    0.196996
      6          1           0       -1.853397    1.297541    0.080061
      7          1           0       -2.660892   -0.449943   -0.174559
      8          1           0        0.565148    1.491262    0.106947
 ---------------------------------------------------------------------

 SCF Done:  E(RB2PLYPD3) =  -191.598892924     A.U. after   14 cycles
 E2(B2PLYPD3) =    -0.2499312871D+00 E(B2PLYPD3) =    -0.19184882421131D+03

 The electronic state is 1-A.
 Alpha  occ. eigenvalues --  -19.73115 -10.72729 -10.65917 -10.64760  -1.17212
 Alpha  occ. eigenvalues --   -0.92974  -0.74965  -0.66251  -0.56418  -0.55471
 Alpha  occ. eigenvalues --   -0.50314  -0.46172  -0.44435  -0.34704  -0.34173
 Alpha virt. eigenvalues --   -0.01875   0.05367   0.06511   0.07606   0.09548
 Alpha virt. eigenvalues --    0.11859   0.14088   0.15231   0.17277   0.19363
 Alpha virt. eigenvalues --    0.19867   0.21489   0.24810   0.26348   0.28693

 Mulliken charges:
               1
     1  C    0.161597
     2  O   -0.362279
     3  C   -0.047866
     4  C   -0.121801
     5  H    0.104497
     6  H    0.066616
     7  H    0.104444
     8  H    0.094792
 Sum of Mulliken charges =   0.00000

 Dipole moment (field-independent basis, Debye):
    X=             -3.4811    Y=              0.9273    Z=              0.3448  Tot=              3.6189
 Quadrupole moment (field-independent basis, Debye-Ang):
   XX=            -27.8782   YY=            -21.5270   ZZ=            -25.3691
   XY=              1.5170   XZ=              0.5207   YZ=              0.0527

 Normal termination of Gaussian 09 at Wed Aug 26 12:45:13 2020.
