 Gaussian 09, Revision D.01,
 Gaussian 09:  ES64L-G09RevD.01 24-Apr-2013

 --------------------
 #p B2PLYPD3/Def2QZVP
 --------------------

 --------
 acrolein
 --------
 Symbolic Z-matrix:
 Charge =  0 Multiplicity = 1

                         Standard orientation:
 ---------------------------------------------------------------------
 Center     Atomic      Atomic             Coordinates (Angstroms)
 Number     Number       Type             X           Y           Z
 ---------------------------------------------------------------------
      1          6           0        0.681209    0.373435    0.000050
      2          8           0        1.771570   -0.137567   -0.020547
      3          6           0       -0.544865   -0.435867    0.024875
      4          6           0       -1.751171    0.125265   -0.004544
      5          1           0       -0.456563   -1.533141    0.050567
      6          1           0       -1.807026    1.193948   -0.067021
      7          1           0       -2.690805   -0.402258   -0.062941
      8          1           0        0.470790    1.464995    0.121483
 ---------------------------------------------------------------------

 SCF Done:  E(RB2PLYPD3) =  -191.614283397     A.U. after   12 cycles
 E2(B2PLYPD3) =    -0.2471069381D+00 E(B2PLYPD3) =    -0.19186139033500D+03

 The electronic state is 1-A.
 Alpha  occ. eigenvalues --  -19.73060 -10.71872 -10.65011 -10.64223  -1.20127
 Alpha  occ. eigenvalues --   -0.92868  -0.75390  -0.66781  -0.56719  -0.56271
 Alpha  occ. eigenvalues --   -0.51002  -0.47178  -0.46132  -0.34627  -0.33990
 Alpha virt. eigenvalues --   -0.01615   0.05809   0.07115   0.08070   0.09786
 Alpha virt. eigenvalues --    0.12584   0.14171   0.15393   0.17400   0.19466
 Alpha virt. eigenvalues --    0.20168   0.21631   0.25516   0.26541   0.28729

 Mulliken charges:
               1
     1  C    0.156079
     2  O   -0.339904
     3  C   -0.039380
     4  C   -0.129752
     5  H    0.102581
     6  H    0.072930
     7  H    0.102696
     8  H    0.074750
 Sum of Mulliken charges =   0.00000

 Dipole moment (field-independent basis, Debye):
    X=             -3.3608    Y=              0.8204    Z=              0.0170  Tot=              3.4595
 Quadrupole moment (field-independent basis, Debye-Ang):
   XX=            -27.2426   YY=            -21.8563   ZZ=            -25.1941
   XY=              1.0507   XZ=              0.3436   YZ=             -0.0491

 Normal termination of Gaussian 09 at Wed Aug 26 09:01:28 2020.
