 Gaussian 09, Revision D.01,
 Gaussian 09:  ES64L-G09RevD.01 24-Apr-2013

 --------------------
 #p B2PLYPD3/Def2QZVP
 --------------------

 --------
 acrolein
 --------
 Symbolic Z-matrix:
 Charge =  0 Multiplicity = 1

                         Standard orientation:
 ---------------------------------------------------------------------
 Center     Atomic      Atomic             Coordinates (Angstroms)
 Number     Number       Type             X           Y           Z
 ---------------------------------------------------------------------
      1          6           0       -0.695023    0.381990   -0.052818
      2          8           0       -1.771288   -0.153064    0.025473
      3          6           0        0.563136   -0.429730    0.030086
      4          6           0        1.745979    0.132103   -0.019711
      5          1           0        0.484222   -1.423216   -0.028940
      6          1           0        1.837627    1.212181    0.225658
      7          1           0        2.721720   -0.465888   -0.072110
      8          1           0       -0.557811    1.395257   -0.073733
 ---------------------------------------------------------------------

 SCF Done:  E(RB2PLYPD3) =  -191.599400339     A.U. after   13 cycles
 E2(B2PLYPD3) =    -0.2460906191D+00 E(B2PLYPD3) =    -0.19184549095820D+03

 The electronic state is 1-A.
 Alpha  occ. eigenvalues --  -19.72923 -10.71095 -10.65407 -10.62900  -1.20067
 Alpha  occ. eigenvalues --   -0.93009  -0.74988  -0.68738  -0.57129  -0.55945
 Alpha  occ. eigenvalues --   -0.51071  -0.47037  -0.46165  -0.34782  -0.33875
 Alpha virt. eigenvalues --   -0.01271   0.05643   0.07504   0.07719   0.09773
 Alpha virt. eigenvalues --    0.12404   0.14060   0.15250   0.18215   0.19448
 Alpha virt. eigenvalues --    0.20082   0.21329   0.24404   0.26779   0.28424

 Mulliken charges:
               1
     1  C    0.163401
     2  O   -0.343760
     3  C   -0.062802
     4  C   -0.125484
     5  H    0.112014
     6  H    0.074679
     7  H    0.088023
     8  H    0.093929
 Sum of Mulliken charges =   0.00000

 Dipole moment (field-independent basis, Debye):
    X=              3.1820    Y=              0.9413    Z=             -0.0537  Tot=              3.3187
 Quadrupole moment (field-independent basis, Debye-Ang):
   XX=            -27.5587   YY=            -21.6951   ZZ=            -25.0061
   XY=             -1.3770   XZ=              0.2744   YZ=              0.3364

 Normal termination of Gaussian 09 at Wed Aug 26 11:23:42 2020.
