 Gaussian 09, Revision D.01,
 Gaussian 09:  ES64L-G09RevD.01 24-Apr-2013

 --------------------
 #p B2PLYPD3/Def2QZVP
 --------------------

 --------
 acrolein
 --------
 Symbolic Z-matrix:
 Charge =  0 Multiplicity = 1

                         Standard orientation:
 ---------------------------------------------------------------------
 Center     Atomic      Atomic             Coordinates (Angstroms)
 Number     Number       Type             X           Y           Z
 ---------------------------------------------------------------------
      1          6           0       -0.644236    0.318795   -0.058191
      2          8           0       -1.796427   -0.080653    0.048915
      3          6           0        0.596264   -0.487095   -0.026413
      4          6           0        1.734730    0.159813    0.015435
      5          1           0        0.466721   -1.524162    0.032883
      6          1           0        1.835489    1.266896    0.263414
      7          1           0        2.415806   -0.352500   -0.074333
      8          1           0       -0.467141    1.305910   -0.198273
 ---------------------------------------------------------------------

 SCF Done:  E(RB2PLYPD3) =  -191.548963844     A.U. after   14 cycles
 E2(B2PLYPD3) =    -0.2463160656D+00 E(B2PLYPD3) =    -0.19179527990919D+03

 The electronic state is 1-A.
 Alpha  occ. eigenvalues --  -19.72501 -10.70353 -10.63804 -10.63200  -1.18348
 Alpha  occ. eigenvalues --   -0.94913  -0.78050  -0.68425  -0.58791  -0.56172
 Alpha  occ. eigenvalues --   -0.50809  -0.48786  -0.45859  -0.34951  -0.33538
 Alpha virt. eigenvalues --   -0.01743   0.05760   0.07482   0.07813   0.09751
 Alpha virt. eigenvalues --    0.12929   0.14139   0.15541   0.17463   0.19087
 Alpha virt. eigenvalues --    0.20528   0.22914   0.24590   0.27013   0.28296

 Mulliken charges:
               1
     1  C    0.149571
     2  O   -0.363008
     3  C   -0.033310
     4  C   -0.186709
     5  H    0.102610
     6  H    0.097373
     7  H    0.150708
     8  H    0.082763
 Sum of Mulliken charges =   0.00000

 Dipole moment (field-independent basis, Debye):
    X=              3.6234    Y=              0.6584    Z=             -0.0628  Tot=              3.6832
 Quadrupole moment (field-independent basis, Debye-Ang):
   XX=            -28.0360   YY=            -21.3782   ZZ=            -24.7314
   XY=             -0.5691   XZ=              0.5374   YZ=              0.2518

 Normal termination of Gaussian 09 at Wed Aug 26 12:24:16 2020.
