 Gaussian 09, Revision D.01,
 Gaussian 09:  ES64L-G09RevD.01 24-Apr-2013

 --------------------
 #p B2PLYPD3/Def2QZVP
 --------------------

 --------
 acrolein
 --------
 Symbolic Z-matrix:
 Charge =  0 Multiplicity = 1

                         Standard orientation:
 ---------------------------------------------------------------------
 Center     Atomic      Atomic             Coordinates (Angstroms)
 Number     Number       Type             X           Y           Z
 ---------------------------------------------------------------------
      1          6           0       -0.651708    0.326564   -0.033047
      2          8           0       -1.800027   -0.104374    0.014393
      3          6           0        0.562221   -0.456899   -0.017377
      4          6           0        1.739593    0.146544    0.018078
      5          1           0        0.463480   -1.534592    0.024970
      6          1           0        1.826644    1.262185   -0.039265
      7          1           0        2.707021   -0.407558    0.017008
      8          1           0       -0.497570    1.417700    0.076213
 ---------------------------------------------------------------------

 SCF Done:  E(RB2PLYPD3) =  -191.612207282     A.U. after   13 cycles
 E2(B2PLYPD3) =    -0.2482361103D+00 E(B2PLYPD3) =    -0.19186044339271D+03

 The electronic state is 1-A.
 Alpha  occ. eigenvalues --  -19.72687 -10.71511 -10.66397 -10.64467  -1.18407
 Alpha  occ. eigenvalues --   -0.93707  -0.75523  -0.66849  -0.56490  -0.56123
 Alpha  occ. eigenvalues --   -0.50140  -0.46547  -0.46292  -0.35019  -0.33773
 Alpha virt. eigenvalues --   -0.02132   0.05567   0.06953   0.08103   0.09655
 Alpha virt. eigenvalues --    0.12488   0.14056   0.15204   0.17509   0.19552
 Alpha virt. eigenvalues --    0.20053   0.21299   0.25161   0.26680   0.28891

 Mulliken charges:
               1
     1  C    0.155576
     2  O   -0.358695
     3  C   -0.031344
     4  C   -0.120277
     5  H    0.106055
     6  H    0.083423
     7  H    0.100106
     8  H    0.065157
 Sum of Mulliken charges =   0.00000

 Dipole moment (field-independent basis, Debye):
    X=              3.7067    Y=              0.6694    Z=             -0.0381  Tot=              3.7668
 Quadrupole moment (field-independent basis, Debye-Ang):
   XX=            -27.5377   YY=            -21.8088   ZZ=            -25.2297
   XY=             -0.8182   XZ=              0.0422   YZ=             -0.0676

 Normal termination of Gaussian 09 at Wed Aug 26 09:19:48 2020.
