 Gaussian 09, Revision D.01,
 Gaussian 09:  ES64L-G09RevD.01 24-Apr-2013

 --------------------
 #p B2PLYPD3/Def2QZVP
 --------------------

 --------
 acrolein
 --------
 Symbolic Z-matrix:
 Charge =  0 Multiplicity = 1

                         Standard orientation:
 ---------------------------------------------------------------------
 Center     Atomic      Atomic             Coordinates (Angstroms)
 Number     Number       Type             X           Y           Z
 ---------------------------------------------------------------------
      1          6           0        0.671414    0.353608   -0.010229
      2          8           0        1.779289   -0.128409    0.011316
      3          6           0       -0.552559   -0.439833   -0.007847
      4          6           0       -1.753692    0.143060    0.007748
      5          1           0       -0.448486   -1.512325    0.001625
      6          1           0       -1.788273    1.156195    0.077189
      7          1           0       -2.701249   -0.406126   -0.040279
      8          1           0        0.512724    1.448524   -0.067089
 ---------------------------------------------------------------------

 SCF Done:  E(RB2PLYPD3) =  -191.613511002     A.U. after   12 cycles
 E2(B2PLYPD3) =    -0.2467761506D+00 E(B2PLYPD3) =    -0.19186028715220D+03

 The electronic state is 1-A.
 Alpha  occ. eigenvalues --  -19.72786 -10.71497 -10.64902 -10.64159  -1.19682
 Alpha  occ. eigenvalues --   -0.93283  -0.75771  -0.67409  -0.57061  -0.56415
 Alpha  occ. eigenvalues --   -0.50611  -0.47304  -0.46895  -0.34579  -0.33910
 Alpha virt. eigenvalues --   -0.01821   0.05830   0.07214   0.08262   0.09822
 Alpha virt. eigenvalues --    0.12664   0.14065   0.15392   0.17431   0.19790
 Alpha virt. eigenvalues --    0.20290   0.21626   0.25501   0.26399   0.28991

 Mulliken charges:
               1
     1  C    0.148954
     2  O   -0.347570
     3  C   -0.030482
     4  C   -0.135491
     5  H    0.104849
     6  H    0.086100
     7  H    0.102822
     8  H    0.070817
 Sum of Mulliken charges =   0.00000

 Dipole moment (field-independent basis, Debye):
    X=             -3.4770    Y=              0.7871    Z=             -0.0257  Tot=              3.5651
 Quadrupole moment (field-independent basis, Debye-Ang):
   XX=            -27.2727   YY=            -21.8300   ZZ=            -25.1243
   XY=              1.0148   XZ=             -0.0777   YZ=              0.0793

 Normal termination of Gaussian 09 at Wed Aug 26 19:36:06 2020.
