 Gaussian 09, Revision D.01,
 Gaussian 09:  ES64L-G09RevD.01 24-Apr-2013

 --------------------
 #p B2PLYPD3/Def2QZVP
 --------------------

 --------
 acrolein
 --------
 Symbolic Z-matrix:
 Charge =  0 Multiplicity = 1

                         Standard orientation:
 ---------------------------------------------------------------------
 Center     Atomic      Atomic             Coordinates (Angstroms)
 Number     Number       Type             X           Y           Z
 ---------------------------------------------------------------------
      1          6           0        0.665744    0.351835    0.019459
      2          8           0        1.793243   -0.115794   -0.023134
      3          6           0       -0.563257   -0.449858    0.043677
      4          6           0       -1.763334    0.135984   -0.011292
      5          1           0       -0.455967   -1.529155   -0.048112
      6          1           0       -1.870576    1.272750   -0.060346
      7          1           0       -2.579999   -0.436520   -0.050453
      8          1           0        0.525683    1.391515    0.032920
 ---------------------------------------------------------------------

 SCF Done:  E(RB2PLYPD3) =  -191.606867007     A.U. after   13 cycles
 E2(B2PLYPD3) =    -0.2472738256D+00 E(B2PLYPD3) =    -0.19185414083222D+03

 The electronic state is 1-A.
 Alpha  occ. eigenvalues --  -19.72626 -10.71024 -10.65285 -10.64460  -1.18747
 Alpha  occ. eigenvalues --   -0.93147  -0.76369  -0.67424  -0.57126  -0.56293
 Alpha  occ. eigenvalues --   -0.50599  -0.47009  -0.46248  -0.34609  -0.33911
 Alpha virt. eigenvalues --   -0.01947   0.05710   0.07217   0.08091   0.09679
 Alpha virt. eigenvalues --    0.12544   0.13990   0.15365   0.17632   0.19312
 Alpha virt. eigenvalues --    0.20013   0.22153   0.25252   0.26639   0.28728

 Mulliken charges:
               1
     1  C    0.157834
     2  O   -0.357701
     3  C   -0.045237
     4  C   -0.130001
     5  H    0.102840
     6  H    0.082852
     7  H    0.107785
     8  H    0.081628
 Sum of Mulliken charges =   0.00000

 Dipole moment (field-independent basis, Debye):
    X=             -3.5658    Y=              0.7916    Z=             -0.0557  Tot=              3.6530
 Quadrupole moment (field-independent basis, Debye-Ang):
   XX=            -27.6931   YY=            -21.5281   ZZ=            -25.1646
   XY=              0.9824   XZ=              0.3804   YZ=              0.0656

 Normal termination of Gaussian 09 at Wed Aug 26 09:22:29 2020.
