 Gaussian 09, Revision D.01,
 Gaussian 09:  ES64L-G09RevD.01 24-Apr-2013

 --------------------
 #p B2PLYPD3/Def2QZVP
 --------------------

 --------
 acrolein
 --------
 Symbolic Z-matrix:
 Charge =  0 Multiplicity = 1

                         Standard orientation:
 ---------------------------------------------------------------------
 Center     Atomic      Atomic             Coordinates (Angstroms)
 Number     Number       Type             X           Y           Z
 ---------------------------------------------------------------------
      1          6           0        0.683557    0.346143   -0.076226
      2          8           0        1.760714   -0.133382    0.058716
      3          6           0       -0.560730   -0.426390   -0.005170
      4          6           0       -1.738643    0.117257    0.010928
      5          1           0       -0.492156   -1.487233   -0.122291
      6          1           0       -1.855160    1.215426    0.182125
      7          1           0       -2.611401   -0.357445    0.025012
      8          1           0        0.567901    1.474247   -0.131759
 ---------------------------------------------------------------------

 SCF Done:  E(RB2PLYPD3) =  -191.606261770     A.U. after   13 cycles
 E2(B2PLYPD3) =    -0.2451590742D+00 E(B2PLYPD3) =    -0.19185142084382D+03

 The electronic state is 1-A.
 Alpha  occ. eigenvalues --  -19.72918 -10.71569 -10.63962 -10.63518  -1.21172
 Alpha  occ. eigenvalues --   -0.93662  -0.75849  -0.66626  -0.58005  -0.56641
 Alpha  occ. eigenvalues --   -0.51629  -0.47705  -0.45771  -0.35249  -0.33777
 Alpha virt. eigenvalues --   -0.01155   0.05979   0.07343   0.08338   0.09745
 Alpha virt. eigenvalues --    0.12713   0.14416   0.15092   0.17680   0.19550
 Alpha virt. eigenvalues --    0.20039   0.22199   0.25145   0.26547   0.28932

 Mulliken charges:
               1
     1  C    0.158568
     2  O   -0.327700
     3  C   -0.040397
     4  C   -0.114719
     5  H    0.097501
     6  H    0.064380
     7  H    0.099647
     8  H    0.062720
 Sum of Mulliken charges =   0.00000

 Dipole moment (field-independent basis, Debye):
    X=             -3.2716    Y=              0.7076    Z=             -0.1962  Tot=              3.3530
 Quadrupole moment (field-independent basis, Debye-Ang):
   XX=            -26.9171   YY=            -22.0527   ZZ=            -24.9133
   XY=              1.0947   XZ=             -0.5349   YZ=              0.3350

 Normal termination of Gaussian 09 at Wed Aug 26 11:05:21 2020.
