 Gaussian 09, Revision D.01,
 Gaussian 09:  ES64L-G09RevD.01 24-Apr-2013

 --------------------
 #p B2PLYPD3/Def2QZVP
 --------------------

 --------
 acrolein
 --------
 Symbolic Z-matrix:
 Charge =  0 Multiplicity = 1

                         Standard orientation:
 ---------------------------------------------------------------------
 Center     Atomic      Atomic             Coordinates (Angstroms)
 Number     Number       Type             X           Y           Z
 ---------------------------------------------------------------------
      1          6           0       -0.674084    0.351338   -0.004648
      2          8           0       -1.794296   -0.118078    0.015745
      3          6           0        0.578135   -0.468995   -0.030575
      4          6           0        1.754290    0.153465    0.008631
      5          1           0        0.477487   -1.532119   -0.005849
      6          1           0        1.848838    1.251342    0.007543
      7          1           0        2.614731   -0.413135    0.072471
      8          1           0       -0.536733    1.423693   -0.040580
 ---------------------------------------------------------------------

 SCF Done:  E(RB2PLYPD3) =  -191.614061836     A.U. after   12 cycles
 E2(B2PLYPD3) =    -0.2468931235D+00 E(B2PLYPD3) =    -0.19186095495949D+03

 The electronic state is 1-A.
 Alpha  occ. eigenvalues --  -19.72748 -10.71523 -10.64941 -10.64410  -1.19187
 Alpha  occ. eigenvalues --   -0.92901  -0.75333  -0.67414  -0.56866  -0.56269
 Alpha  occ. eigenvalues --   -0.50593  -0.47452  -0.46426  -0.34675  -0.33737
 Alpha virt. eigenvalues --   -0.01473   0.05808   0.07279   0.07871   0.09690
 Alpha virt. eigenvalues --    0.12638   0.14072   0.15362   0.17566   0.19653
 Alpha virt. eigenvalues --    0.19982   0.21837   0.25295   0.26483   0.28600

 Mulliken charges:
               1
     1  C    0.155568
     2  O   -0.350319
     3  C   -0.050552
     4  C   -0.130257
     5  H    0.107529
     6  H    0.086350
     7  H    0.101403
     8  H    0.080278
 Sum of Mulliken charges =   0.00000

 Dipole moment (field-independent basis, Debye):
    X=              3.4615    Y=              0.7800    Z=              0.0115  Tot=              3.5483
 Quadrupole moment (field-independent basis, Debye-Ang):
   XX=            -27.7031   YY=            -21.4894   ZZ=            -25.1911
   XY=             -0.9439   XZ=              0.2789   YZ=             -0.0575

 Normal termination of Gaussian 09 at Wed Aug 26 08:47:35 2020.
