 Gaussian 09, Revision D.01,
 Gaussian 09:  ES64L-G09RevD.01 24-Apr-2013

 --------------------
 #p B2PLYPD3/Def2QZVP
 --------------------

 --------
 acrolein
 --------
 Symbolic Z-matrix:
 Charge =  0 Multiplicity = 1

                         Standard orientation:
 ---------------------------------------------------------------------
 Center     Atomic      Atomic             Coordinates (Angstroms)
 Number     Number       Type             X           Y           Z
 ---------------------------------------------------------------------
      1          6           0        0.679497    0.349537   -0.018525
      2          8           0        1.777990   -0.127566    0.013126
      3          6           0       -0.556114   -0.436526    0.001078
      4          6           0       -1.747349    0.144207   -0.003002
      5          1           0       -0.465238   -1.502413   -0.021439
      6          1           0       -1.820010    1.203433    0.059128
      7          1           0       -2.725543   -0.435476    0.009459
      8          1           0        0.530670    1.411679   -0.029455
 ---------------------------------------------------------------------

 SCF Done:  E(RB2PLYPD3) =  -191.614603134     A.U. after   12 cycles
 E2(B2PLYPD3) =    -0.2461373645D+00 E(B2PLYPD3) =    -0.19186074049822D+03

 The electronic state is 1-A.
 Alpha  occ. eigenvalues --  -19.72727 -10.71044 -10.65550 -10.63903  -1.20288
 Alpha  occ. eigenvalues --   -0.93125  -0.75272  -0.67621  -0.57117  -0.56052
 Alpha  occ. eigenvalues --   -0.50696  -0.47226  -0.46596  -0.34776  -0.33891
 Alpha virt. eigenvalues --   -0.01492   0.05702   0.07264   0.08391   0.09736
 Alpha virt. eigenvalues --    0.12549   0.14085   0.15371   0.17763   0.19796
 Alpha virt. eigenvalues --    0.19981   0.21307   0.25624   0.26475   0.28785

 Mulliken charges:
               1
     1  C    0.151333
     2  O   -0.343066
     3  C   -0.036133
     4  C   -0.132720
     5  H    0.104896
     6  H    0.083386
     7  H    0.097644
     8  H    0.074659
 Sum of Mulliken charges =   0.00000

 Dipole moment (field-independent basis, Debye):
    X=             -3.3894    Y=              0.8027    Z=             -0.0219  Tot=              3.4832
 Quadrupole moment (field-independent basis, Debye-Ang):
   XX=            -27.3137   YY=            -21.8086   ZZ=            -25.1279
   XY=              1.0419   XZ=             -0.1676   YZ=              0.0907

 Normal termination of Gaussian 09 at Wed Aug 26 08:52:54 2020.
