 Gaussian 09, Revision D.01,
 Gaussian 09:  ES64L-G09RevD.01 24-Apr-2013

 --------------------
 #p B2PLYPD3/Def2QZVP
 --------------------

 --------
 acrolein
 --------
 Symbolic Z-matrix:
 Charge =  0 Multiplicity = 1

                         Standard orientation:
 ---------------------------------------------------------------------
 Center     Atomic      Atomic             Coordinates (Angstroms)
 Number     Number       Type             X           Y           Z
 ---------------------------------------------------------------------
      1          6           0        0.675990    0.357133    0.022604
      2          8           0        1.784990   -0.135733   -0.021936
      3          6           0       -0.559328   -0.437670    0.007527
      4          6           0       -1.754236    0.132634   -0.010675
      5          1           0       -0.492995   -1.474305    0.066789
      6          1           0       -1.792592    1.200464   -0.032630
      7          1           0       -2.665193   -0.418277   -0.030583
      8          1           0        0.496309    1.465402    0.055176
 ---------------------------------------------------------------------

 SCF Done:  E(RB2PLYPD3) =  -191.614768778     A.U. after   12 cycles
 E2(B2PLYPD3) =    -0.2469640263D+00 E(B2PLYPD3) =    -0.19186173280414D+03

 The electronic state is 1-A.
 Alpha  occ. eigenvalues --  -19.73013 -10.71961 -10.64850 -10.63647  -1.19431
 Alpha  occ. eigenvalues --   -0.93420  -0.75560  -0.67422  -0.56976  -0.56399
 Alpha  occ. eigenvalues --   -0.50823  -0.47250  -0.46653  -0.34776  -0.34004
 Alpha virt. eigenvalues --   -0.01711   0.05829   0.07261   0.08179   0.09798
 Alpha virt. eigenvalues --    0.12632   0.13960   0.15336   0.17738   0.19813
 Alpha virt. eigenvalues --    0.19987   0.21552   0.25614   0.26395   0.28966

 Mulliken charges:
               1
     1  C    0.151498
     2  O   -0.346787
     3  C   -0.032418
     4  C   -0.131136
     5  H    0.105058
     6  H    0.078555
     7  H    0.103599
     8  H    0.071631
 Sum of Mulliken charges =   0.00000

 Dipole moment (field-independent basis, Debye):
    X=             -3.4641    Y=              0.7737    Z=              0.0997  Tot=              3.5508
 Quadrupole moment (field-independent basis, Debye-Ang):
   XX=            -27.3664   YY=            -21.8320   ZZ=            -25.1190
   XY=              1.1538   XZ=              0.1867   YZ=             -0.0883

 Normal termination of Gaussian 09 at Wed Aug 26 15:40:10 2020.
