 Gaussian 09, Revision D.01,
 Gaussian 09:  ES64L-G09RevD.01 24-Apr-2013

 --------------------
 #p B2PLYPD3/Def2QZVP
 --------------------

 --------
 acrolein
 --------
 Symbolic Z-matrix:
 Charge =  0 Multiplicity = 1

                         Standard orientation:
 ---------------------------------------------------------------------
 Center     Atomic      Atomic             Coordinates (Angstroms)
 Number     Number       Type             X           Y           Z
 ---------------------------------------------------------------------
      1          6           0       -0.679265    0.344351    0.022726
      2          8           0       -1.788911   -0.117738   -0.015741
      3          6           0        0.556779   -0.459450    0.022516
      4          6           0        1.761489    0.152238   -0.015596
      5          1           0        0.437609   -1.523847   -0.008298
      6          1           0        1.827507    1.222928    0.025905
      7          1           0        2.728490   -0.430555   -0.037805
      8          1           0       -0.516333    1.450546   -0.031759
 ---------------------------------------------------------------------

 SCF Done:  E(RB2PLYPD3) =  -191.614469402     A.U. after   13 cycles
 E2(B2PLYPD3) =    -0.2474270388D+00 E(B2PLYPD3) =    -0.19186189644117D+03

 The electronic state is 1-A.
 Alpha  occ. eigenvalues --  -19.72832 -10.71628 -10.66159 -10.64617  -1.20031
 Alpha  occ. eigenvalues --   -0.92485  -0.74970  -0.66992  -0.56439  -0.55977
 Alpha  occ. eigenvalues --   -0.50394  -0.47152  -0.47003  -0.34435  -0.33741
 Alpha virt. eigenvalues --   -0.01815   0.05685   0.07158   0.08098   0.09729
 Alpha virt. eigenvalues --    0.12449   0.13893   0.15368   0.17584   0.19767
 Alpha virt. eigenvalues --    0.20036   0.21240   0.25161   0.26486   0.28791

 Mulliken charges:
               1
     1  C    0.156112
     2  O   -0.343130
     3  C   -0.041304
     4  C   -0.134049
     5  H    0.108391
     6  H    0.089206
     7  H    0.100150
     8  H    0.064625
 Sum of Mulliken charges =   0.00000

 Dipole moment (field-independent basis, Debye):
    X=              3.4410    Y=              0.7242    Z=              0.0312  Tot=              3.5165
 Quadrupole moment (field-independent basis, Debye-Ang):
   XX=            -27.3797   YY=            -21.7879   ZZ=            -25.3160
   XY=             -0.8816   XZ=             -0.1286   YZ=              0.0633

 Normal termination of Gaussian 09 at Wed Aug 26 16:16:58 2020.
