 Gaussian 09, Revision D.01,
 Gaussian 09:  ES64L-G09RevD.01 24-Apr-2013

 --------------------
 #p B2PLYPD3/Def2QZVP
 --------------------

 --------
 acrolein
 --------
 Symbolic Z-matrix:
 Charge =  0 Multiplicity = 1

                         Standard orientation:
 ---------------------------------------------------------------------
 Center     Atomic      Atomic             Coordinates (Angstroms)
 Number     Number       Type             X           Y           Z
 ---------------------------------------------------------------------
      1          6           0       -0.689507    0.349957    0.023353
      2          8           0       -1.781397   -0.131993   -0.024070
      3          6           0        0.546465   -0.429323    0.047756
      4          6           0        1.768077    0.144440   -0.033026
      5          1           0        0.500793   -1.485995   -0.041874
      6          1           0        1.793567    1.127430   -0.009958
      7          1           0        2.708119   -0.411964   -0.001818
      8          1           0       -0.501519    1.436032    0.017714
 ---------------------------------------------------------------------

 SCF Done:  E(RB2PLYPD3) =  -191.606547896     A.U. after   12 cycles
 E2(B2PLYPD3) =    -0.2463772027D+00 E(B2PLYPD3) =    -0.19185292509908D+03

 The electronic state is 1-A.
 Alpha  occ. eigenvalues --  -19.72929 -10.71456 -10.64647 -10.64012  -1.20625
 Alpha  occ. eigenvalues --   -0.93025  -0.76083  -0.67767  -0.57401  -0.56442
 Alpha  occ. eigenvalues --   -0.50924  -0.47577  -0.47224  -0.34441  -0.33882
 Alpha virt. eigenvalues --   -0.01934   0.05889   0.07359   0.08369   0.09838
 Alpha virt. eigenvalues --    0.12753   0.13985   0.15339   0.17821   0.19749
 Alpha virt. eigenvalues --    0.20269   0.21700   0.25268   0.26396   0.28841

 Mulliken charges:
               1
     1  C    0.144624
     2  O   -0.336286
     3  C   -0.029208
     4  C   -0.135809
     5  H    0.101783
     6  H    0.083135
     7  H    0.102683
     8  H    0.069078
 Sum of Mulliken charges =   0.00000

 Dipole moment (field-independent basis, Debye):
    X=              3.4088    Y=              0.7917    Z=              0.0330  Tot=              3.4996
 Quadrupole moment (field-independent basis, Debye-Ang):
   XX=            -27.0348   YY=            -21.9758   ZZ=            -25.0944
   XY=             -1.1030   XZ=             -0.1713   YZ=              0.0847

 Normal termination of Gaussian 09 at Wed Aug 26 10:23:24 2020.
