 Gaussian 09, Revision D.01,
 Gaussian 09:  ES64L-G09RevD.01 24-Apr-2013

 --------------------
 #p B2PLYPD3/Def2QZVP
 --------------------

 --------
 acrolein
 --------
 Symbolic Z-matrix:
 Charge =  0 Multiplicity = 1

                         Standard orientation:
 ---------------------------------------------------------------------
 Center     Atomic      Atomic             Coordinates (Angstroms)
 Number     Number       Type             X           Y           Z
 ---------------------------------------------------------------------
      1          6           0        0.678815    0.330344   -0.041671
      2          8           0        1.792996   -0.094615    0.040830
      3          6           0       -0.553416   -0.475927   -0.045378
      4          6           0       -1.772763    0.149184    0.032687
      5          1           0       -0.397470   -1.537451   -0.065796
      6          1           0       -1.863091    1.299251   -0.065308
      7          1           0       -2.706378   -0.415124    0.134750
      8          1           0        0.507152    1.388639   -0.004109
 ---------------------------------------------------------------------

 SCF Done:  E(RB2PLYPD3) =  -191.608909170     A.U. after   13 cycles
 E2(B2PLYPD3) =    -0.2475939163D+00 E(B2PLYPD3) =    -0.19185650308582D+03

 The electronic state is 1-A.
 Alpha  occ. eigenvalues --  -19.72621 -10.70870 -10.67143 -10.64987  -1.20327
 Alpha  occ. eigenvalues --   -0.91963  -0.75155  -0.67189  -0.56304  -0.55722
 Alpha  occ. eigenvalues --   -0.50662  -0.47301  -0.46716  -0.34079  -0.33661
 Alpha virt. eigenvalues --   -0.02026   0.05523   0.07287   0.08152   0.09628
 Alpha virt. eigenvalues --    0.12354   0.13921   0.15374   0.17715   0.19352
 Alpha virt. eigenvalues --    0.20025   0.21272   0.24761   0.26803   0.28741

 Mulliken charges:
               1
     1  C    0.163654
     2  O   -0.344116
     3  C   -0.046595
     4  C   -0.134810
     5  H    0.106726
     6  H    0.086132
     7  H    0.104928
     8  H    0.064081
 Sum of Mulliken charges =   0.00000

 Dipole moment (field-independent basis, Debye):
    X=             -3.4766    Y=              0.6659    Z=             -0.1314  Tot=              3.5423
 Quadrupole moment (field-independent basis, Debye-Ang):
   XX=            -27.3728   YY=            -21.7614   ZZ=            -25.3562
   XY=              0.6763   XZ=             -0.4097   YZ=             -0.0890

 Normal termination of Gaussian 09 at Wed Aug 26 09:01:16 2020.
