 Gaussian 09, Revision D.01,
 Gaussian 09:  ES64L-G09RevD.01 24-Apr-2013

 --------------------
 #p B2PLYPD3/Def2QZVP
 --------------------

 --------
 acrolein
 --------
 Symbolic Z-matrix:
 Charge =  0 Multiplicity = 1

                         Standard orientation:
 ---------------------------------------------------------------------
 Center     Atomic      Atomic             Coordinates (Angstroms)
 Number     Number       Type             X           Y           Z
 ---------------------------------------------------------------------
      1          6           0       -0.679639    0.366027    0.052916
      2          8           0       -1.754387   -0.144363   -0.072947
      3          6           0        0.516918   -0.421264    0.038853
      4          6           0        1.778606    0.112901   -0.081636
      5          1           0        0.371143   -1.445879    0.246003
      6          1           0        1.850469    1.168034   -0.111824
      7          1           0        2.634842   -0.474415    0.082199
      8          1           0       -0.516671    1.561173    0.306402
 ---------------------------------------------------------------------

 SCF Done:  E(RB2PLYPD3) =  -191.599756320     A.U. after   13 cycles
 E2(B2PLYPD3) =    -0.2484159032D+00 E(B2PLYPD3) =    -0.19184817222360D+03

 The electronic state is 1-A.
 Alpha  occ. eigenvalues --  -19.73199 -10.72346 -10.65448 -10.64342  -1.20867
 Alpha  occ. eigenvalues --   -0.92479  -0.76253  -0.65796  -0.56923  -0.55997
 Alpha  occ. eigenvalues --   -0.51077  -0.48495  -0.46223  -0.33955  -0.33758
 Alpha virt. eigenvalues --   -0.02465   0.05885   0.06538   0.08503   0.09902
 Alpha virt. eigenvalues --    0.12479   0.13686   0.15226   0.17441   0.19185
 Alpha virt. eigenvalues --    0.20086   0.22023   0.24636   0.26752   0.28768

 Mulliken charges:
               1
     1  C    0.156643
     2  O   -0.330384
     3  C   -0.035750
     4  C   -0.132974
     5  H    0.107056
     6  H    0.084683
     7  H    0.105036
     8  H    0.045691
 Sum of Mulliken charges =   0.00000

 Dipole moment (field-independent basis, Debye):
    X=              3.3033    Y=              0.6620    Z=              0.4843  Tot=              3.4036
 Quadrupole moment (field-independent basis, Debye-Ang):
   XX=            -27.0790   YY=            -22.1216   ZZ=            -25.2308
   XY=             -0.9349   XZ=             -0.1598   YZ=             -0.4080

 Normal termination of Gaussian 09 at Wed Aug 26 11:28:00 2020.
