 Gaussian 09, Revision D.01,
 Gaussian 09:  ES64L-G09RevD.01 24-Apr-2013

 --------------------
 #p B2PLYPD3/Def2QZVP
 --------------------

 --------
 acrolein
 --------
 Symbolic Z-matrix:
 Charge =  0 Multiplicity = 1

                         Standard orientation:
 ---------------------------------------------------------------------
 Center     Atomic      Atomic             Coordinates (Angstroms)
 Number     Number       Type             X           Y           Z
 ---------------------------------------------------------------------
      1          6           0       -0.687019    0.343238    0.063195
      2          8           0       -1.770795   -0.115290   -0.054644
      3          6           0        0.539871   -0.469399    0.051146
      4          6           0        1.754209    0.153222   -0.072140
      5          1           0        0.416140   -1.471472    0.003160
      6          1           0        1.806142    1.168920   -0.132998
      7          1           0        2.810421   -0.382326    0.144171
      8          1           0       -0.508701    1.444826    0.169611
 ---------------------------------------------------------------------

 SCF Done:  E(RB2PLYPD3) =  -191.595691840     A.U. after   13 cycles
 E2(B2PLYPD3) =    -0.2470229968D+00 E(B2PLYPD3) =    -0.19184271483654D+03

 The electronic state is 1-A.
 Alpha  occ. eigenvalues --  -19.72852 -10.71338 -10.66397 -10.64130  -1.21370
 Alpha  occ. eigenvalues --   -0.92270  -0.74913  -0.67998  -0.57021  -0.55639
 Alpha  occ. eigenvalues --   -0.50724  -0.47898  -0.47066  -0.34270  -0.33384
 Alpha virt. eigenvalues --   -0.02098   0.05596   0.07432   0.08169   0.09772
 Alpha virt. eigenvalues --    0.12322   0.13900   0.15537   0.17843   0.19129
 Alpha virt. eigenvalues --    0.19995   0.21438   0.25061   0.26277   0.28996

 Mulliken charges:
               1
     1  C    0.149693
     2  O   -0.332007
     3  C   -0.044477
     4  C   -0.129513
     5  H    0.116346
     6  H    0.086978
     7  H    0.089154
     8  H    0.063826
 Sum of Mulliken charges =   0.00000

 Dipole moment (field-independent basis, Debye):
    X=              3.2495    Y=              0.7403    Z=              0.2544  Tot=              3.3425
 Quadrupole moment (field-independent basis, Debye-Ang):
   XX=            -27.1873   YY=            -21.9757   ZZ=            -25.2219
   XY=             -0.6734   XZ=             -0.0986   YZ=             -0.1703

 Normal termination of Gaussian 09 at Wed Aug 26 13:27:40 2020.
