 Gaussian 09, Revision D.01,
 Gaussian 09:  ES64L-G09RevD.01 24-Apr-2013

 --------------------
 #p B2PLYPD3/Def2QZVP
 --------------------

 --------
 acrolein
 --------
 Symbolic Z-matrix:
 Charge =  0 Multiplicity = 1

                         Standard orientation:
 ---------------------------------------------------------------------
 Center     Atomic      Atomic             Coordinates (Angstroms)
 Number     Number       Type             X           Y           Z
 ---------------------------------------------------------------------
      1          6           0        0.676109    0.327558   -0.034386
      2          8           0        1.794807   -0.101030    0.029872
      3          6           0       -0.578622   -0.458744   -0.033644
      4          6           0       -1.748273    0.156916    0.005825
      5          1           0       -0.443550   -1.525841   -0.004810
      6          1           0       -1.852220    1.207998    0.024627
      7          1           0       -2.661403   -0.393925    0.113514
      8          1           0        0.503430    1.365621    0.000925
 ---------------------------------------------------------------------

 SCF Done:  E(RB2PLYPD3) =  -191.614606133     A.U. after   12 cycles
 E2(B2PLYPD3) =    -0.2457921079D+00 E(B2PLYPD3) =    -0.19186039824123D+03

 The electronic state is 1-A.
 Alpha  occ. eigenvalues --  -19.72745 -10.70809 -10.64929 -10.64219  -1.20077
 Alpha  occ. eigenvalues --   -0.93293  -0.75831  -0.67815  -0.57104  -0.56524
 Alpha  occ. eigenvalues --   -0.51093  -0.47189  -0.47004  -0.34953  -0.33671
 Alpha virt. eigenvalues --   -0.01459   0.05832   0.07428   0.08332   0.09710
 Alpha virt. eigenvalues --    0.12856   0.14163   0.15347   0.17631   0.19839
 Alpha virt. eigenvalues --    0.19957   0.21812   0.25349   0.26837   0.28388

 Mulliken charges:
               1
     1  C    0.156724
     2  O   -0.346435
     3  C   -0.036374
     4  C   -0.132468
     5  H    0.102835
     6  H    0.087391
     7  H    0.098515
     8  H    0.069812
 Sum of Mulliken charges =   0.00000

 Dipole moment (field-independent basis, Debye):
    X=             -3.4628    Y=              0.7283    Z=              0.0081  Tot=              3.5386
 Quadrupole moment (field-independent basis, Debye-Ang):
   XX=            -27.4161   YY=            -21.7867   ZZ=            -25.0330
   XY=              0.6549   XZ=             -0.4624   YZ=             -0.0343

 Normal termination of Gaussian 09 at Wed Aug 26 09:46:02 2020.
