 Gaussian 09, Revision D.01,
 Gaussian 09:  ES64L-G09RevD.01 24-Apr-2013

 --------------------
 #p B2PLYPD3/Def2QZVP
 --------------------

 --------
 acrolein
 --------
 Symbolic Z-matrix:
 Charge =  0 Multiplicity = 1

                         Standard orientation:
 ---------------------------------------------------------------------
 Center     Atomic      Atomic             Coordinates (Angstroms)
 Number     Number       Type             X           Y           Z
 ---------------------------------------------------------------------
      1          6           0       -0.685418    0.372685    0.025597
      2          8           0       -1.758955   -0.142203   -0.027187
      3          6           0        0.534277   -0.436979    0.047273
      4          6           0        1.760982    0.132356   -0.030860
      5          1           0        0.434554   -1.508382   -0.002126
      6          1           0        1.813696    1.198591    0.033015
      7          1           0        2.738524   -0.418940   -0.060169
      8          1           0       -0.574176    1.457980   -0.005283
 ---------------------------------------------------------------------

 SCF Done:  E(RB2PLYPD3) =  -191.613276963     A.U. after   13 cycles
 E2(B2PLYPD3) =    -0.2466374069D+00 E(B2PLYPD3) =    -0.19185991436985D+03

 The electronic state is 1-A.
 Alpha  occ. eigenvalues --  -19.72602 -10.71182 -10.65771 -10.64329  -1.20740
 Alpha  occ. eigenvalues --   -0.92221  -0.74998  -0.67368  -0.56966  -0.56002
 Alpha  occ. eigenvalues --   -0.50554  -0.47424  -0.46535  -0.34176  -0.33860
 Alpha virt. eigenvalues --   -0.01617   0.05751   0.07288   0.08159   0.09780
 Alpha virt. eigenvalues --    0.12326   0.14165   0.15419   0.17700   0.19784
 Alpha virt. eigenvalues --    0.20010   0.21269   0.25150   0.26407   0.29134

 Mulliken charges:
               1
     1  C    0.151952
     2  O   -0.337831
     3  C   -0.049377
     4  C   -0.133198
     5  H    0.110152
     6  H    0.079582
     7  H    0.100340
     8  H    0.078381
 Sum of Mulliken charges =   0.00000

 Dipole moment (field-independent basis, Debye):
    X=              3.2913    Y=              0.8632    Z=              0.0557  Tot=              3.4030
 Quadrupole moment (field-independent basis, Debye-Ang):
   XX=            -27.1044   YY=            -21.7617   ZZ=            -25.2580
   XY=             -1.2086   XZ=             -0.2399   YZ=              0.1029

 Normal termination of Gaussian 09 at Wed Aug 26 09:34:54 2020.
