 Gaussian 09, Revision D.01,
 Gaussian 09:  ES64L-G09RevD.01 24-Apr-2013

 --------------------
 #p B2PLYPD3/Def2QZVP
 --------------------

 --------
 acrolein
 --------
 Symbolic Z-matrix:
 Charge =  0 Multiplicity = 1

                         Standard orientation:
 ---------------------------------------------------------------------
 Center     Atomic      Atomic             Coordinates (Angstroms)
 Number     Number       Type             X           Y           Z
 ---------------------------------------------------------------------
      1          6           0        0.664184    0.347125    0.073318
      2          8           0        1.803414   -0.122921   -0.071871
      3          6           0       -0.562729   -0.426347    0.066316
      4          6           0       -1.750620    0.111662   -0.073129
      5          1           0       -0.467065   -1.513314    0.044915
      6          1           0       -1.907562    1.268308   -0.171358
      7          1           0       -2.698189   -0.394385    0.083006
      8          1           0        0.540495    1.428117    0.219378
 ---------------------------------------------------------------------

 SCF Done:  E(RB2PLYPD3) =  -191.604898009     A.U. after   13 cycles
 E2(B2PLYPD3) =    -0.2489183081D+00 E(B2PLYPD3) =    -0.19185381631679D+03

 The electronic state is 1-A.
 Alpha  occ. eigenvalues --  -19.72975 -10.71916 -10.66318 -10.64474  -1.17839
 Alpha  occ. eigenvalues --   -0.93627  -0.75934  -0.66648  -0.56979  -0.55813
 Alpha  occ. eigenvalues --   -0.50619  -0.45899  -0.45219  -0.35081  -0.34047
 Alpha virt. eigenvalues --   -0.02491   0.05493   0.07014   0.08133   0.09581
 Alpha virt. eigenvalues --    0.12200   0.13923   0.15583   0.17374   0.18513
 Alpha virt. eigenvalues --    0.19942   0.21777   0.25335   0.26349   0.29070

 Mulliken charges:
               1
     1  C    0.154680
     2  O   -0.360701
     3  C   -0.040423
     4  C   -0.105409
     5  H    0.106029
     6  H    0.063292
     7  H    0.102371
     8  H    0.080161
 Sum of Mulliken charges =   0.00000

 Dipole moment (field-independent basis, Debye):
    X=             -3.6594    Y=              0.7716    Z=              0.2984  Tot=              3.7517
 Quadrupole moment (field-independent basis, Debye-Ang):
   XX=            -27.4278   YY=            -21.9252   ZZ=            -25.2268
   XY=              0.9555   XZ=              0.3811   YZ=             -0.1466

 Normal termination of Gaussian 09 at Wed Aug 26 12:05:12 2020.
