 Gaussian 09, Revision D.01,
 Gaussian 09:  ES64L-G09RevD.01 24-Apr-2013

 --------------------
 #p B2PLYPD3/Def2QZVP
 --------------------

 --------
 acrolein
 --------
 Symbolic Z-matrix:
 Charge =  0 Multiplicity = 1

                         Standard orientation:
 ---------------------------------------------------------------------
 Center     Atomic      Atomic             Coordinates (Angstroms)
 Number     Number       Type             X           Y           Z
 ---------------------------------------------------------------------
      1          6           0       -0.713166    0.390774    0.095070
      2          8           0       -1.747829   -0.170009   -0.075833
      3          6           0        0.521964   -0.448050    0.076870
      4          6           0        1.753273    0.134479   -0.072608
      5          1           0        0.517616   -1.435993    0.057638
      6          1           0        1.798507    1.219048   -0.016904
      7          1           0        2.811489   -0.477456   -0.043699
      8          1           0       -0.517408    1.591255    0.013639
 ---------------------------------------------------------------------

 SCF Done:  E(RB2PLYPD3) =  -191.581227360     A.U. after   13 cycles
 E2(B2PLYPD3) =    -0.2490603355D+00 E(B2PLYPD3) =    -0.19183028769518D+03

 The electronic state is 1-A.
 Alpha  occ. eigenvalues --  -19.73473 -10.73092 -10.66627 -10.63796  -1.21559
 Alpha  occ. eigenvalues --   -0.91583  -0.73251  -0.67212  -0.56314  -0.55457
 Alpha  occ. eigenvalues --   -0.49684  -0.47857  -0.46397  -0.34299  -0.33354
 Alpha virt. eigenvalues --   -0.01628   0.05352   0.06928   0.07354   0.09785
 Alpha virt. eigenvalues --    0.11913   0.13585   0.15447   0.18254   0.19401
 Alpha virt. eigenvalues --    0.19969   0.20547   0.24708   0.26020   0.28739

 Mulliken charges:
               1
     1  C    0.167583
     2  O   -0.318706
     3  C   -0.058635
     4  C   -0.132095
     5  H    0.117935
     6  H    0.076117
     7  H    0.088798
     8  H    0.059003
 Sum of Mulliken charges =   0.00000

 Dipole moment (field-independent basis, Debye):
    X=              3.0100    Y=              0.8133    Z=              0.2744  Tot=              3.1300
 Quadrupole moment (field-independent basis, Debye-Ang):
   XX=            -27.1391   YY=            -21.8850   ZZ=            -25.5313
   XY=             -1.3939   XZ=             -0.4282   YZ=             -0.0413

 Normal termination of Gaussian 09 at Wed Aug 26 13:02:35 2020.
