 Gaussian 09, Revision D.01,
 Gaussian 09:  ES64L-G09RevD.01 24-Apr-2013

 --------------------
 #p B2PLYPD3/Def2QZVP
 --------------------

 --------
 acrolein
 --------
 Symbolic Z-matrix:
 Charge =  0 Multiplicity = 1

                         Standard orientation:
 ---------------------------------------------------------------------
 Center     Atomic      Atomic             Coordinates (Angstroms)
 Number     Number       Type             X           Y           Z
 ---------------------------------------------------------------------
      1          6           0        0.684185    0.353266   -0.061758
      2          8           0        1.768786   -0.135580    0.039098
      3          6           0       -0.534986   -0.419668    0.021216
      4          6           0       -1.749215    0.096199   -0.006067
      5          1           0       -0.408119   -1.445168   -0.077478
      6          1           0       -1.899833    1.215964    0.235401
      7          1           0       -2.690403   -0.427729   -0.065614
      8          1           0        0.448172    1.562786   -0.125443
 ---------------------------------------------------------------------

 SCF Done:  E(RB2PLYPD3) =  -191.598793966     A.U. after   13 cycles
 E2(B2PLYPD3) =    -0.2477872081D+00 E(B2PLYPD3) =    -0.19184658117459D+03

 The electronic state is 1-A.
 Alpha  occ. eigenvalues --  -19.73460 -10.72581 -10.65996 -10.63595  -1.21081
 Alpha  occ. eigenvalues --   -0.93322  -0.75475  -0.65771  -0.57494  -0.55473
 Alpha  occ. eigenvalues --   -0.51144  -0.47804  -0.45585  -0.34917  -0.33784
 Alpha virt. eigenvalues --   -0.01967   0.05630   0.07151   0.08188   0.09825
 Alpha virt. eigenvalues --    0.12258   0.13655   0.15066   0.17543   0.19511
 Alpha virt. eigenvalues --    0.20029   0.21588   0.24523   0.26656   0.28650

 Mulliken charges:
               1
     1  C    0.170550
     2  O   -0.328060
     3  C   -0.036643
     4  C   -0.117870
     5  H    0.104435
     6  H    0.069309
     7  H    0.101194
     8  H    0.037084
 Sum of Mulliken charges =   0.00000

 Dipole moment (field-independent basis, Debye):
    X=             -3.3719    Y=              0.5557    Z=             -0.1254  Tot=              3.4197
 Quadrupole moment (field-independent basis, Debye-Ang):
   XX=            -26.7774   YY=            -22.4425   ZZ=            -25.1504
   XY=              0.8453   XZ=             -0.3043   YZ=              0.4064

 Normal termination of Gaussian 09 at Wed Aug 26 12:54:48 2020.
