 Gaussian 09, Revision D.01,
 Gaussian 09:  ES64L-G09RevD.01 24-Apr-2013

 --------------------
 #p B2PLYPD3/Def2QZVP
 --------------------

 --------
 acrolein
 --------
 Symbolic Z-matrix:
 Charge =  0 Multiplicity = 1

                         Standard orientation:
 ---------------------------------------------------------------------
 Center     Atomic      Atomic             Coordinates (Angstroms)
 Number     Number       Type             X           Y           Z
 ---------------------------------------------------------------------
      1          6           0        0.676079    0.369607    0.097296
      2          8           0        1.791739   -0.137558   -0.063162
      3          6           0       -0.571392   -0.456472    0.015479
      4          6           0       -1.734571    0.166800   -0.054652
      5          1           0       -0.488908   -1.480341    0.108319
      6          1           0       -1.779191    1.147283   -0.105604
      7          1           0       -2.800663   -0.443608    0.066089
      8          1           0        0.514160    1.397516    0.087753
 ---------------------------------------------------------------------

 SCF Done:  E(RB2PLYPD3) =  -191.587228796     A.U. after   13 cycles
 E2(B2PLYPD3) =    -0.2481745045D+00 E(B2PLYPD3) =    -0.19183540330054D+03

 The electronic state is 1-A.
 Alpha  occ. eigenvalues --  -19.73059 -10.71722 -10.65391 -10.63874  -1.18194
 Alpha  occ. eigenvalues --   -0.93342  -0.75158  -0.69273  -0.57529  -0.55037
 Alpha  occ. eigenvalues --   -0.50716  -0.46497  -0.45911  -0.34844  -0.33865
 Alpha virt. eigenvalues --   -0.01875   0.05441   0.07024   0.07453   0.09738
 Alpha virt. eigenvalues --    0.12382   0.14030   0.15219   0.17997   0.19575
 Alpha virt. eigenvalues --    0.20264   0.21168   0.25174   0.26382   0.29042

 Mulliken charges:
               1
     1  C    0.148443
     2  O   -0.357872
     3  C   -0.035770
     4  C   -0.138279
     5  H    0.113284
     6  H    0.091929
     7  H    0.084559
     8  H    0.093707
 Sum of Mulliken charges =   0.00000

 Dipole moment (field-independent basis, Debye):
    X=             -3.3718    Y=              0.9603    Z=              0.3604  Tot=              3.5244
 Quadrupole moment (field-independent basis, Debye-Ang):
   XX=            -27.9635   YY=            -21.5435   ZZ=            -25.1637
   XY=              1.0633   XZ=              0.2028   YZ=             -0.2596

 Normal termination of Gaussian 09 at Wed Aug 26 14:27:54 2020.
