 Gaussian 09, Revision D.01,
 Gaussian 09:  ES64L-G09RevD.01 24-Apr-2013

 --------------------
 #p B2PLYPD3/Def2QZVP
 --------------------

 --------
 acrolein
 --------
 Symbolic Z-matrix:
 Charge =  0 Multiplicity = 1

                         Standard orientation:
 ---------------------------------------------------------------------
 Center     Atomic      Atomic             Coordinates (Angstroms)
 Number     Number       Type             X           Y           Z
 ---------------------------------------------------------------------
      1          6           0       -0.671186    0.316283    0.012989
      2          8           0       -1.807856   -0.106704    0.016335
      3          6           0        0.592150   -0.456820   -0.058499
      4          6           0        1.745584    0.175577    0.002007
      5          1           0        0.514510   -1.481099   -0.007612
      6          1           0        1.835299    1.262233   -0.043425
      7          1           0        2.671792   -0.482619    0.204411
      8          1           0       -0.558033    1.344878   -0.023029
 ---------------------------------------------------------------------

 SCF Done:  E(RB2PLYPD3) =  -191.604557601     A.U. after   13 cycles
 E2(B2PLYPD3) =    -0.2466949947D+00 E(B2PLYPD3) =    -0.19185125259585D+03

 The electronic state is 1-A.
 Alpha  occ. eigenvalues --  -19.72597 -10.70781 -10.66119 -10.63807  -1.19203
 Alpha  occ. eigenvalues --   -0.93562  -0.75099  -0.68321  -0.57245  -0.55688
 Alpha  occ. eigenvalues --   -0.50569  -0.47183  -0.46424  -0.35048  -0.33566
 Alpha virt. eigenvalues --   -0.01617   0.05556   0.07231   0.08115   0.09660
 Alpha virt. eigenvalues --    0.12576   0.13763   0.15287   0.18094   0.19284
 Alpha virt. eigenvalues --    0.19892   0.21602   0.24968   0.26642   0.28519

 Mulliken charges:
               1
     1  C    0.152145
     2  O   -0.352511
     3  C   -0.039212
     4  C   -0.128338
     5  H    0.106877
     6  H    0.095269
     7  H    0.092763
     8  H    0.073006
 Sum of Mulliken charges =   0.00000

 Dipole moment (field-independent basis, Debye):
    X=              3.5222    Y=              0.7345    Z=              0.1010  Tot=              3.5994
 Quadrupole moment (field-independent basis, Debye-Ang):
   XX=            -27.9653   YY=            -21.6016   ZZ=            -25.0743
   XY=             -0.9485   XZ=              0.5162   YZ=             -0.2202

 Normal termination of Gaussian 09 at Wed Aug 26 11:58:19 2020.
