 Gaussian 09, Revision D.01,
 Gaussian 09:  ES64L-G09RevD.01 24-Apr-2013

 --------------------
 #p B2PLYPD3/Def2QZVP
 --------------------

 --------
 acrolein
 --------
 Symbolic Z-matrix:
 Charge =  0 Multiplicity = 1

                         Standard orientation:
 ---------------------------------------------------------------------
 Center     Atomic      Atomic             Coordinates (Angstroms)
 Number     Number       Type             X           Y           Z
 ---------------------------------------------------------------------
      1          6           0       -0.673096    0.350796   -0.001885
      2          8           0       -1.793871   -0.116887    0.008564
      3          6           0        0.584862   -0.477115   -0.003252
      4          6           0        1.755066    0.154790   -0.009925
      5          1           0        0.499118   -1.542480   -0.058841
      6          1           0        1.849268    1.292061   -0.011885
      7          1           0        2.566168   -0.403441    0.106952
      8          1           0       -0.564573    1.418131   -0.014365
 ---------------------------------------------------------------------

 SCF Done:  E(RB2PLYPD3) =  -191.605487024     A.U. after   13 cycles
 E2(B2PLYPD3) =    -0.2469056918D+00 E(B2PLYPD3) =    -0.19185239271552D+03

 The electronic state is 1-A.
 Alpha  occ. eigenvalues --  -19.72661 -10.71439 -10.64772 -10.64502  -1.19164
 Alpha  occ. eigenvalues --   -0.92932  -0.75374  -0.67345  -0.57165  -0.56062
 Alpha  occ. eigenvalues --   -0.50496  -0.47532  -0.46276  -0.34708  -0.33623
 Alpha virt. eigenvalues --   -0.01386   0.05795   0.07253   0.07767   0.09646
 Alpha virt. eigenvalues --    0.12525   0.14112   0.15369   0.17559   0.19417
 Alpha virt. eigenvalues --    0.19932   0.22084   0.25239   0.26420   0.28666

 Mulliken charges:
               1
     1  C    0.154644
     2  O   -0.349024
     3  C   -0.055989
     4  C   -0.127339
     5  H    0.107098
     6  H    0.083917
     7  H    0.103174
     8  H    0.083519
 Sum of Mulliken charges =   0.00000

 Dipole moment (field-independent basis, Debye):
    X=              3.4294    Y=              0.7731    Z=              0.0039  Tot=              3.5155
 Quadrupole moment (field-independent basis, Debye-Ang):
   XX=            -27.8587   YY=            -21.3603   ZZ=            -25.1814
   XY=             -1.0239   XZ=              0.2550   YZ=              0.0069

 Normal termination of Gaussian 09 at Wed Aug 26 09:02:05 2020.
