 Gaussian 09, Revision D.01,
 Gaussian 09:  ES64L-G09RevD.01 24-Apr-2013

 --------------------
 #p B2PLYPD3/Def2QZVP
 --------------------

 --------
 acrolein
 --------
 Symbolic Z-matrix:
 Charge =  0 Multiplicity = 1

                         Standard orientation:
 ---------------------------------------------------------------------
 Center     Atomic      Atomic             Coordinates (Angstroms)
 Number     Number       Type             X           Y           Z
 ---------------------------------------------------------------------
      1          6           0       -0.680371    0.360583    0.006292
      2          8           0       -1.779501   -0.132755   -0.006351
      3          6           0        0.565336   -0.449397    0.007712
      4          6           0        1.755259    0.139329   -0.009751
      5          1           0        0.445718   -1.509495    0.025678
      6          1           0        1.807360    1.231303    0.042168
      7          1           0        2.688830   -0.415915   -0.030635
      8          1           0       -0.547245    1.453054   -0.011916
 ---------------------------------------------------------------------

 SCF Done:  E(RB2PLYPD3) =  -191.617006168     A.U. after   12 cycles
 E2(B2PLYPD3) =    -0.2466453263D+00 E(B2PLYPD3) =    -0.19186365149471D+03

 The electronic state is 1-A.
 Alpha  occ. eigenvalues --  -19.72837 -10.71593 -10.65322 -10.64134  -1.19933
 Alpha  occ. eigenvalues --   -0.92795  -0.74935  -0.67197  -0.56525  -0.56391
 Alpha  occ. eigenvalues --   -0.50797  -0.47012  -0.46699  -0.34679  -0.33840
 Alpha virt. eigenvalues --   -0.01401   0.05776   0.07271   0.08085   0.09769
 Alpha virt. eigenvalues --    0.12459   0.14016   0.15408   0.17585   0.19692
 Alpha virt. eigenvalues --    0.19984   0.21490   0.25545   0.26407   0.28957

 Mulliken charges:
               1
     1  C    0.155577
     2  O   -0.344101
     3  C   -0.046570
     4  C   -0.131123
     5  H    0.107746
     6  H    0.080770
     7  H    0.102442
     8  H    0.075256
 Sum of Mulliken charges =   0.00000

 Dipole moment (field-independent basis, Debye):
    X=              3.3553    Y=              0.8011    Z=              0.0487  Tot=              3.4499
 Quadrupole moment (field-independent basis, Debye-Ang):
   XX=            -27.4179   YY=            -21.7096   ZZ=            -25.2068
   XY=             -1.1015   XZ=             -0.0253   YZ=              0.0327

 Normal termination of Gaussian 09 at Wed Aug 26 20:12:10 2020.
