 Gaussian 09, Revision D.01,
 Gaussian 09:  ES64L-G09RevD.01 24-Apr-2013

 --------------------
 #p B2PLYPD3/Def2QZVP
 --------------------

 --------
 acrolein
 --------
 Symbolic Z-matrix:
 Charge =  0 Multiplicity = 1

                         Standard orientation:
 ---------------------------------------------------------------------
 Center     Atomic      Atomic             Coordinates (Angstroms)
 Number     Number       Type             X           Y           Z
 ---------------------------------------------------------------------
      1          6           0        0.680340    0.346017    0.036073
      2          8           0        1.814375   -0.106101   -0.045997
      3          6           0       -0.574027   -0.477305    0.010914
      4          6           0       -1.746924    0.121468   -0.062126
      5          1           0       -0.477798   -1.498237    0.185636
      6          1           0       -1.953793    1.393520   -0.059425
      7          1           0       -2.653315   -0.438528    0.084178
      8          1           0        0.413575    1.450972    0.248420
 ---------------------------------------------------------------------

 SCF Done:  E(RB2PLYPD3) =  -191.587206214     A.U. after   13 cycles
 E2(B2PLYPD3) =    -0.2495683826D+00 E(B2PLYPD3) =    -0.19183677459683D+03

 The electronic state is 1-A.
 Alpha  occ. eigenvalues --  -19.73508 -10.72769 -10.66985 -10.64325  -1.19064
 Alpha  occ. eigenvalues --   -0.92981  -0.74567  -0.66097  -0.56774  -0.54475
 Alpha  occ. eigenvalues --   -0.51276  -0.46238  -0.44885  -0.35142  -0.33860
 Alpha virt. eigenvalues --   -0.01761   0.04960   0.06669   0.07852   0.09382
 Alpha virt. eigenvalues --    0.11929   0.13753   0.15170   0.17714   0.18322
 Alpha virt. eigenvalues --    0.19913   0.21482   0.24559   0.26924   0.28276

 Mulliken charges:
               1
     1  C    0.167775
     2  O   -0.343539
     3  C   -0.051737
     4  C   -0.117281
     5  H    0.109932
     6  H    0.068031
     7  H    0.098338
     8  H    0.068480
 Sum of Mulliken charges =   0.00000

 Dipole moment (field-independent basis, Debye):
    X=             -3.4636    Y=              0.6024    Z=              0.4312  Tot=              3.5419
 Quadrupole moment (field-independent basis, Debye-Ang):
   XX=            -27.7771   YY=            -21.8452   ZZ=            -25.3848
   XY=              0.6514   XZ=             -0.0509   YZ=             -0.2765

 Normal termination of Gaussian 09 at Wed Aug 26 12:54:01 2020.
