 Gaussian 09, Revision D.01,
 Gaussian 09:  ES64L-G09RevD.01 24-Apr-2013

 --------------------
 #p B2PLYPD3/Def2QZVP
 --------------------

 --------
 acrolein
 --------
 Symbolic Z-matrix:
 Charge =  0 Multiplicity = 1

                         Standard orientation:
 ---------------------------------------------------------------------
 Center     Atomic      Atomic             Coordinates (Angstroms)
 Number     Number       Type             X           Y           Z
 ---------------------------------------------------------------------
      1          6           0        0.669264    0.315187   -0.069895
      2          8           0        1.815137   -0.087611    0.074004
      3          6           0       -0.557213   -0.483491   -0.095444
      4          6           0       -1.790945    0.170859    0.030424
      5          1           0       -0.396823   -1.656607   -0.015790
      6          1           0       -1.831540    1.258990    0.033845
      7          1           0       -2.723335   -0.411715    0.257456
      8          1           0        0.503962    1.494889   -0.058056
 ---------------------------------------------------------------------

 SCF Done:  E(RB2PLYPD3) =  -191.594564623     A.U. after   13 cycles
 E2(B2PLYPD3) =    -0.2514850861D+00 E(B2PLYPD3) =    -0.19184604970872D+03

 The electronic state is 1-A.
 Alpha  occ. eigenvalues --  -19.72916 -10.72558 -10.67742 -10.67009  -1.18759
 Alpha  occ. eigenvalues --   -0.91684  -0.75290  -0.64811  -0.55643  -0.55410
 Alpha  occ. eigenvalues --   -0.49478  -0.46803  -0.46324  -0.33902  -0.33545
 Alpha virt. eigenvalues --   -0.03010   0.05512   0.06290   0.07813   0.09532
 Alpha virt. eigenvalues --    0.12189   0.13686   0.15293   0.16657   0.19620
 Alpha virt. eigenvalues --    0.19949   0.21226   0.23881   0.26345   0.28750

 Mulliken charges:
               1
     1  C    0.163767
     2  O   -0.349304
     3  C   -0.037068
     4  C   -0.125375
     5  H    0.100708
     6  H    0.097851
     7  H    0.108995
     8  H    0.040426
 Sum of Mulliken charges =   0.00000

 Dipole moment (field-independent basis, Debye):
    X=             -3.7048    Y=              0.5654    Z=             -0.0037  Tot=              3.7477
 Quadrupole moment (field-independent basis, Debye-Ang):
   XX=            -27.5297   YY=            -21.8401   ZZ=            -25.6883
   XY=              0.5471   XZ=             -1.0782   YZ=             -0.1205

 Normal termination of Gaussian 09 at Wed Aug 26 11:48:02 2020.
