 Gaussian 09, Revision D.01,
 Gaussian 09:  ES64L-G09RevD.01 24-Apr-2013

 --------------------
 #p B2PLYPD3/Def2QZVP
 --------------------

 --------
 acrolein
 --------
 Symbolic Z-matrix:
 Charge =  0 Multiplicity = 1

                         Standard orientation:
 ---------------------------------------------------------------------
 Center     Atomic      Atomic             Coordinates (Angstroms)
 Number     Number       Type             X           Y           Z
 ---------------------------------------------------------------------
      1          6           0       -0.674237    0.335239   -0.050866
      2          8           0       -1.813460   -0.121810    0.051177
      3          6           0        0.590694   -0.475512   -0.062897
      4          6           0        1.744420    0.146397   -0.006237
      5          1           0        0.580408   -1.480093   -0.042692
      6          1           0        1.864907    1.329902    0.018951
      7          1           0        2.597030   -0.431126    0.316912
      8          1           0       -0.499928    1.519055    0.017413
 ---------------------------------------------------------------------

 SCF Done:  E(RB2PLYPD3) =  -191.592657193     A.U. after   13 cycles
 E2(B2PLYPD3) =    -0.2494056343D+00 E(B2PLYPD3) =    -0.19184206282731D+03

 The electronic state is 1-A.
 Alpha  occ. eigenvalues --  -19.73311 -10.73244 -10.66047 -10.64077  -1.18481
 Alpha  occ. eigenvalues --   -0.93628  -0.74271  -0.66709  -0.56645  -0.55088
 Alpha  occ. eigenvalues --   -0.50265  -0.46807  -0.45977  -0.35121  -0.33760
 Alpha virt. eigenvalues --   -0.01818   0.05470   0.06914   0.07536   0.09470
 Alpha virt. eigenvalues --    0.12198   0.13743   0.15177   0.17739   0.18944
 Alpha virt. eigenvalues --    0.19724   0.21648   0.24365   0.26793   0.28114

 Mulliken charges:
               1
     1  C    0.166578
     2  O   -0.347718
     3  C   -0.048770
     4  C   -0.103675
     5  H    0.108574
     6  H    0.073697
     7  H    0.093093
     8  H    0.058222
 Sum of Mulliken charges =   0.00000

 Dipole moment (field-independent basis, Debye):
    X=              3.5007    Y=              0.6184    Z=              0.0857  Tot=              3.5559
 Quadrupole moment (field-independent basis, Debye-Ang):
   XX=            -28.0767   YY=            -21.7049   ZZ=            -25.2418
   XY=             -1.0052   XZ=              0.9993   YZ=             -0.0973

 Normal termination of Gaussian 09 at Wed Aug 26 10:46:25 2020.
