 Gaussian 09, Revision D.01,
 Gaussian 09:  ES64L-G09RevD.01 24-Apr-2013

 --------------------
 #p B2PLYPD3/Def2QZVP
 --------------------

 --------
 acrolein
 --------
 Symbolic Z-matrix:
 Charge =  0 Multiplicity = 1

                         Standard orientation:
 ---------------------------------------------------------------------
 Center     Atomic      Atomic             Coordinates (Angstroms)
 Number     Number       Type             X           Y           Z
 ---------------------------------------------------------------------
      1          6           0        0.673989    0.357558    0.003102
      2          8           0        1.787462   -0.133481    0.016641
      3          6           0       -0.549197   -0.435102   -0.033141
      4          6           0       -1.762502    0.141273    0.003834
      5          1           0       -0.396266   -1.540531   -0.022963
      6          1           0       -1.827347    1.133076    0.024024
      7          1           0       -2.767603   -0.431359    0.090184
      8          1           0        0.517783    1.524283   -0.067146
 ---------------------------------------------------------------------

 SCF Done:  E(RB2PLYPD3) =  -191.601715991     A.U. after   12 cycles
 E2(B2PLYPD3) =    -0.2485936881D+00 E(B2PLYPD3) =    -0.19185030967872D+03

 The electronic state is 1-A.
 Alpha  occ. eigenvalues --  -19.73062 -10.72407 -10.65681 -10.65006  -1.19346
 Alpha  occ. eigenvalues --   -0.92989  -0.75597  -0.66295  -0.56791  -0.55721
 Alpha  occ. eigenvalues --   -0.50047  -0.46890  -0.46587  -0.34591  -0.33858
 Alpha virt. eigenvalues --   -0.02182   0.05617   0.06803   0.08124   0.09790
 Alpha virt. eigenvalues --    0.12270   0.13861   0.15335   0.17021   0.19728
 Alpha virt. eigenvalues --    0.20342   0.21500   0.25374   0.26079   0.28841

 Mulliken charges:
               1
     1  C    0.157822
     2  O   -0.347835
     3  C   -0.031318
     4  C   -0.130821
     5  H    0.104786
     6  H    0.092041
     7  H    0.099517
     8  H    0.055808
 Sum of Mulliken charges =   0.00000

 Dipole moment (field-independent basis, Debye):
    X=             -3.5124    Y=              0.7625    Z=              0.0270  Tot=              3.5944
 Quadrupole moment (field-independent basis, Debye-Ang):
   XX=            -27.1978   YY=            -21.9693   ZZ=            -25.3372
   XY=              0.8612   XZ=             -0.3510   YZ=             -0.0349

 Normal termination of Gaussian 09 at Wed Aug 26 09:00:56 2020.
