 Gaussian 09, Revision D.01,
 Gaussian 09:  ES64L-G09RevD.01 24-Apr-2013

 --------------------
 #p B2PLYPD3/Def2QZVP
 --------------------

 --------
 acrolein
 --------
 Symbolic Z-matrix:
 Charge =  0 Multiplicity = 1

                         Standard orientation:
 ---------------------------------------------------------------------
 Center     Atomic      Atomic             Coordinates (Angstroms)
 Number     Number       Type             X           Y           Z
 ---------------------------------------------------------------------
      1          6           0       -0.686296    0.360349    0.033308
      2          8           0       -1.780195   -0.140902   -0.039039
      3          6           0        0.539278   -0.431670    0.016804
      4          6           0        1.769106    0.120974   -0.008330
      5          1           0        0.453862   -1.470426    0.118891
      6          1           0        1.834578    1.161010   -0.083170
      7          1           0        2.721873   -0.403942   -0.084752
      8          1           0       -0.501276    1.542654    0.110652
 ---------------------------------------------------------------------

 SCF Done:  E(RB2PLYPD3) =  -191.607984968     A.U. after   12 cycles
 E2(B2PLYPD3) =    -0.2478754195D+00 E(B2PLYPD3) =    -0.19185586038774D+03

 The electronic state is 1-A.
 Alpha  occ. eigenvalues --  -19.73232 -10.72569 -10.65353 -10.64198  -1.20194
 Alpha  occ. eigenvalues --   -0.92809  -0.75625  -0.66592  -0.56720  -0.56206
 Alpha  occ. eigenvalues --   -0.50760  -0.47509  -0.46638  -0.34464  -0.33901
 Alpha virt. eigenvalues --   -0.02069   0.05769   0.07111   0.08193   0.09778
 Alpha virt. eigenvalues --    0.12453   0.13826   0.15221   0.17681   0.19539
 Alpha virt. eigenvalues --    0.20140   0.21578   0.25246   0.26254   0.28950

 Mulliken charges:
               1
     1  C    0.156337
     2  O   -0.336803
     3  C   -0.034706
     4  C   -0.126649
     5  H    0.108029
     6  H    0.077804
     7  H    0.101280
     8  H    0.054707
 Sum of Mulliken charges =   0.00000

 Dipole moment (field-independent basis, Debye):
    X=              3.4337    Y=              0.7197    Z=              0.1146  Tot=              3.5102
 Quadrupole moment (field-independent basis, Debye-Ang):
   XX=            -26.9342   YY=            -22.1205   ZZ=            -25.2385
   XY=             -0.9939   XZ=             -0.4588   YZ=             -0.1734

 Normal termination of Gaussian 09 at Wed Aug 26 10:07:19 2020.
