 Gaussian 09, Revision D.01,
 Gaussian 09:  ES64L-G09RevD.01 24-Apr-2013

 --------------------
 #p B2PLYPD3/Def2QZVP
 --------------------

 --------
 acrolein
 --------
 Symbolic Z-matrix:
 Charge =  0 Multiplicity = 1

                         Standard orientation:
 ---------------------------------------------------------------------
 Center     Atomic      Atomic             Coordinates (Angstroms)
 Number     Number       Type             X           Y           Z
 ---------------------------------------------------------------------
      1          6           0        0.660251    0.356601    0.011651
      2          8           0        1.788926   -0.123058   -0.022256
      3          6           0       -0.566039   -0.433668    0.020900
      4          6           0       -1.746900    0.141942   -0.008991
      5          1           0       -0.424475   -1.600966    0.040055
      6          1           0       -1.764295    1.159944   -0.066334
      7          1           0       -2.696745   -0.383527   -0.037086
      8          1           0        0.490236    1.419762    0.100049
 ---------------------------------------------------------------------

 SCF Done:  E(RB2PLYPD3) =  -191.607010958     A.U. after   13 cycles
 E2(B2PLYPD3) =    -0.2477132326D+00 E(B2PLYPD3) =    -0.19185472419078D+03

 The electronic state is 1-A.
 Alpha  occ. eigenvalues --  -19.72896 -10.71583 -10.64953 -10.64642  -1.18591
 Alpha  occ. eigenvalues --   -0.93798  -0.76120  -0.66815  -0.56989  -0.56525
 Alpha  occ. eigenvalues --   -0.50647  -0.46450  -0.45760  -0.35005  -0.34091
 Alpha virt. eigenvalues --   -0.01903   0.05807   0.06786   0.08154   0.09771
 Alpha virt. eigenvalues --    0.12714   0.14207   0.15277   0.16816   0.19690
 Alpha virt. eigenvalues --    0.20347   0.21829   0.25530   0.26590   0.29004

 Mulliken charges:
               1
     1  C    0.152847
     2  O   -0.356907
     3  C   -0.024738
     4  C   -0.128716
     5  H    0.093297
     6  H    0.081466
     7  H    0.106119
     8  H    0.076631
 Sum of Mulliken charges =   0.00000

 Dipole moment (field-independent basis, Debye):
    X=             -3.5726    Y=              0.8490    Z=              0.0434  Tot=              3.6723
 Quadrupole moment (field-independent basis, Debye-Ang):
   XX=            -27.4441   YY=            -21.8042   ZZ=            -25.1567
   XY=              0.9347   XZ=              0.2963   YZ=             -0.0584

 Normal termination of Gaussian 09 at Wed Aug 26 21:22:32 2020.
