 Gaussian 09, Revision D.01,
 Gaussian 09:  ES64L-G09RevD.01 24-Apr-2013

 --------------------
 #p B2PLYPD3/Def2QZVP
 --------------------

 --------
 acrolein
 --------
 Symbolic Z-matrix:
 Charge =  0 Multiplicity = 1

                         Standard orientation:
 ---------------------------------------------------------------------
 Center     Atomic      Atomic             Coordinates (Angstroms)
 Number     Number       Type             X           Y           Z
 ---------------------------------------------------------------------
      1          6           0        0.671047    0.358503    0.030831
      2          8           0        1.784098   -0.133850   -0.021864
      3          6           0       -0.556418   -0.431777    0.014909
      4          6           0       -1.757004    0.131980   -0.019017
      5          1           0       -0.455998   -1.514768    0.015493
      6          1           0       -1.828883    1.186079   -0.033891
      7          1           0       -2.661889   -0.420701    0.011005
      8          1           0        0.528234    1.467962    0.021968
 ---------------------------------------------------------------------

 SCF Done:  E(RB2PLYPD3) =  -191.615758115     A.U. after   12 cycles
 E2(B2PLYPD3) =    -0.2472195077D+00 E(B2PLYPD3) =    -0.19186297762314D+03

 The electronic state is 1-A.
 Alpha  occ. eigenvalues --  -19.72868 -10.71799 -10.64863 -10.64248  -1.19136
 Alpha  occ. eigenvalues --   -0.93322  -0.75869  -0.66946  -0.56791  -0.56701
 Alpha  occ. eigenvalues --   -0.50630  -0.46826  -0.46645  -0.34747  -0.33954
 Alpha virt. eigenvalues --   -0.01899   0.05812   0.07143   0.08239   0.09798
 Alpha virt. eigenvalues --    0.12585   0.14089   0.15382   0.17385   0.19898
 Alpha virt. eigenvalues --    0.19968   0.21789   0.25644   0.26282   0.28924

 Mulliken charges:
               1
     1  C    0.153209
     2  O   -0.350753
     3  C   -0.033042
     4  C   -0.130096
     5  H    0.103209
     6  H    0.081639
     7  H    0.104208
     8  H    0.071627
 Sum of Mulliken charges =   0.00000

 Dipole moment (field-independent basis, Debye):
    X=             -3.5125    Y=              0.8018    Z=              0.0848  Tot=              3.6039
 Quadrupole moment (field-independent basis, Debye-Ang):
   XX=            -27.3413   YY=            -21.7845   ZZ=            -25.1598
   XY=              1.0708   XZ=              0.1151   YZ=             -0.0513

 Normal termination of Gaussian 09 at Wed Aug 26 09:07:09 2020.
