 Gaussian 09, Revision D.01,
 Gaussian 09:  ES64L-G09RevD.01 24-Apr-2013

 --------------------
 #p B2PLYPD3/Def2QZVP
 --------------------

 --------
 acrolein
 --------
 Symbolic Z-matrix:
 Charge =  0 Multiplicity = 1

                         Standard orientation:
 ---------------------------------------------------------------------
 Center     Atomic      Atomic             Coordinates (Angstroms)
 Number     Number       Type             X           Y           Z
 ---------------------------------------------------------------------
      1          6           0        0.668441    0.348240    0.019421
      2          8           0        1.795121   -0.117869   -0.017532
      3          6           0       -0.552024   -0.447356    0.014510
      4          6           0       -1.758354    0.131851   -0.018685
      5          1           0       -0.426974   -1.501984    0.004916
      6          1           0       -1.847392    1.226189   -0.055043
      7          1           0       -2.710836   -0.421390    0.038234
      8          1           0        0.475855    1.443723    0.060679
 ---------------------------------------------------------------------

 SCF Done:  E(RB2PLYPD3) =  -191.614952938     A.U. after   13 cycles
 E2(B2PLYPD3) =    -0.2479233772D+00 E(B2PLYPD3) =    -0.19186287631496D+03

 The electronic state is 1-A.
 Alpha  occ. eigenvalues --  -19.72901 -10.71707 -10.66131 -10.64289  -1.19006
 Alpha  occ. eigenvalues --   -0.93095  -0.75614  -0.67130  -0.56555  -0.56032
 Alpha  occ. eigenvalues --   -0.50563  -0.46813  -0.46551  -0.34636  -0.33942
 Alpha virt. eigenvalues --   -0.02133   0.05620   0.07221   0.08186   0.09723
 Alpha virt. eigenvalues --    0.12472   0.13906   0.15365   0.17601   0.19547
 Alpha virt. eigenvalues --    0.20000   0.21425   0.25433   0.26484   0.28817

 Mulliken charges:
               1
     1  C    0.157410
     2  O   -0.354260
     3  C   -0.034686
     4  C   -0.128089
     5  H    0.107877
     6  H    0.081210
     7  H    0.102233
     8  H    0.068306
 Sum of Mulliken charges =   0.00000

 Dipole moment (field-independent basis, Debye):
    X=             -3.5906    Y=              0.7373    Z=              0.0725  Tot=              3.6663
 Quadrupole moment (field-independent basis, Debye-Ang):
   XX=            -27.3677   YY=            -21.8630   ZZ=            -25.2500
   XY=              0.8294   XZ=              0.0710   YZ=             -0.0621

 Normal termination of Gaussian 09 at Wed Aug 26 15:30:06 2020.
