 Gaussian 09, Revision D.01,
 Gaussian 09:  ES64L-G09RevD.01 24-Apr-2013

 --------------------
 #p B2PLYPD3/Def2QZVP
 --------------------

 --------
 acrolein
 --------
 Symbolic Z-matrix:
 Charge =  0 Multiplicity = 1

                         Standard orientation:
 ---------------------------------------------------------------------
 Center     Atomic      Atomic             Coordinates (Angstroms)
 Number     Number       Type             X           Y           Z
 ---------------------------------------------------------------------
      1          6           0       -0.679337    0.363992   -0.010306
      2          8           0       -1.779263   -0.134586   -0.000527
      3          6           0        0.554731   -0.439745    0.015438
      4          6           0        1.767005    0.133614   -0.009251
      5          1           0        0.420307   -1.520123    0.008087
      6          1           0        1.796097    1.198972    0.049488
      7          1           0        2.679964   -0.424425   -0.034380
      8          1           0       -0.516655    1.475094    0.005733
 ---------------------------------------------------------------------

 SCF Done:  E(RB2PLYPD3) =  -191.615809165     A.U. after   12 cycles
 E2(B2PLYPD3) =    -0.2472653969D+00 E(B2PLYPD3) =    -0.19186307456148D+03

 The electronic state is 1-A.
 Alpha  occ. eigenvalues --  -19.72949 -10.71826 -10.65211 -10.64420  -1.19834
 Alpha  occ. eigenvalues --   -0.92732  -0.75430  -0.66786  -0.56693  -0.56291
 Alpha  occ. eigenvalues --   -0.50809  -0.47025  -0.46771  -0.34470  -0.33921
 Alpha virt. eigenvalues --   -0.01783   0.05820   0.07172   0.08136   0.09843
 Alpha virt. eigenvalues --    0.12517   0.13924   0.15391   0.17366   0.19874
 Alpha virt. eigenvalues --    0.19963   0.21654   0.25461   0.26379   0.28969

 Mulliken charges:
               1
     1  C    0.157484
     2  O   -0.344812
     3  C   -0.039432
     4  C   -0.135693
     5  H    0.104106
     6  H    0.082687
     7  H    0.107093
     8  H    0.068567
 Sum of Mulliken charges =   0.00000

 Dipole moment (field-independent basis, Debye):
    X=              3.3983    Y=              0.7897    Z=              0.0083  Tot=              3.4889
 Quadrupole moment (field-independent basis, Debye-Ang):
   XX=            -27.3337   YY=            -21.7998   ZZ=            -25.2428
   XY=             -1.0836   XZ=             -0.0181   YZ=              0.0839

 Normal termination of Gaussian 09 at Wed Aug 26 19:53:28 2020.
