 Gaussian 09, Revision D.01,
 Gaussian 09:  ES64L-G09RevD.01 24-Apr-2013

 --------------------
 #p B2PLYPD3/Def2QZVP
 --------------------

 --------
 acrolein
 --------
 Symbolic Z-matrix:
 Charge =  0 Multiplicity = 1

                         Standard orientation:
 ---------------------------------------------------------------------
 Center     Atomic      Atomic             Coordinates (Angstroms)
 Number     Number       Type             X           Y           Z
 ---------------------------------------------------------------------
      1          6           0       -0.673480    0.347164   -0.022829
      2          8           0       -1.797366   -0.130680    0.058996
      3          6           0        0.553015   -0.435006   -0.091177
      4          6           0        1.773461    0.116602    0.038990
      5          1           0        0.480006   -1.491302   -0.118871
      6          1           0        1.894880    1.268618    0.027613
      7          1           0        2.526438   -0.498558    0.228861
      8          1           0       -0.440371    1.594121   -0.159477
 ---------------------------------------------------------------------

 SCF Done:  E(RB2PLYPD3) =  -191.588408357     A.U. after   13 cycles
 E2(B2PLYPD3) =    -0.2501370180D+00 E(B2PLYPD3) =    -0.19183854537525D+03

 The electronic state is 1-A.
 Alpha  occ. eigenvalues --  -19.73555 -10.73475 -10.65750 -10.64523  -1.19158
 Alpha  occ. eigenvalues --   -0.93332  -0.76172  -0.65210  -0.57540  -0.54708
 Alpha  occ. eigenvalues --   -0.50496  -0.47602  -0.46269  -0.34670  -0.33644
 Alpha virt. eigenvalues --   -0.02491   0.05559   0.06591   0.08105   0.09657
 Alpha virt. eigenvalues --    0.12213   0.13299   0.15243   0.17166   0.19307
 Alpha virt. eigenvalues --    0.19695   0.22140   0.24771   0.26189   0.28167

 Mulliken charges:
               1
     1  C    0.172166
     2  O   -0.342582
     3  C   -0.035348
     4  C   -0.123660
     5  H    0.100380
     6  H    0.087067
     7  H    0.110465
     8  H    0.031511
 Sum of Mulliken charges =   0.00000

 Dipole moment (field-independent basis, Debye):
    X=              3.5748    Y=              0.5078    Z=             -0.0649  Tot=              3.6112
 Quadrupole moment (field-independent basis, Debye-Ang):
   XX=            -27.5504   YY=            -22.0037   ZZ=            -25.3370
   XY=             -0.9027   XZ=              0.8166   YZ=             -0.0704

 Normal termination of Gaussian 09 at Wed Aug 26 11:24:13 2020.
