 Gaussian 09, Revision D.01,
 Gaussian 09:  ES64L-G09RevD.01 24-Apr-2013

 --------------------
 #p B2PLYPD3/Def2QZVP
 --------------------

 --------
 acrolein
 --------
 Symbolic Z-matrix:
 Charge =  0 Multiplicity = 1

                         Standard orientation:
 ---------------------------------------------------------------------
 Center     Atomic      Atomic             Coordinates (Angstroms)
 Number     Number       Type             X           Y           Z
 ---------------------------------------------------------------------
      1          6           0        0.674676    0.348921   -0.011193
      2          8           0        1.787689   -0.115831    0.021716
      3          6           0       -0.559258   -0.455821   -0.036979
      4          6           0       -1.764984    0.140575    0.015988
      5          1           0       -0.438720   -1.516307   -0.020239
      6          1           0       -1.848203    1.249831   -0.011953
      7          1           0       -2.649779   -0.414819    0.087505
      8          1           0        0.532596    1.405895   -0.035932
 ---------------------------------------------------------------------

 SCF Done:  E(RB2PLYPD3) =  -191.614867171     A.U. after   12 cycles
 E2(B2PLYPD3) =    -0.2467665698D+00 E(B2PLYPD3) =    -0.19186163374035D+03

 The electronic state is 1-A.
 Alpha  occ. eigenvalues --  -19.72645 -10.71059 -10.65596 -10.64394  -1.19674
 Alpha  occ. eigenvalues --   -0.92683  -0.75700  -0.67549  -0.56708  -0.56453
 Alpha  occ. eigenvalues --   -0.50764  -0.47200  -0.46738  -0.34429  -0.33828
 Alpha virt. eigenvalues --   -0.01781   0.05753   0.07365   0.08171   0.09707
 Alpha virt. eigenvalues --    0.12556   0.14089   0.15389   0.17663   0.19592
 Alpha virt. eigenvalues --    0.19967   0.21719   0.25274   0.26560   0.28806

 Mulliken charges:
               1
     1  C    0.157174
     2  O   -0.349408
     3  C   -0.045827
     4  C   -0.133448
     5  H    0.106948
     6  H    0.083085
     7  H    0.105033
     8  H    0.076442
 Sum of Mulliken charges =   0.00000

 Dipole moment (field-independent basis, Debye):
    X=             -3.4741    Y=              0.7692    Z=             -0.0220  Tot=              3.5583
 Quadrupole moment (field-independent basis, Debye-Ang):
   XX=            -27.4502   YY=            -21.6581   ZZ=            -25.1946
   XY=              0.9369   XZ=             -0.3107   YZ=             -0.0714

 Normal termination of Gaussian 09 at Wed Aug 26 18:50:14 2020.
