 Gaussian 09, Revision D.01,
 Gaussian 09:  ES64L-G09RevD.01 24-Apr-2013

 --------------------
 #p B2PLYPD3/Def2QZVP
 --------------------

 --------
 acrolein
 --------
 Symbolic Z-matrix:
 Charge =  0 Multiplicity = 1

                         Standard orientation:
 ---------------------------------------------------------------------
 Center     Atomic      Atomic             Coordinates (Angstroms)
 Number     Number       Type             X           Y           Z
 ---------------------------------------------------------------------
      1          6           0       -0.681289    0.356576    0.024609
      2          8           0       -1.786902   -0.138155   -0.029750
      3          6           0        0.536465   -0.421401    0.057044
      4          6           0        1.776282    0.133291   -0.034037
      5          1           0        0.442819   -1.543754   -0.022129
      6          1           0        1.814206    1.190471   -0.000628
      7          1           0        2.746308   -0.473952   -0.045322
      8          1           0       -0.496870    1.521686    0.020388
 ---------------------------------------------------------------------

 SCF Done:  E(RB2PLYPD3) =  -191.605158610     A.U. after   13 cycles
 E2(B2PLYPD3) =    -0.2492727232D+00 E(B2PLYPD3) =    -0.19185443133288D+03

 The electronic state is 1-A.
 Alpha  occ. eigenvalues --  -19.73113 -10.72394 -10.66505 -10.65094  -1.19665
 Alpha  occ. eigenvalues --   -0.92550  -0.75470  -0.65705  -0.56084  -0.55951
 Alpha  occ. eigenvalues --   -0.50214  -0.47023  -0.46055  -0.34364  -0.33957
 Alpha virt. eigenvalues --   -0.02466   0.05579   0.06654   0.08254   0.09811
 Alpha virt. eigenvalues --    0.12239   0.13609   0.15232   0.17290   0.19804
 Alpha virt. eigenvalues --    0.19997   0.21191   0.24946   0.26259   0.28933

 Mulliken charges:
               1
     1  C    0.156531
     2  O   -0.342154
     3  C   -0.029906
     4  C   -0.130017
     5  H    0.099580
     6  H    0.085298
     7  H    0.107892
     8  H    0.052776
 Sum of Mulliken charges =   0.00000

 Dipole moment (field-independent basis, Debye):
    X=              3.5324    Y=              0.7331    Z=              0.0318  Tot=              3.6078
 Quadrupole moment (field-independent basis, Debye-Ang):
   XX=            -27.1421   YY=            -22.0242   ZZ=            -25.4551
   XY=             -1.1294   XZ=             -0.2814   YZ=              0.1043

 Normal termination of Gaussian 09 at Wed Aug 26 09:51:29 2020.
