 Gaussian 09, Revision D.01,
 Gaussian 09:  ES64L-G09RevD.01 24-Apr-2013

 --------------------
 #p B2PLYPD3/Def2QZVP
 --------------------

 --------
 acrolein
 --------
 Symbolic Z-matrix:
 Charge =  0 Multiplicity = 1

                         Standard orientation:
 ---------------------------------------------------------------------
 Center     Atomic      Atomic             Coordinates (Angstroms)
 Number     Number       Type             X           Y           Z
 ---------------------------------------------------------------------
      1          6           0       -0.647507   -0.341516    0.021227
      2          8           0       -1.790360    0.089055   -0.030451
      3          6           0        0.597291    0.466628    0.086930
      4          6           0        1.725159   -0.157946   -0.055322
      5          1           0        0.288655    1.672893   -0.060417
      6          1           0        1.864726   -1.252199    0.088123
      7          1           0        2.715287    0.364281   -0.090512
      8          1           0       -0.595446   -1.300409   -0.010589
 ---------------------------------------------------------------------

 SCF Done:  E(RB2PLYPD3) =  -191.575050232     A.U. after   14 cycles
 E2(B2PLYPD3) =    -0.2479624268D+00 E(B2PLYPD3) =    -0.19182301265858D+03

 The electronic state is 1-A.
 Alpha  occ. eigenvalues --  -19.72331 -10.69958 -10.66031 -10.65864  -1.18638
 Alpha  occ. eigenvalues --   -0.93565  -0.75697  -0.67726  -0.57384  -0.55123
 Alpha  occ. eigenvalues --   -0.50176  -0.46220  -0.44271  -0.35510  -0.33650
 Alpha virt. eigenvalues --   -0.01401   0.05577   0.06375   0.07629   0.09565
 Alpha virt. eigenvalues --    0.12554   0.13574   0.15305   0.16779   0.19690
 Alpha virt. eigenvalues --    0.19887   0.21501   0.24184   0.27477   0.28340

 Mulliken charges:
               1
     1  C    0.176471
     2  O   -0.365373
     3  C   -0.051850
     4  C   -0.110320
     5  H    0.101126
     6  H    0.084752
     7  H    0.092556
     8  H    0.072638
 Sum of Mulliken charges =   0.00000

 Dipole moment (field-independent basis, Debye):
    X=              3.5374    Y=             -0.8769    Z=              0.0418  Tot=              3.6447
 Quadrupole moment (field-independent basis, Debye-Ang):
   XX=            -27.6914   YY=            -21.6133   ZZ=            -25.1895
   XY=              0.4023   XZ=             -0.2182   YZ=             -0.2997

 Normal termination of Gaussian 09 at Wed Aug 26 11:43:17 2020.
