 Gaussian 09, Revision D.01,
 Gaussian 09:  ES64L-G09RevD.01 24-Apr-2013

 --------------------
 #p B2PLYPD3/Def2QZVP
 --------------------

 --------
 acrolein
 --------
 Symbolic Z-matrix:
 Charge =  0 Multiplicity = 1

                         Standard orientation:
 ---------------------------------------------------------------------
 Center     Atomic      Atomic             Coordinates (Angstroms)
 Number     Number       Type             X           Y           Z
 ---------------------------------------------------------------------
      1          6           0       -0.664391    0.337364    0.019969
      2          8           0       -1.791561   -0.110346   -0.006665
      3          6           0        0.561716   -0.449803   -0.010280
      4          6           0        1.755651    0.149879   -0.007853
      5          1           0        0.422376   -1.583583    0.011216
      6          1           0        1.825401    1.221917   -0.023975
      7          1           0        2.663568   -0.428633    0.053105
      8          1           0       -0.496711    1.448420    0.001956
 ---------------------------------------------------------------------

 SCF Done:  E(RB2PLYPD3) =  -191.613650276     A.U. after   12 cycles
 E2(B2PLYPD3) =    -0.2477896101D+00 E(B2PLYPD3) =    -0.19186143988647D+03

 The electronic state is 1-A.
 Alpha  occ. eigenvalues --  -19.72814 -10.71638 -10.65626 -10.65045  -1.19340
 Alpha  occ. eigenvalues --   -0.93132  -0.75698  -0.66155  -0.56476  -0.56347
 Alpha  occ. eigenvalues --   -0.50377  -0.46771  -0.46617  -0.34743  -0.33776
 Alpha virt. eigenvalues --   -0.01992   0.05768   0.06809   0.08301   0.09754
 Alpha virt. eigenvalues --    0.12586   0.13951   0.15297   0.17046   0.19904
 Alpha virt. eigenvalues --    0.19937   0.21693   0.25410   0.26437   0.28715

 Mulliken charges:
               1
     1  C    0.158610
     2  O   -0.349283
     3  C   -0.030145
     4  C   -0.131618
     5  H    0.097331
     6  H    0.089366
     7  H    0.106594
     8  H    0.059146
 Sum of Mulliken charges =   0.00000

 Dipole moment (field-independent basis, Debye):
    X=              3.5605    Y=              0.6996    Z=              0.0741  Tot=              3.6294
 Quadrupole moment (field-independent basis, Debye-Ang):
   XX=            -27.4822   YY=            -21.7767   ZZ=            -25.2766
   XY=             -0.7993   XZ=              0.0795   YZ=             -0.0861

 Normal termination of Gaussian 09 at Wed Aug 26 15:38:55 2020.
