 Gaussian 09, Revision D.01,
 Gaussian 09:  ES64L-G09RevD.01 24-Apr-2013

 --------------------
 #p B2PLYPD3/Def2QZVP
 --------------------

 --------
 acrolein
 --------
 Symbolic Z-matrix:
 Charge =  0 Multiplicity = 1

                         Standard orientation:
 ---------------------------------------------------------------------
 Center     Atomic      Atomic             Coordinates (Angstroms)
 Number     Number       Type             X           Y           Z
 ---------------------------------------------------------------------
      1          6           0       -0.664366    0.345846   -0.066764
      2          8           0       -1.773557   -0.136353    0.049778
      3          6           0        0.524317   -0.426897   -0.067970
      4          6           0        1.745219    0.124481   -0.001941
      5          1           0        0.439854   -1.356645    0.049902
      6          1           0        1.744796    1.164192    0.021962
      7          1           0        2.828838   -0.451973    0.235509
      8          1           0       -0.456052    1.474663    0.114444
 ---------------------------------------------------------------------

 SCF Done:  E(RB2PLYPD3) =  -191.572627618     A.U. after   13 cycles
 E2(B2PLYPD3) =    -0.2488077959D+00 E(B2PLYPD3) =    -0.19182143541348D+03

 The electronic state is 1-A.
 Alpha  occ. eigenvalues --  -19.72999 -10.71865 -10.66967 -10.62720  -1.19525
 Alpha  occ. eigenvalues --   -0.94173  -0.75507  -0.68740  -0.56565  -0.55692
 Alpha  occ. eigenvalues --   -0.50173  -0.47239  -0.46712  -0.34780  -0.33841
 Alpha virt. eigenvalues --   -0.02506   0.05146   0.07082   0.08109   0.09731
 Alpha virt. eigenvalues --    0.12171   0.13638   0.15266   0.18482   0.19312
 Alpha virt. eigenvalues --    0.20098   0.20880   0.24488   0.26677   0.28992

 Mulliken charges:
               1
     1  C    0.157491
     2  O   -0.350786
     3  C   -0.028976
     4  C   -0.123569
     5  H    0.118270
     6  H    0.083323
     7  H    0.095776
     8  H    0.048471
 Sum of Mulliken charges =   0.00000

 Dipole moment (field-independent basis, Debye):
    X=              3.5533    Y=              0.6942    Z=              0.1198  Tot=              3.6225
 Quadrupole moment (field-independent basis, Debye-Ang):
   XX=            -27.0532   YY=            -22.2951   ZZ=            -25.0811
   XY=             -1.0661   XZ=              0.9001   YZ=             -0.1376

 Normal termination of Gaussian 09 at Wed Aug 26 12:27:16 2020.
