 Gaussian 09, Revision D.01,
 Gaussian 09:  ES64L-G09RevD.01 24-Apr-2013

 --------------------
 #p B2PLYPD3/Def2QZVP
 --------------------

 --------
 acrolein
 --------
 Symbolic Z-matrix:
 Charge =  0 Multiplicity = 1

                         Standard orientation:
 ---------------------------------------------------------------------
 Center     Atomic      Atomic             Coordinates (Angstroms)
 Number     Number       Type             X           Y           Z
 ---------------------------------------------------------------------
      1          6           0       -0.670664    0.358879    0.000025
      2          8           0       -1.779214   -0.131957   -0.007936
      3          6           0        0.556376   -0.433460   -0.001511
      4          6           0        1.752993    0.136562    0.001217
      5          1           0        0.424628   -1.556601    0.041015
      6          1           0        1.810349    1.174262   -0.054060
      7          1           0        2.703954   -0.405790    0.000565
      8          1           0       -0.537449    1.471903    0.077584
 ---------------------------------------------------------------------

 SCF Done:  E(RB2PLYPD3) =  -191.613433258     A.U. after   12 cycles
 E2(B2PLYPD3) =    -0.2472852767D+00 E(B2PLYPD3) =    -0.19186071853478D+03

 The electronic state is 1-A.
 Alpha  occ. eigenvalues --  -19.72841 -10.71764 -10.65050 -10.64693  -1.19492
 Alpha  occ. eigenvalues --   -0.93201  -0.75576  -0.66510  -0.56858  -0.56342
 Alpha  occ. eigenvalues --   -0.50568  -0.46866  -0.46234  -0.34793  -0.33920
 Alpha virt. eigenvalues --   -0.01765   0.05797   0.06932   0.08237   0.09787
 Alpha virt. eigenvalues --    0.12527   0.14139   0.15328   0.17095   0.19744
 Alpha virt. eigenvalues --    0.20232   0.21659   0.25471   0.26429   0.28964

 Mulliken charges:
               1
     1  C    0.153815
     2  O   -0.347466
     3  C   -0.033957
     4  C   -0.129021
     5  H    0.100740
     6  H    0.083211
     7  H    0.103409
     8  H    0.069270
 Sum of Mulliken charges =   0.00000

 Dipole moment (field-independent basis, Debye):
    X=              3.4706    Y=              0.8097    Z=              0.0332  Tot=              3.5640
 Quadrupole moment (field-independent basis, Debye-Ang):
   XX=            -27.2653   YY=            -21.8335   ZZ=            -25.2091
   XY=             -1.0008   XZ=             -0.1098   YZ=             -0.0916

 Normal termination of Gaussian 09 at Wed Aug 26 16:13:24 2020.
