 Gaussian 09, Revision D.01,
 Gaussian 09:  ES64L-G09RevD.01 24-Apr-2013

 --------------------
 #p B2PLYPD3/Def2QZVP
 --------------------

 --------
 acrolein
 --------
 Symbolic Z-matrix:
 Charge =  0 Multiplicity = 1

                         Standard orientation:
 ---------------------------------------------------------------------
 Center     Atomic      Atomic             Coordinates (Angstroms)
 Number     Number       Type             X           Y           Z
 ---------------------------------------------------------------------
      1          6           0       -0.672309    0.344648    0.016006
      2          8           0       -1.796048   -0.110773   -0.019730
      3          6           0        0.559612   -0.455017    0.037685
      4          6           0        1.763905    0.145082   -0.022389
      5          1           0        0.410387   -1.573124   -0.017426
      6          1           0        1.849120    1.222572   -0.000464
      7          1           0        2.687957   -0.417089   -0.033507
      8          1           0       -0.486328    1.445551    0.021424
 ---------------------------------------------------------------------

 SCF Done:  E(RB2PLYPD3) =  -191.614306674     A.U. after   12 cycles
 E2(B2PLYPD3) =    -0.2479949474D+00 E(B2PLYPD3) =    -0.19186230162129D+03

 The electronic state is 1-A.
 Alpha  occ. eigenvalues --  -19.72900 -10.71729 -10.65863 -10.65156  -1.19389
 Alpha  occ. eigenvalues --   -0.92683  -0.75586  -0.66374  -0.56497  -0.56036
 Alpha  occ. eigenvalues --   -0.50498  -0.46745  -0.46613  -0.34559  -0.33837
 Alpha virt. eigenvalues --   -0.02031   0.05724   0.06982   0.08123   0.09720
 Alpha virt. eigenvalues --    0.12548   0.13904   0.15314   0.17193   0.19827
 Alpha virt. eigenvalues --    0.19956   0.21613   0.25152   0.26536   0.28644

 Mulliken charges:
               1
     1  C    0.160095
     2  O   -0.349117
     3  C   -0.036912
     4  C   -0.130716
     5  H    0.101273
     6  H    0.086372
     7  H    0.104838
     8  H    0.064167
 Sum of Mulliken charges =   0.00000

 Dipole moment (field-independent basis, Debye):
    X=              3.5425    Y=              0.7294    Z=              0.0210  Tot=              3.6169
 Quadrupole moment (field-independent basis, Debye-Ang):
   XX=            -27.4095   YY=            -21.7949   ZZ=            -25.3303
   XY=             -0.7346   XZ=             -0.1954   YZ=              0.0757

 Normal termination of Gaussian 09 at Wed Aug 26 15:13:40 2020.
