 Gaussian 09, Revision D.01,
 Gaussian 09:  ES64L-G09RevD.01 24-Apr-2013

 --------------------
 #p B2PLYPD3/Def2QZVP
 --------------------

 --------
 acrolein
 --------
 Symbolic Z-matrix:
 Charge =  0 Multiplicity = 1

                         Standard orientation:
 ---------------------------------------------------------------------
 Center     Atomic      Atomic             Coordinates (Angstroms)
 Number     Number       Type             X           Y           Z
 ---------------------------------------------------------------------
      1          6           0        0.673280    0.357556    0.030942
      2          8           0        1.787925   -0.133758   -0.024937
      3          6           0       -0.557650   -0.422936    0.046655
      4          6           0       -1.759662    0.127369   -0.029170
      5          1           0       -0.422810   -1.514256   -0.028307
      6          1           0       -1.826396    1.230122    0.031192
      7          1           0       -2.737158   -0.446802   -0.053656
      8          1           0        0.547152    1.429067   -0.040298
 ---------------------------------------------------------------------

 SCF Done:  E(RB2PLYPD3) =  -191.612044792     A.U. after   13 cycles
 E2(B2PLYPD3) =    -0.2477741843D+00 E(B2PLYPD3) =    -0.19185981897659D+03

 The electronic state is 1-A.
 Alpha  occ. eigenvalues --  -19.72831 -10.71446 -10.66203 -10.64411  -1.19068
 Alpha  occ. eigenvalues --   -0.93134  -0.75449  -0.66928  -0.56543  -0.56017
 Alpha  occ. eigenvalues --   -0.50537  -0.46646  -0.45717  -0.34875  -0.34019
 Alpha virt. eigenvalues --   -0.01964   0.05578   0.07077   0.08157   0.09747
 Alpha virt. eigenvalues --    0.12285   0.13922   0.15298   0.17611   0.19542
 Alpha virt. eigenvalues --    0.19927   0.21278   0.25070   0.26801   0.29008

 Mulliken charges:
               1
     1  C    0.156981
     2  O   -0.353662
     3  C   -0.038508
     4  C   -0.125170
     5  H    0.104108
     6  H    0.077804
     7  H    0.103939
     8  H    0.074508
 Sum of Mulliken charges =   0.00000

 Dipole moment (field-independent basis, Debye):
    X=             -3.5103    Y=              0.8308    Z=              0.0287  Tot=              3.6074
 Quadrupole moment (field-independent basis, Debye-Ang):
   XX=            -27.3473   YY=            -21.8694   ZZ=            -25.2510
   XY=              1.1368   XZ=              0.2144   YZ=              0.1228

 Normal termination of Gaussian 09 at Wed Aug 26 09:13:15 2020.
