 Gaussian 09, Revision D.01,
 Gaussian 09:  ES64L-G09RevD.01 24-Apr-2013

 --------------------
 #p B2PLYPD3/Def2QZVP
 --------------------

 --------
 acrolein
 --------
 Symbolic Z-matrix:
 Charge =  0 Multiplicity = 1

                         Standard orientation:
 ---------------------------------------------------------------------
 Center     Atomic      Atomic             Coordinates (Angstroms)
 Number     Number       Type             X           Y           Z
 ---------------------------------------------------------------------
      1          6           0       -0.667932    0.347314   -0.019956
      2          8           0       -1.801155   -0.115095    0.018731
      3          6           0        0.579912   -0.471430   -0.012085
      4          6           0        1.750772    0.150917    0.012164
      5          1           0        0.453918   -1.528510   -0.000939
      6          1           0        1.833806    1.261767    0.090505
      7          1           0        2.639431   -0.422459   -0.038531
      8          1           0       -0.494427    1.449152   -0.081616
 ---------------------------------------------------------------------

 SCF Done:  E(RB2PLYPD3) =  -191.613725107     A.U. after   13 cycles
 E2(B2PLYPD3) =    -0.2478591510D+00 E(B2PLYPD3) =    -0.19186158425755D+03

 The electronic state is 1-A.
 Alpha  occ. eigenvalues --  -19.72934 -10.72007 -10.65457 -10.64421  -1.18674
 Alpha  occ. eigenvalues --   -0.93097  -0.75115  -0.66974  -0.56611  -0.55863
 Alpha  occ. eigenvalues --   -0.50523  -0.47255  -0.46191  -0.34816  -0.33755
 Alpha virt. eigenvalues --   -0.01669   0.05698   0.07155   0.07794   0.09719
 Alpha virt. eigenvalues --    0.12546   0.13820   0.15341   0.17445   0.19374
 Alpha virt. eigenvalues --    0.20116   0.21684   0.25228   0.26596   0.28645

 Mulliken charges:
               1
     1  C    0.158851
     2  O   -0.354384
     3  C   -0.046395
     4  C   -0.127621
     5  H    0.108733
     6  H    0.087034
     7  H    0.101861
     8  H    0.071922
 Sum of Mulliken charges =   0.00000

 Dipole moment (field-independent basis, Debye):
    X=              3.5284    Y=              0.7253    Z=             -0.0508  Tot=              3.6025
 Quadrupole moment (field-independent basis, Debye-Ang):
   XX=            -27.7855   YY=            -21.5801   ZZ=            -25.2557
   XY=             -0.8499   XZ=              0.1420   YZ=              0.0996

 Normal termination of Gaussian 09 at Wed Aug 26 13:30:21 2020.
