 Gaussian 09, Revision D.01,
 Gaussian 09:  ES64L-G09RevD.01 24-Apr-2013

 --------------------
 #p B2PLYPD3/Def2QZVP
 --------------------

 --------
 acrolein
 --------
 Symbolic Z-matrix:
 Charge =  0 Multiplicity = 1

                         Standard orientation:
 ---------------------------------------------------------------------
 Center     Atomic      Atomic             Coordinates (Angstroms)
 Number     Number       Type             X           Y           Z
 ---------------------------------------------------------------------
      1          6           0       -0.692436    0.375186   -0.005240
      2          8           0       -1.781542   -0.149679    0.005636
      3          6           0        0.559379   -0.442992   -0.004233
      4          6           0        1.764929    0.131126   -0.008074
      5          1           0        0.484130   -1.489083    0.022807
      6          1           0        1.758010    1.192865    0.088943
      7          1           0        2.688201   -0.421176   -0.010555
      8          1           0       -0.469242    1.534905   -0.041002
 ---------------------------------------------------------------------

 SCF Done:  E(RB2PLYPD3) =  -191.609576176     A.U. after   13 cycles
 E2(B2PLYPD3) =    -0.2478667223D+00 E(B2PLYPD3) =    -0.19185744289798D+03

 The electronic state is 1-A.
 Alpha  occ. eigenvalues --  -19.73440 -10.72878 -10.64882 -10.63960  -1.20054
 Alpha  occ. eigenvalues --   -0.92720  -0.74750  -0.66725  -0.56845  -0.55710
 Alpha  occ. eigenvalues --   -0.50902  -0.47195  -0.46832  -0.34501  -0.33984
 Alpha virt. eigenvalues --   -0.01590   0.05800   0.07124   0.07839   0.09875
 Alpha virt. eigenvalues --    0.12516   0.13643   0.15431   0.17494   0.19665
 Alpha virt. eigenvalues --    0.20122   0.21433   0.25406   0.26302   0.28819

 Mulliken charges:
               1
     1  C    0.157967
     2  O   -0.335934
     3  C   -0.040363
     4  C   -0.133695
     5  H    0.105682
     6  H    0.077343
     7  H    0.105076
     8  H    0.063924
 Sum of Mulliken charges =   0.00000

 Dipole moment (field-independent basis, Debye):
    X=              3.3003    Y=              0.7644    Z=              0.0565  Tot=              3.3881
 Quadrupole moment (field-independent basis, Debye-Ang):
   XX=            -27.3448   YY=            -21.8937   ZZ=            -25.2791
   XY=             -1.2460   XZ=              0.1472   YZ=              0.0625

 Normal termination of Gaussian 09 at Wed Aug 26 09:19:32 2020.
