 Gaussian 09, Revision D.01,
 Gaussian 09:  ES64L-G09RevD.01 24-Apr-2013

 --------------------
 #p B2PLYPD3/Def2QZVP
 --------------------

 --------
 acrolein
 --------
 Symbolic Z-matrix:
 Charge =  0 Multiplicity = 1

                         Standard orientation:
 ---------------------------------------------------------------------
 Center     Atomic      Atomic             Coordinates (Angstroms)
 Number     Number       Type             X           Y           Z
 ---------------------------------------------------------------------
      1          6           0        0.664478    0.339122    0.015455
      2          8           0        1.794535   -0.110147   -0.012451
      3          6           0       -0.563249   -0.466235    0.006031
      4          6           0       -1.745743    0.152611   -0.012721
      5          1           0       -0.482090   -1.517408   -0.000975
      6          1           0       -1.833524    1.263616   -0.059217
      7          1           0       -2.668559   -0.427192    0.049893
      8          1           0        0.494976    1.409168    0.057314
 ---------------------------------------------------------------------

 SCF Done:  E(RB2PLYPD3) =  -191.614992427     A.U. after   13 cycles
 E2(B2PLYPD3) =    -0.2473587247D+00 E(B2PLYPD3) =    -0.19186235115218D+03

 The electronic state is 1-A.
 Alpha  occ. eigenvalues --  -19.72680 -10.71342 -10.65971 -10.64199  -1.19047
 Alpha  occ. eigenvalues --   -0.93156  -0.75286  -0.67501  -0.56481  -0.56206
 Alpha  occ. eigenvalues --   -0.50390  -0.47205  -0.46487  -0.34678  -0.33812
 Alpha virt. eigenvalues --   -0.01797   0.05653   0.07184   0.08076   0.09675
 Alpha virt. eigenvalues --    0.12576   0.13969   0.15337   0.17712   0.19434
 Alpha virt. eigenvalues --    0.20070   0.21464   0.25349   0.26559   0.28757

 Mulliken charges:
               1
     1  C    0.153222
     2  O   -0.353391
     3  C   -0.039369
     4  C   -0.129101
     5  H    0.108164
     6  H    0.085850
     7  H    0.099657
     8  H    0.074968
 Sum of Mulliken charges =   0.00000

 Dipole moment (field-independent basis, Debye):
    X=             -3.5659    Y=              0.7238    Z=              0.0586  Tot=              3.6391
 Quadrupole moment (field-independent basis, Debye-Ang):
   XX=            -27.6652   YY=            -21.6158   ZZ=            -25.2161
   XY=              0.8872   XZ=              0.0326   YZ=             -0.0767

 Normal termination of Gaussian 09 at Wed Aug 26 18:40:12 2020.
