 Gaussian 09, Revision D.01,
 Gaussian 09:  ES64L-G09RevD.01 24-Apr-2013

 --------------------
 #p B2PLYPD3/Def2QZVP
 --------------------

 --------
 acrolein
 --------
 Symbolic Z-matrix:
 Charge =  0 Multiplicity = 1

                         Standard orientation:
 ---------------------------------------------------------------------
 Center     Atomic      Atomic             Coordinates (Angstroms)
 Number     Number       Type             X           Y           Z
 ---------------------------------------------------------------------
      1          6           0       -0.697726    0.353097    0.051532
      2          8           0       -1.765824   -0.135128   -0.072205
      3          6           0        0.536227   -0.398006    0.053324
      4          6           0        1.785828    0.131705   -0.031096
      5          1           0        0.365391   -1.455729    0.096897
      6          1           0        1.885271    1.060265   -0.302645
      7          1           0        2.713226   -0.446210    0.027697
      8          1           0       -0.583270    1.401923    0.313127
 ---------------------------------------------------------------------

 SCF Done:  E(RB2PLYPD3) =  -191.600072968     A.U. after   14 cycles
 E2(B2PLYPD3) =    -0.2457217445D+00 E(B2PLYPD3) =    -0.19184579471235D+03

 The electronic state is 1-A.
 Alpha  occ. eigenvalues --  -19.72742 -10.70699 -10.64746 -10.64176  -1.21460
 Alpha  occ. eigenvalues --   -0.92655  -0.76894  -0.67510  -0.57858  -0.56407
 Alpha  occ. eigenvalues --   -0.51544  -0.47825  -0.47046  -0.34007  -0.33772
 Alpha virt. eigenvalues --   -0.02205   0.05904   0.07577   0.08494   0.09872
 Alpha virt. eigenvalues --    0.12763   0.14028   0.15614   0.17473   0.19085
 Alpha virt. eigenvalues --    0.20447   0.21778   0.24884   0.26919   0.28583

 Mulliken charges:
               1
     1  C    0.153667
     2  O   -0.334740
     3  C   -0.047996
     4  C   -0.138585
     5  H    0.103727
     6  H    0.093172
     7  H    0.100504
     8  H    0.070250
 Sum of Mulliken charges =   0.00000

 Dipole moment (field-independent basis, Debye):
    X=              3.2907    Y=              0.7952    Z=              0.1406  Tot=              3.3883
 Quadrupole moment (field-independent basis, Debye-Ang):
   XX=            -26.7779   YY=            -22.1670   ZZ=            -24.9414
   XY=             -0.9283   XZ=             -0.7721   YZ=             -0.3832

 Normal termination of Gaussian 09 at Wed Aug 26 12:37:41 2020.
