 Gaussian 09, Revision D.01,
 Gaussian 09:  ES64L-G09RevD.01 24-Apr-2013

 --------------------
 #p B2PLYPD3/Def2QZVP
 --------------------

 --------
 acrolein
 --------
 Symbolic Z-matrix:
 Charge =  0 Multiplicity = 1

                         Standard orientation:
 ---------------------------------------------------------------------
 Center     Atomic      Atomic             Coordinates (Angstroms)
 Number     Number       Type             X           Y           Z
 ---------------------------------------------------------------------
      1          6           0       -0.701072    0.366451    0.027684
      2          8           0       -1.775172   -0.143574   -0.033558
      3          6           0        0.536461   -0.430658    0.060749
      4          6           0        1.764626    0.140148   -0.019626
      5          1           0        0.457631   -1.500612   -0.045662
      6          1           0        1.809984    1.189966   -0.064013
      7          1           0        2.834810   -0.467430   -0.068493
      8          1           0       -0.501141    1.471013    0.033786
 ---------------------------------------------------------------------

 SCF Done:  E(RB2PLYPD3) =  -191.600089292     A.U. after   13 cycles
 E2(B2PLYPD3) =    -0.2477978462D+00 E(B2PLYPD3) =    -0.19184788713852D+03

 The electronic state is 1-A.
 Alpha  occ. eigenvalues --  -19.73100 -10.71849 -10.66726 -10.64373  -1.21042
 Alpha  occ. eigenvalues --   -0.92120  -0.74546  -0.66996  -0.56693  -0.55423
 Alpha  occ. eigenvalues --   -0.50052  -0.47676  -0.46028  -0.34328  -0.33879
 Alpha virt. eigenvalues --   -0.01750   0.05322   0.07032   0.08155   0.09718
 Alpha virt. eigenvalues --    0.12114   0.13701   0.15381   0.17894   0.19698
 Alpha virt. eigenvalues --    0.19934   0.20726   0.25174   0.26170   0.28744

 Mulliken charges:
               1
     1  C    0.153717
     2  O   -0.332171
     3  C   -0.042232
     4  C   -0.135305
     5  H    0.107470
     6  H    0.082807
     7  H    0.096622
     8  H    0.069093
 Sum of Mulliken charges =   0.00000

 Dipole moment (field-independent basis, Debye):
    X=              3.2690    Y=              0.8400    Z=             -0.0448  Tot=              3.3755
 Quadrupole moment (field-independent basis, Debye-Ang):
   XX=            -27.1060   YY=            -21.9901   ZZ=            -25.3953
   XY=             -1.1263   XZ=             -0.4699   YZ=              0.0755

 Normal termination of Gaussian 09 at Wed Aug 26 09:31:41 2020.
