 Gaussian 09, Revision D.01,
 Gaussian 09:  ES64L-G09RevD.01 24-Apr-2013

 --------------------
 #p B2PLYPD3/Def2QZVP
 --------------------

 --------
 acrolein
 --------
 Symbolic Z-matrix:
 Charge =  0 Multiplicity = 1

                         Standard orientation:
 ---------------------------------------------------------------------
 Center     Atomic      Atomic             Coordinates (Angstroms)
 Number     Number       Type             X           Y           Z
 ---------------------------------------------------------------------
      1          6           0       -0.656107    0.320866   -0.006422
      2          8           0       -1.800410   -0.092122    0.032133
      3          6           0        0.574394   -0.458691   -0.051224
      4          6           0        1.744642    0.157745    0.010909
      5          1           0        0.442053   -1.572597   -0.051035
      6          1           0        1.857604    1.268232    0.016793
      7          1           0        2.628791   -0.425169    0.166120
      8          1           0       -0.502735    1.346987   -0.108525
 ---------------------------------------------------------------------

 SCF Done:  E(RB2PLYPD3) =  -191.609772545     A.U. after   12 cycles
 E2(B2PLYPD3) =    -0.2472319693D+00 E(B2PLYPD3) =    -0.19185700451469D+03

 The electronic state is 1-A.
 Alpha  occ. eigenvalues --  -19.72542 -10.70672 -10.65857 -10.64758  -1.18883
 Alpha  occ. eigenvalues --   -0.93563  -0.76050  -0.67166  -0.56647  -0.56359
 Alpha  occ. eigenvalues --   -0.50474  -0.46941  -0.46215  -0.34978  -0.33656
 Alpha virt. eigenvalues --   -0.01912   0.05675   0.06984   0.08279   0.09641
 Alpha virt. eigenvalues --    0.12666   0.14044   0.15238   0.17417   0.19520
 Alpha virt. eigenvalues --    0.19862   0.21795   0.25205   0.26776   0.28412

 Mulliken charges:
               1
     1  C    0.158839
     2  O   -0.358107
     3  C   -0.034460
     4  C   -0.127075
     5  H    0.099280
     6  H    0.088020
     7  H    0.102944
     8  H    0.070558
 Sum of Mulliken charges =   0.00000

 Dipole moment (field-independent basis, Debye):
    X=              3.6448    Y=              0.6984    Z=             -0.0073  Tot=              3.7111
 Quadrupole moment (field-independent basis, Debye-Ang):
   XX=            -27.7297   YY=            -21.6537   ZZ=            -25.1288
   XY=             -0.6607   XZ=              0.5930   YZ=             -0.0628

 Normal termination of Gaussian 09 at Wed Aug 26 09:30:30 2020.
