 Gaussian 09, Revision D.01,
 Gaussian 09:  ES64L-G09RevD.01 24-Apr-2013

 --------------------
 #p B2PLYPD3/Def2QZVP
 --------------------

 --------
 acrolein
 --------
 Symbolic Z-matrix:
 Charge =  0 Multiplicity = 1

                         Standard orientation:
 ---------------------------------------------------------------------
 Center     Atomic      Atomic             Coordinates (Angstroms)
 Number     Number       Type             X           Y           Z
 ---------------------------------------------------------------------
      1          6           0       -0.682866    0.366405   -0.020663
      2          8           0       -1.789900   -0.143039    0.065437
      3          6           0        0.541443   -0.424210   -0.113762
      4          6           0        1.768230    0.115167    0.061265
      5          1           0        0.361549   -1.495458   -0.129966
      6          1           0        1.851184    1.202938   -0.080250
      7          1           0        2.832372   -0.465497    0.249663
      8          1           0       -0.486746    1.558154   -0.123986
 ---------------------------------------------------------------------

 SCF Done:  E(RB2PLYPD3) =  -191.590891930     A.U. after   14 cycles
 E2(B2PLYPD3) =    -0.2506526650D+00 E(B2PLYPD3) =    -0.19184154459520D+03

 The electronic state is 1-A.
 Alpha  occ. eigenvalues --  -19.73377 -10.73021 -10.67688 -10.64956  -1.19285
 Alpha  occ. eigenvalues --   -0.92492  -0.74685  -0.65646  -0.55777  -0.55032
 Alpha  occ. eigenvalues --   -0.50042  -0.47037  -0.45446  -0.34437  -0.33831
 Alpha virt. eigenvalues --   -0.02449   0.05117   0.06540   0.07918   0.09707
 Alpha virt. eigenvalues --    0.11613   0.13538   0.15226   0.17199   0.19594
 Alpha virt. eigenvalues --    0.20118   0.20573   0.24174   0.26240   0.28590

 Mulliken charges:
               1
     1  C    0.171236
     2  O   -0.347527
     3  C   -0.038619
     4  C   -0.126270
     5  H    0.108269
     6  H    0.084682
     7  H    0.101228
     8  H    0.047002
 Sum of Mulliken charges =   0.00000

 Dipole moment (field-independent basis, Debye):
    X=              3.5214    Y=              0.7288    Z=             -0.1560  Tot=              3.5994
 Quadrupole moment (field-independent basis, Debye-Ang):
   XX=            -27.0694   YY=            -22.2555   ZZ=            -25.4994
   XY=             -0.9015   XZ=              0.7802   YZ=             -0.1827

 Normal termination of Gaussian 09 at Wed Aug 26 13:32:07 2020.
