 Gaussian 09, Revision D.01,
 Gaussian 09:  ES64L-G09RevD.01 24-Apr-2013

 --------------------
 #p B2PLYPD3/Def2QZVP
 --------------------

 --------
 acrolein
 --------
 Symbolic Z-matrix:
 Charge =  0 Multiplicity = 1

                         Standard orientation:
 ---------------------------------------------------------------------
 Center     Atomic      Atomic             Coordinates (Angstroms)
 Number     Number       Type             X           Y           Z
 ---------------------------------------------------------------------
      1          6           0       -0.670244   -0.326273   -0.029526
      2          8           0       -1.798438    0.099697    0.026183
      3          6           0        0.588088    0.479656   -0.056980
      4          6           0        1.760143   -0.190915   -0.003731
      5          1           0        0.514805    1.614606    0.113188
      6          1           0        1.761292   -1.209712    0.100174
      7          1           0        2.611270    0.374514    0.104138
      8          1           0       -0.567796   -1.351794    0.014460
 ---------------------------------------------------------------------

 SCF Done:  E(RB2PLYPD3) =  -191.601360166     A.U. after   12 cycles
 E2(B2PLYPD3) =    -0.2469290796D+00 E(B2PLYPD3) =    -0.19184828924542D+03

 The electronic state is 1-A.
 Alpha  occ. eigenvalues --  -19.72493 -10.70797 -10.65515 -10.64506  -1.19518
 Alpha  occ. eigenvalues --   -0.92856  -0.75820  -0.67591  -0.57875  -0.56070
 Alpha  occ. eigenvalues --   -0.50174  -0.47904  -0.46350  -0.34484  -0.33595
 Alpha virt. eigenvalues --   -0.01745   0.05990   0.06794   0.07961   0.09702
 Alpha virt. eigenvalues --    0.12999   0.14057   0.15350   0.17368   0.19858
 Alpha virt. eigenvalues --    0.20223   0.21894   0.24636   0.26635   0.28659

 Mulliken charges:
               1
     1  C    0.149207
     2  O   -0.346932
     3  C   -0.040436
     4  C   -0.128708
     5  H    0.096746
     6  H    0.089643
     7  H    0.103423
     8  H    0.077057
 Sum of Mulliken charges =   0.00000

 Dipole moment (field-independent basis, Debye):
    X=              3.4764    Y=             -0.7602    Z=              0.2013  Tot=              3.5642
 Quadrupole moment (field-independent basis, Debye-Ang):
   XX=            -27.8266   YY=            -21.4965   ZZ=            -25.1418
   XY=              0.9906   XZ=              0.6251   YZ=              0.1295

 Normal termination of Gaussian 09 at Wed Aug 26 10:54:17 2020.
