 Gaussian 09, Revision D.01,
 Gaussian 09:  ES64L-G09RevD.01 24-Apr-2013

 --------------------
 #p B2PLYPD3/Def2QZVP
 --------------------

 --------
 acrolein
 --------
 Symbolic Z-matrix:
 Charge =  0 Multiplicity = 1

                         Standard orientation:
 ---------------------------------------------------------------------
 Center     Atomic      Atomic             Coordinates (Angstroms)
 Number     Number       Type             X           Y           Z
 ---------------------------------------------------------------------
      1          6           0       -0.689481    0.355729    0.046035
      2          8           0       -1.784952   -0.129570   -0.037976
      3          6           0        0.549925   -0.442755    0.026981
      4          6           0        1.754985    0.138409   -0.024774
      5          1           0        0.432917   -1.457702    0.054988
      6          1           0        1.843688    1.177441   -0.031839
      7          1           0        2.801284   -0.431295   -0.045389
      8          1           0       -0.490850    1.439817    0.036599
 ---------------------------------------------------------------------

 SCF Done:  E(RB2PLYPD3) =  -191.605632478     A.U. after   13 cycles
 E2(B2PLYPD3) =    -0.2469795301D+00 E(B2PLYPD3) =    -0.19185261200802D+03

 The electronic state is 1-A.
 Alpha  occ. eigenvalues --  -19.73038 -10.71607 -10.66111 -10.63773  -1.20285
 Alpha  occ. eigenvalues --   -0.92797  -0.75056  -0.68018  -0.56910  -0.55698
 Alpha  occ. eigenvalues --   -0.50842  -0.47209  -0.46618  -0.34575  -0.33912
 Alpha virt. eigenvalues --   -0.01694   0.05517   0.07412   0.08139   0.09701
 Alpha virt. eigenvalues --    0.12330   0.13927   0.15407   0.18012   0.19878
 Alpha virt. eigenvalues --    0.19904   0.21010   0.25504   0.26316   0.28742

 Mulliken charges:
               1
     1  C    0.154152
     2  O   -0.342527
     3  C   -0.037819
     4  C   -0.134493
     5  H    0.112191
     6  H    0.085532
     7  H    0.091513
     8  H    0.071453
 Sum of Mulliken charges =   0.00000

 Dipole moment (field-independent basis, Debye):
    X=              3.3664    Y=              0.8134    Z=              0.1336  Tot=              3.4658
 Quadrupole moment (field-independent basis, Debye-Ang):
   XX=            -27.1837   YY=            -21.9552   ZZ=            -25.2136
   XY=             -0.8415   XZ=             -0.3089   YZ=             -0.0668

 Normal termination of Gaussian 09 at Wed Aug 26 08:35:41 2020.
