 Gaussian 09, Revision D.01,
 Gaussian 09:  ES64L-G09RevD.01 24-Apr-2013

 --------------------
 #p B2PLYPD3/Def2QZVP
 --------------------

 --------
 acrolein
 --------
 Symbolic Z-matrix:
 Charge =  0 Multiplicity = 1

                         Standard orientation:
 ---------------------------------------------------------------------
 Center     Atomic      Atomic             Coordinates (Angstroms)
 Number     Number       Type             X           Y           Z
 ---------------------------------------------------------------------
      1          6           0        0.647606    0.327237    0.033887
      2          8           0        1.792713   -0.098153   -0.029368
      3          6           0       -0.577699   -0.459423    0.024849
      4          6           0       -1.750085    0.151435   -0.036957
      5          1           0       -0.391631   -1.573786    0.018688
      6          1           0       -1.798428    1.248449   -0.040415
      7          1           0       -2.609582   -0.389511    0.046276
      8          1           0        0.539007    1.384583    0.079718
 ---------------------------------------------------------------------

 SCF Done:  E(RB2PLYPD3) =  -191.609063353     A.U. after   13 cycles
 E2(B2PLYPD3) =    -0.2473071985D+00 E(B2PLYPD3) =    -0.19185637055118D+03

 The electronic state is 1-A.
 Alpha  occ. eigenvalues --  -19.72502 -10.70880 -10.65137 -10.64855  -1.18562
 Alpha  occ. eigenvalues --   -0.93711  -0.76335  -0.66993  -0.57156  -0.56522
 Alpha  occ. eigenvalues --   -0.50442  -0.46903  -0.46278  -0.34963  -0.33689
 Alpha virt. eigenvalues --   -0.01979   0.05801   0.07044   0.08293   0.09771
 Alpha virt. eigenvalues --    0.12680   0.13976   0.15303   0.17162   0.19549
 Alpha virt. eigenvalues --    0.20057   0.22037   0.25338   0.26617   0.28969

 Mulliken charges:
               1
     1  C    0.157129
     2  O   -0.360891
     3  C   -0.031657
     4  C   -0.125778
     5  H    0.099373
     6  H    0.086956
     7  H    0.107504
     8  H    0.067363
 Sum of Mulliken charges =   0.00000

 Dipole moment (field-independent basis, Debye):
    X=             -3.6241    Y=              0.7087    Z=              0.1551  Tot=              3.6960
 Quadrupole moment (field-independent basis, Debye-Ang):
   XX=            -27.6864   YY=            -21.6353   ZZ=            -25.1298
   XY=              0.7611   XZ=              0.0877   YZ=             -0.0594

 Normal termination of Gaussian 09 at Wed Aug 26 10:11:51 2020.
