 Gaussian 09, Revision D.01,
 Gaussian 09:  ES64L-G09RevD.01 24-Apr-2013

 --------------------
 #p B2PLYPD3/Def2QZVP
 --------------------

 --------
 acrolein
 --------
 Symbolic Z-matrix:
 Charge =  0 Multiplicity = 1

                         Standard orientation:
 ---------------------------------------------------------------------
 Center     Atomic      Atomic             Coordinates (Angstroms)
 Number     Number       Type             X           Y           Z
 ---------------------------------------------------------------------
      1          6           0       -0.664248    0.346053   -0.021978
      2          8           0       -1.796913   -0.112089    0.016110
      3          6           0        0.577890   -0.462782   -0.018646
      4          6           0        1.753826    0.153690    0.001035
      5          1           0        0.439153   -1.543492    0.008815
      6          1           0        1.810503    1.197173    0.018035
      7          1           0        2.633414   -0.384920    0.064581
      8          1           0       -0.512578    1.406184    0.017227
 ---------------------------------------------------------------------

 SCF Done:  E(RB2PLYPD3) =  -191.613517896     A.U. after   12 cycles
 E2(B2PLYPD3) =    -0.2469797129D+00 E(B2PLYPD3) =    -0.19186049760863D+03

 The electronic state is 1-A.
 Alpha  occ. eigenvalues --  -19.72753 -10.71378 -10.64600 -10.64459  -1.18720
 Alpha  occ. eigenvalues --   -0.93363  -0.75995  -0.67614  -0.57079  -0.56643
 Alpha  occ. eigenvalues --   -0.50610  -0.47544  -0.46270  -0.34778  -0.33824
 Alpha virt. eigenvalues --   -0.01740   0.05861   0.07281   0.07968   0.09765
 Alpha virt. eigenvalues --    0.12829   0.14139   0.15306   0.17347   0.19948
 Alpha virt. eigenvalues --    0.20070   0.21961   0.25317   0.26653   0.28762

 Mulliken charges:
               1
     1  C    0.153899
     2  O   -0.357186
     3  C   -0.036684
     4  C   -0.131945
     5  H    0.104859
     6  H    0.086988
     7  H    0.102622
     8  H    0.077446
 Sum of Mulliken charges =   0.00000

 Dipole moment (field-independent basis, Debye):
    X=              3.5505    Y=              0.7791    Z=              0.0260  Tot=              3.6351
 Quadrupole moment (field-independent basis, Debye-Ang):
   XX=            -27.6316   YY=            -21.6097   ZZ=            -25.1119
   XY=             -0.8335   XZ=              0.2695   YZ=             -0.0255

 Normal termination of Gaussian 09 at Wed Aug 26 18:34:15 2020.
