 Gaussian 09, Revision D.01,
 Gaussian 09:  ES64L-G09RevD.01 24-Apr-2013

 --------------------
 #p B2PLYPD3/Def2QZVP
 --------------------

 --------
 acrolein
 --------
 Symbolic Z-matrix:
 Charge =  0 Multiplicity = 1

                         Standard orientation:
 ---------------------------------------------------------------------
 Center     Atomic      Atomic             Coordinates (Angstroms)
 Number     Number       Type             X           Y           Z
 ---------------------------------------------------------------------
      1          6           0        0.655427    0.363092    0.029289
      2          8           0        1.795749   -0.126684   -0.064028
      3          6           0       -0.584774   -0.427736    0.111203
      4          6           0       -1.746186    0.123343   -0.087664
      5          1           0       -0.419940   -1.483882    0.116255
      6          1           0       -1.848913    1.197953    0.079328
      7          1           0       -2.492203   -0.459364   -0.160514
      8          1           0        0.448262    1.406572    0.160187
 ---------------------------------------------------------------------

 SCF Done:  E(RB2PLYPD3) =  -191.591216397     A.U. after   14 cycles
 E2(B2PLYPD3) =    -0.2479459085D+00 E(B2PLYPD3) =    -0.19183916230543D+03

 The electronic state is 1-A.
 Alpha  occ. eigenvalues --  -19.73084 -10.71765 -10.63794 -10.63638  -1.17569
 Alpha  occ. eigenvalues --   -0.94578  -0.77226  -0.67469  -0.58369  -0.55918
 Alpha  occ. eigenvalues --   -0.50941  -0.47618  -0.45451  -0.35149  -0.33957
 Alpha virt. eigenvalues --   -0.02038   0.05886   0.06935   0.07980   0.09847
 Alpha virt. eigenvalues --    0.12749   0.13902   0.15132   0.17438   0.19647
 Alpha virt. eigenvalues --    0.20115   0.22657   0.24019   0.26569   0.27928

 Mulliken charges:
               1
     1  C    0.164570
     2  O   -0.367451
     3  C   -0.036370
     4  C   -0.125642
     5  H    0.099394
     6  H    0.084053
     7  H    0.103855
     8  H    0.077590
 Sum of Mulliken charges =   0.00000

 Dipole moment (field-independent basis, Debye):
    X=             -3.6091    Y=              0.7957    Z=              0.2707  Tot=              3.7057
 Quadrupole moment (field-independent basis, Debye-Ang):
   XX=            -27.9009   YY=            -21.6794   ZZ=            -24.9169
   XY=              0.9216   XZ=              0.5205   YZ=              0.2032

 Normal termination of Gaussian 09 at Wed Aug 26 13:53:52 2020.
