 Gaussian 09, Revision D.01,
 Gaussian 09:  ES64L-G09RevD.01 24-Apr-2013

 --------------------
 #p B2PLYPD3/Def2QZVP
 --------------------

 --------
 acrolein
 --------
 Symbolic Z-matrix:
 Charge =  0 Multiplicity = 1

                         Standard orientation:
 ---------------------------------------------------------------------
 Center     Atomic      Atomic             Coordinates (Angstroms)
 Number     Number       Type             X           Y           Z
 ---------------------------------------------------------------------
      1          6           0       -0.686192    0.340242    0.037504
      2          8           0       -1.791319   -0.107276   -0.039919
      3          6           0        0.581447   -0.467378    0.013686
      4          6           0        1.760640    0.149604   -0.035127
      5          1           0        0.454038   -1.552298    0.123970
      6          1           0        1.862694    1.241142   -0.036296
      7          1           0        2.602977   -0.367952   -0.003850
      8          1           0       -0.524529    1.402505    0.139149
 ---------------------------------------------------------------------

 SCF Done:  E(RB2PLYPD3) =  -191.609464102     A.U. after   12 cycles
 E2(B2PLYPD3) =    -0.2459003478D+00 E(B2PLYPD3) =    -0.19185536444942D+03

 The electronic state is 1-A.
 Alpha  occ. eigenvalues --  -19.72888 -10.71289 -10.64650 -10.64325  -1.20483
 Alpha  occ. eigenvalues --   -0.92726  -0.75774  -0.67076  -0.57200  -0.56428
 Alpha  occ. eigenvalues --   -0.51371  -0.47500  -0.46696  -0.34705  -0.33651
 Alpha virt. eigenvalues --   -0.01266   0.05936   0.07241   0.08211   0.09668
 Alpha virt. eigenvalues --    0.12785   0.14293   0.15328   0.17467   0.19583
 Alpha virt. eigenvalues --    0.20061   0.22144   0.25208   0.26759   0.28511

 Mulliken charges:
               1
     1  C    0.157743
     2  O   -0.337238
     3  C   -0.048179
     4  C   -0.131533
     5  H    0.100240
     6  H    0.081298
     7  H    0.103996
     8  H    0.073674
 Sum of Mulliken charges =   0.00000

 Dipole moment (field-independent basis, Debye):
    X=              3.3451    Y=              0.7370    Z=              0.2576  Tot=              3.4350
 Quadrupole moment (field-independent basis, Debye-Ang):
   XX=            -27.3892   YY=            -21.6947   ZZ=            -25.1095
   XY=             -0.7425   XZ=             -0.1954   YZ=             -0.1706

 Normal termination of Gaussian 09 at Wed Aug 26 10:11:41 2020.
