 Gaussian 09, Revision D.01,
 Gaussian 09:  ES64L-G09RevD.01 24-Apr-2013

 --------------------
 #p B2PLYPD3/Def2QZVP
 --------------------

 --------
 acrolein
 --------
 Symbolic Z-matrix:
 Charge =  0 Multiplicity = 1

                         Standard orientation:
 ---------------------------------------------------------------------
 Center     Atomic      Atomic             Coordinates (Angstroms)
 Number     Number       Type             X           Y           Z
 ---------------------------------------------------------------------
      1          6           0        0.692458    0.358984   -0.066559
      2          8           0        1.759275   -0.136822    0.042627
      3          6           0       -0.527866   -0.425913    0.019255
      4          6           0       -1.746051    0.100488   -0.001865
      5          1           0       -0.394167   -1.424102   -0.079673
      6          1           0       -1.944558    1.315160    0.214255
      7          1           0       -2.710840   -0.525645   -0.058927
      8          1           0        0.464123    1.527809   -0.121656
 ---------------------------------------------------------------------

 SCF Done:  E(RB2PLYPD3) =  -191.587445049     A.U. after   13 cycles
 E2(B2PLYPD3) =    -0.2477340681D+00 E(B2PLYPD3) =    -0.19183517911672D+03

 The electronic state is 1-A.
 Alpha  occ. eigenvalues --  -19.73269 -10.72012 -10.67513 -10.63296  -1.21788
 Alpha  occ. eigenvalues --   -0.92794  -0.74366  -0.66089  -0.56564  -0.55297
 Alpha  occ. eigenvalues --   -0.51034  -0.48122  -0.44835  -0.34785  -0.33717
 Alpha virt. eigenvalues --   -0.01619   0.05133   0.07168   0.08171   0.09747
 Alpha virt. eigenvalues --    0.11747   0.13485   0.15177   0.18003   0.18857
 Alpha virt. eigenvalues --    0.19810   0.21189   0.24643   0.26728   0.28574

 Mulliken charges:
               1
     1  C    0.172912
     2  O   -0.324951
     3  C   -0.049763
     4  C   -0.121062
     5  H    0.109677
     6  H    0.070421
     7  H    0.096772
     8  H    0.045995
 Sum of Mulliken charges =   0.00000

 Dipole moment (field-independent basis, Debye):
    X=             -3.2147    Y=              0.5864    Z=             -0.1596  Tot=              3.2716
 Quadrupole moment (field-independent basis, Debye-Ang):
   XX=            -27.0564   YY=            -22.1852   ZZ=            -25.2911
   XY=              0.9407   XZ=             -0.3241   YZ=              0.4116

 Normal termination of Gaussian 09 at Wed Aug 26 11:12:17 2020.
