 Gaussian 09, Revision D.01,
 Gaussian 09:  ES64L-G09RevD.01 24-Apr-2013

 --------------------
 #p B2PLYPD3/Def2QZVP
 --------------------

 --------
 acrolein
 --------
 Symbolic Z-matrix:
 Charge =  0 Multiplicity = 1

                         Standard orientation:
 ---------------------------------------------------------------------
 Center     Atomic      Atomic             Coordinates (Angstroms)
 Number     Number       Type             X           Y           Z
 ---------------------------------------------------------------------
      1          6           0       -0.675718    0.338552    0.019330
      2          8           0       -1.790304   -0.104070   -0.037980
      3          6           0        0.552815   -0.467728    0.053317
      4          6           0        1.776942    0.148058   -0.046781
      5          1           0        0.371428   -1.561336    0.071187
      6          1           0        1.870288    1.282990    0.040369
      7          1           0        2.719657   -0.427340   -0.068459
      8          1           0       -0.563175    1.424953    0.105546
 ---------------------------------------------------------------------

 SCF Done:  E(RB2PLYPD3) =  -191.609173240     A.U. after   13 cycles
 E2(B2PLYPD3) =    -0.2481378259D+00 E(B2PLYPD3) =    -0.19185731106583D+03

 The electronic state is 1-A.
 Alpha  occ. eigenvalues --  -19.72572 -10.71149 -10.67147 -10.65476  -1.20027
 Alpha  occ. eigenvalues --   -0.91819  -0.75040  -0.66561  -0.56176  -0.55671
 Alpha  occ. eigenvalues --   -0.50394  -0.47102  -0.46446  -0.34116  -0.33622
 Alpha virt. eigenvalues --   -0.02139   0.05556   0.07018   0.08223   0.09632
 Alpha virt. eigenvalues --    0.12220   0.13911   0.15375   0.17416   0.19412
 Alpha virt. eigenvalues --    0.19962   0.21204   0.24800   0.26533   0.28762

 Mulliken charges:
               1
     1  C    0.163839
     2  O   -0.345633
     3  C   -0.050118
     4  C   -0.129223
     5  H    0.106513
     6  H    0.087234
     7  H    0.103871
     8  H    0.063518
 Sum of Mulliken charges =   0.00000

 Dipole moment (field-independent basis, Debye):
    X=              3.4748    Y=              0.6985    Z=              0.1738  Tot=              3.5486
 Quadrupole moment (field-independent basis, Debye-Ang):
   XX=            -27.3624   YY=            -21.7308   ZZ=            -25.4489
   XY=             -0.7584   XZ=             -0.2831   YZ=              0.0545

 Normal termination of Gaussian 09 at Wed Aug 26 21:05:54 2020.
