 Gaussian 09, Revision D.01,
 Gaussian 09:  ES64L-G09RevD.01 24-Apr-2013

 --------------------
 #p B2PLYPD3/Def2QZVP
 --------------------

 --------
 acrolein
 --------
 Symbolic Z-matrix:
 Charge =  0 Multiplicity = 1

                         Standard orientation:
 ---------------------------------------------------------------------
 Center     Atomic      Atomic             Coordinates (Angstroms)
 Number     Number       Type             X           Y           Z
 ---------------------------------------------------------------------
      1          6           0        0.674904    0.353487   -0.012500
      2          8           0        1.787858   -0.121727    0.016193
      3          6           0       -0.560065   -0.439466   -0.016904
      4          6           0       -1.762407    0.138328    0.005765
      5          1           0       -0.405620   -1.539930    0.004732
      6          1           0       -1.842597    1.196131    0.081393
      7          1           0       -2.693696   -0.419075   -0.004283
      8          1           0        0.524456    1.422600   -0.069550
 ---------------------------------------------------------------------

 SCF Done:  E(RB2PLYPD3) =  -191.615784026     A.U. after   12 cycles
 E2(B2PLYPD3) =    -0.2470094433D+00 E(B2PLYPD3) =    -0.19186279346884D+03

 The electronic state is 1-A.
 Alpha  occ. eigenvalues --  -19.72798 -10.71295 -10.65379 -10.64642  -1.19532
 Alpha  occ. eigenvalues --   -0.92923  -0.75763  -0.67082  -0.56819  -0.56304
 Alpha  occ. eigenvalues --   -0.50760  -0.46804  -0.46558  -0.34641  -0.33909
 Alpha virt. eigenvalues --   -0.01839   0.05761   0.07206   0.08234   0.09757
 Alpha virt. eigenvalues --    0.12587   0.14042   0.15397   0.17350   0.19642
 Alpha virt. eigenvalues --    0.20119   0.21659   0.25465   0.26564   0.28755

 Mulliken charges:
               1
     1  C    0.157921
     2  O   -0.350607
     3  C   -0.038631
     4  C   -0.132591
     5  H    0.102174
     6  H    0.084295
     7  H    0.104025
     8  H    0.073413
 Sum of Mulliken charges =   0.00000

 Dipole moment (field-independent basis, Debye):
    X=             -3.4800    Y=              0.8069    Z=             -0.0032  Tot=              3.5723
 Quadrupole moment (field-independent basis, Debye-Ang):
   XX=            -27.3425   YY=            -21.7953   ZZ=            -25.1958
   XY=              0.8830   XZ=             -0.2099   YZ=              0.0580

 Normal termination of Gaussian 09 at Wed Aug 26 14:29:06 2020.
