 Gaussian 09, Revision D.01,
 Gaussian 09:  ES64L-G09RevD.01 24-Apr-2013

 --------------------
 #p B2PLYPD3/Def2QZVP
 --------------------

 --------
 acrolein
 --------
 Symbolic Z-matrix:
 Charge =  0 Multiplicity = 1

                         Standard orientation:
 ---------------------------------------------------------------------
 Center     Atomic      Atomic             Coordinates (Angstroms)
 Number     Number       Type             X           Y           Z
 ---------------------------------------------------------------------
      1          6           0       -0.672156    0.350518   -0.031481
      2          8           0       -1.794321   -0.126598    0.025077
      3          6           0        0.564070   -0.448851   -0.016701
      4          6           0        1.756548    0.140637    0.011766
      5          1           0        0.464231   -1.523926   -0.016759
      6          1           0        1.800401    1.210133    0.067078
      7          1           0        2.689895   -0.412370    0.011512
      8          1           0       -0.490727    1.485124   -0.043947
 ---------------------------------------------------------------------

 SCF Done:  E(RB2PLYPD3) =  -191.614831302     A.U. after   12 cycles
 E2(B2PLYPD3) =    -0.2479887173D+00 E(B2PLYPD3) =    -0.19186282001932D+03

 The electronic state is 1-A.
 Alpha  occ. eigenvalues --  -19.73071 -10.72297 -10.65384 -10.64427  -1.19054
 Alpha  occ. eigenvalues --   -0.93161  -0.75330  -0.66650  -0.56562  -0.56116
 Alpha  occ. eigenvalues --   -0.50497  -0.46968  -0.46563  -0.34759  -0.33918
 Alpha virt. eigenvalues --   -0.01902   0.05747   0.07033   0.08054   0.09771
 Alpha virt. eigenvalues --    0.12544   0.13877   0.15347   0.17334   0.19810
 Alpha virt. eigenvalues --    0.20049   0.21481   0.25443   0.26308   0.28910

 Mulliken charges:
               1
     1  C    0.157016
     2  O   -0.349326
     3  C   -0.033578
     4  C   -0.129380
     5  H    0.104345
     6  H    0.083114
     7  H    0.104124
     8  H    0.063685
 Sum of Mulliken charges =   0.00000

 Dipole moment (field-independent basis, Debye):
    X=              3.5258    Y=              0.7293    Z=             -0.0527  Tot=              3.6008
 Quadrupole moment (field-independent basis, Debye-Ang):
   XX=            -27.4383   YY=            -21.8308   ZZ=            -25.2637
   XY=             -0.9903   XZ=              0.2388   YZ=              0.0756

 Normal termination of Gaussian 09 at Wed Aug 26 21:17:28 2020.
