 Gaussian 09, Revision D.01,
 Gaussian 09:  ES64L-G09RevD.01 24-Apr-2013

 --------------------
 #p B2PLYPD3/Def2QZVP
 --------------------

 --------
 acrolein
 --------
 Symbolic Z-matrix:
 Charge =  0 Multiplicity = 1

                         Standard orientation:
 ---------------------------------------------------------------------
 Center     Atomic      Atomic             Coordinates (Angstroms)
 Number     Number       Type             X           Y           Z
 ---------------------------------------------------------------------
      1          6           0        0.681930    0.356159   -0.026192
      2          8           0        1.782223   -0.133492    0.022626
      3          6           0       -0.551272   -0.445531   -0.025322
      4          6           0       -1.751027    0.131244    0.006040
      5          1           0       -0.493950   -1.476430   -0.004701
      6          1           0       -1.844122    1.221899    0.023891
      7          1           0       -2.707175   -0.413240    0.071814
      8          1           0        0.509678    1.484474    0.000830
 ---------------------------------------------------------------------

 SCF Done:  E(RB2PLYPD3) =  -191.613620946     A.U. after   13 cycles
 E2(B2PLYPD3) =    -0.2470693438D+00 E(B2PLYPD3) =    -0.19186069028976D+03

 The electronic state is 1-A.
 Alpha  occ. eigenvalues --  -19.72985 -10.72031 -10.65608 -10.63817  -1.20001
 Alpha  occ. eigenvalues --   -0.92981  -0.74999  -0.67202  -0.56514  -0.56383
 Alpha  occ. eigenvalues --   -0.50691  -0.47077  -0.46725  -0.34680  -0.33913
 Alpha virt. eigenvalues --   -0.01631   0.05708   0.07264   0.08174   0.09695
 Alpha virt. eigenvalues --    0.12440   0.14022   0.15412   0.17827   0.19770
 Alpha virt. eigenvalues --    0.19883   0.21259   0.25524   0.26287   0.28790

 Mulliken charges:
               1
     1  C    0.155227
     2  O   -0.340969
     3  C   -0.041460
     4  C   -0.125777
     5  H    0.109631
     6  H    0.076925
     7  H    0.097869
     8  H    0.068555
 Sum of Mulliken charges =   0.00000

 Dipole moment (field-independent basis, Debye):
    X=             -3.4224    Y=              0.7526    Z=              0.0004  Tot=              3.5042
 Quadrupole moment (field-independent basis, Debye-Ang):
   XX=            -27.2245   YY=            -21.8754   ZZ=            -25.2100
   XY=              1.0407   XZ=             -0.3249   YZ=             -0.0113

 Normal termination of Gaussian 09 at Wed Aug 26 15:11:30 2020.
