 Gaussian 09, Revision D.01,
 Gaussian 09:  ES64L-G09RevD.01 24-Apr-2013

 --------------------
 #p B2PLYPD3/Def2QZVP
 --------------------

 --------
 acrolein
 --------
 Symbolic Z-matrix:
 Charge =  0 Multiplicity = 1

                         Standard orientation:
 ---------------------------------------------------------------------
 Center     Atomic      Atomic             Coordinates (Angstroms)
 Number     Number       Type             X           Y           Z
 ---------------------------------------------------------------------
      1          6           0        0.675782    0.318820   -0.099615
      2          8           0        1.799570   -0.075734    0.078798
      3          6           0       -0.550952   -0.501069   -0.030457
      4          6           0       -1.780096    0.128567    0.013727
      5          1           0       -0.386838   -1.488187   -0.069010
      6          1           0       -2.050443    1.419760    0.194329
      7          1           0       -2.589816   -0.409184    0.088967
      8          1           0        0.562131    1.405577   -0.146598
 ---------------------------------------------------------------------

 SCF Done:  E(RB2PLYPD3) =  -191.566126125     A.U. after   13 cycles
 E2(B2PLYPD3) =    -0.2487664164D+00 E(B2PLYPD3) =    -0.19181489254088D+03

 The electronic state is 1-A.
 Alpha  occ. eigenvalues --  -19.72517 -10.71032 -10.67549 -10.64972  -1.19753
 Alpha  occ. eigenvalues --   -0.92158  -0.76052  -0.67412  -0.57378  -0.55204
 Alpha  occ. eigenvalues --   -0.50788  -0.46659  -0.45778  -0.34141  -0.33433
 Alpha virt. eigenvalues --   -0.02366   0.04538   0.07433   0.07883   0.09336
 Alpha virt. eigenvalues --    0.11819   0.14040   0.15244   0.18045   0.18524
 Alpha virt. eigenvalues --    0.19974   0.21828   0.24335   0.26479   0.27761

 Mulliken charges:
               1
     1  C    0.167127
     2  O   -0.346566
     3  C   -0.065193
     4  C   -0.126017
     5  H    0.113610
     6  H    0.081251
     7  H    0.108981
     8  H    0.066806
 Sum of Mulliken charges =   0.00000

 Dipole moment (field-independent basis, Debye):
    X=             -3.5396    Y=              0.5329    Z=             -0.1682  Tot=              3.5834
 Quadrupole moment (field-independent basis, Debye-Ang):
   XX=            -27.3579   YY=            -21.6180   ZZ=            -25.3915
   XY=              0.4682   XZ=             -0.9239   YZ=              0.2919

 Normal termination of Gaussian 09 at Wed Aug 26 13:24:28 2020.
