 Gaussian 09, Revision D.01,
 Gaussian 09:  ES64L-G09RevD.01 24-Apr-2013

 --------------------
 #p B2PLYPD3/Def2QZVP
 --------------------

 --------
 acrolein
 --------
 Symbolic Z-matrix:
 Charge =  0 Multiplicity = 1

                         Standard orientation:
 ---------------------------------------------------------------------
 Center     Atomic      Atomic             Coordinates (Angstroms)
 Number     Number       Type             X           Y           Z
 ---------------------------------------------------------------------
      1          6           0       -0.683388    0.362810   -0.029298
      2          8           0       -1.792957   -0.128631    0.020236
      3          6           0        0.575082   -0.464838   -0.034902
      4          6           0        1.760810    0.137394   -0.002585
      5          1           0        0.437166   -1.498756    0.053742
      6          1           0        1.832611    1.194492    0.022566
      7          1           0        2.621320   -0.395740    0.106418
      8          1           0       -0.462471    1.516860    0.056099
 ---------------------------------------------------------------------

 SCF Done:  E(RB2PLYPD3) =  -191.608053419     A.U. after   13 cycles
 E2(B2PLYPD3) =    -0.2476081478D+00 E(B2PLYPD3) =    -0.19185566156721D+03

 The electronic state is 1-A.
 Alpha  occ. eigenvalues --  -19.73357 -10.72743 -10.64340 -10.64194  -1.19574
 Alpha  occ. eigenvalues --   -0.92951  -0.75353  -0.66786  -0.57192  -0.55823
 Alpha  occ. eigenvalues --   -0.50965  -0.47772  -0.46630  -0.34736  -0.33738
 Alpha virt. eigenvalues --   -0.01567   0.05835   0.07156   0.07817   0.09833
 Alpha virt. eigenvalues --    0.12732   0.13772   0.15350   0.17413   0.19794
 Alpha virt. eigenvalues --    0.19956   0.21985   0.25069   0.26706   0.28508

 Mulliken charges:
               1
     1  C    0.163058
     2  O   -0.342708
     3  C   -0.046078
     4  C   -0.126748
     5  H    0.109416
     6  H    0.082547
     7  H    0.100552
     8  H    0.059959
 Sum of Mulliken charges =   0.00000

 Dipole moment (field-independent basis, Debye):
    X=              3.3856    Y=              0.7210    Z=              0.1062  Tot=              3.4632
 Quadrupole moment (field-independent basis, Debye-Ang):
   XX=            -27.4677   YY=            -21.8054   ZZ=            -25.1901
   XY=             -0.8066   XZ=              0.4362   YZ=             -0.0975

 Normal termination of Gaussian 09 at Wed Aug 26 09:14:40 2020.
