 Gaussian 09, Revision D.01,
 Gaussian 09:  ES64L-G09RevD.01 24-Apr-2013

 --------------------
 #p B2PLYPD3/Def2QZVP
 --------------------

 --------
 acrolein
 --------
 Symbolic Z-matrix:
 Charge =  0 Multiplicity = 1

                         Standard orientation:
 ---------------------------------------------------------------------
 Center     Atomic      Atomic             Coordinates (Angstroms)
 Number     Number       Type             X           Y           Z
 ---------------------------------------------------------------------
      1          6           0        0.677344    0.351959    0.015341
      2          8           0        1.787354   -0.130694   -0.015345
      3          6           0       -0.555671   -0.451905   -0.003028
      4          6           0       -1.754717    0.138707   -0.000493
      5          1           0       -0.489268   -1.464760    0.056905
      6          1           0       -1.822310    1.232096   -0.060115
      7          1           0       -2.690378   -0.437500   -0.010173
      8          1           0        0.501389    1.483146    0.065219
 ---------------------------------------------------------------------

 SCF Done:  E(RB2PLYPD3) =  -191.612204889     A.U. after   13 cycles
 E2(B2PLYPD3) =    -0.2474286612D+00 E(B2PLYPD3) =    -0.19185963355043D+03

 The electronic state is 1-A.
 Alpha  occ. eigenvalues --  -19.72980 -10.72095 -10.65741 -10.63752  -1.19632
 Alpha  occ. eigenvalues --   -0.93036  -0.75001  -0.67351  -0.56531  -0.56131
 Alpha  occ. eigenvalues --   -0.50518  -0.47324  -0.46800  -0.34631  -0.33870
 Alpha virt. eigenvalues --   -0.01752   0.05710   0.07232   0.08055   0.09737
 Alpha virt. eigenvalues --    0.12474   0.13783   0.15321   0.17887   0.19633
 Alpha virt. eigenvalues --    0.19974   0.21300   0.25314   0.26402   0.28870

 Mulliken charges:
               1
     1  C    0.154893
     2  O   -0.344474
     3  C   -0.041427
     4  C   -0.127733
     5  H    0.110725
     6  H    0.081823
     7  H    0.099533
     8  H    0.066659
 Sum of Mulliken charges =   0.00000

 Dipole moment (field-independent basis, Debye):
    X=             -3.4603    Y=              0.7241    Z=              0.0667  Tot=              3.5359
 Quadrupole moment (field-independent basis, Debye-Ang):
   XX=            -27.4043   YY=            -21.8085   ZZ=            -25.2282
   XY=              1.0669   XZ=              0.1543   YZ=             -0.1272

 Normal termination of Gaussian 09 at Wed Aug 26 18:43:30 2020.
