 Gaussian 09, Revision D.01,
 Gaussian 09:  ES64L-G09RevD.01 24-Apr-2013

 --------------------
 #p B2PLYPD3/Def2QZVP
 --------------------

 --------
 acrolein
 --------
 Symbolic Z-matrix:
 Charge =  0 Multiplicity = 1

                         Standard orientation:
 ---------------------------------------------------------------------
 Center     Atomic      Atomic             Coordinates (Angstroms)
 Number     Number       Type             X           Y           Z
 ---------------------------------------------------------------------
      1          6           0        0.672331    0.339707   -0.023951
      2          8           0        1.781689   -0.125710    0.014316
      3          6           0       -0.550739   -0.436484    0.003328
      4          6           0       -1.750785    0.144108   -0.003790
      5          1           0       -0.462224   -1.506804   -0.013902
      6          1           0       -1.810413    1.176168    0.079380
      7          1           0       -2.710766   -0.433580   -0.005587
      8          1           0        0.505047    1.485912   -0.027947
 ---------------------------------------------------------------------

 SCF Done:  E(RB2PLYPD3) =  -191.612513357     A.U. after   12 cycles
 E2(B2PLYPD3) =    -0.2471669879D+00 E(B2PLYPD3) =    -0.19185968034467D+03

 The electronic state is 1-A.
 Alpha  occ. eigenvalues --  -19.72916 -10.71865 -10.65471 -10.64172  -1.20046
 Alpha  occ. eigenvalues --   -0.93368  -0.75561  -0.66715  -0.56725  -0.56324
 Alpha  occ. eigenvalues --   -0.50401  -0.47242  -0.47061  -0.34758  -0.33797
 Alpha virt. eigenvalues --   -0.01907   0.05757   0.07020   0.08452   0.09802
 Alpha virt. eigenvalues --    0.12539   0.13910   0.15318   0.17433   0.19856
 Alpha virt. eigenvalues --    0.20214   0.21411   0.25467   0.26255   0.28796

 Mulliken charges:
               1
     1  C    0.154062
     2  O   -0.341522
     3  C   -0.026846
     4  C   -0.130452
     5  H    0.102972
     6  H    0.088112
     7  H    0.100817
     8  H    0.052858
 Sum of Mulliken charges =   0.00000

 Dipole moment (field-independent basis, Debye):
    X=             -3.4953    Y=              0.6801    Z=             -0.0162  Tot=              3.5609
 Quadrupole moment (field-independent basis, Debye-Ang):
   XX=            -27.1869   YY=            -21.9842   ZZ=            -25.1839
   XY=              0.9650   XZ=             -0.1649   YZ=              0.1187

 Normal termination of Gaussian 09 at Wed Aug 26 15:12:53 2020.
