 Gaussian 09, Revision D.01,
 Gaussian 09:  ES64L-G09RevD.01 24-Apr-2013

 --------------------
 #p B2PLYPD3/Def2QZVP
 --------------------

 --------
 acrolein
 --------
 Symbolic Z-matrix:
 Charge =  0 Multiplicity = 1

                         Standard orientation:
 ---------------------------------------------------------------------
 Center     Atomic      Atomic             Coordinates (Angstroms)
 Number     Number       Type             X           Y           Z
 ---------------------------------------------------------------------
      1          6           0       -0.638278   -0.328170    0.038560
      2          8           0       -1.805387    0.101795   -0.066247
      3          6           0        0.590990    0.454394    0.101733
      4          6           0        1.703122   -0.163096   -0.078914
      5          1           0        0.511006    1.514127    0.095829
      6          1           0        1.824223   -1.208765    0.081892
      7          1           0        2.705216    0.377396   -0.176172
      8          1           0       -0.532356   -1.275887    0.160148
 ---------------------------------------------------------------------

 SCF Done:  E(RB2PLYPD3) =  -191.589198807     A.U. after   14 cycles
 E2(B2PLYPD3) =    -0.2474754633D+00 E(B2PLYPD3) =    -0.19183667427016D+03

 The electronic state is 1-A.
 Alpha  occ. eigenvalues --  -19.72438 -10.70313 -10.65427 -10.63855  -1.17078
 Alpha  occ. eigenvalues --   -0.94958  -0.76476  -0.69256  -0.57751  -0.56249
 Alpha  occ. eigenvalues --   -0.50522  -0.46577  -0.45281  -0.35434  -0.33892
 Alpha virt. eigenvalues --   -0.01804   0.05532   0.06984   0.07918   0.09551
 Alpha virt. eigenvalues --    0.12749   0.14131   0.15237   0.17574   0.19801
 Alpha virt. eigenvalues --    0.20299   0.21377   0.24228   0.26794   0.28252

 Mulliken charges:
               1
     1  C    0.153129
     2  O   -0.376167
     3  C   -0.031253
     4  C   -0.111892
     5  H    0.108246
     6  H    0.084738
     7  H    0.082884
     8  H    0.090315
 Sum of Mulliken charges =   0.00000

 Dipole moment (field-independent basis, Debye):
    X=              3.7889    Y=             -0.8112    Z=              0.2885  Tot=              3.8855
 Quadrupole moment (field-independent basis, Debye-Ang):
   XX=            -27.8763   YY=            -21.6513   ZZ=            -24.8886
   XY=              0.8037   XZ=             -0.5731   YZ=             -0.1671

 Normal termination of Gaussian 09 at Wed Aug 26 13:31:30 2020.
