 Gaussian 09, Revision D.01,
 Gaussian 09:  ES64L-G09RevD.01 24-Apr-2013

 --------------------
 #p B2PLYPD3/Def2QZVP
 --------------------

 --------
 acrolein
 --------
 Symbolic Z-matrix:
 Charge =  0 Multiplicity = 1

                         Standard orientation:
 ---------------------------------------------------------------------
 Center     Atomic      Atomic             Coordinates (Angstroms)
 Number     Number       Type             X           Y           Z
 ---------------------------------------------------------------------
      1          6           0       -0.665178    0.356216   -0.005658
      2          8           0       -1.790055   -0.108162   -0.031647
      3          6           0        0.557722   -0.454315    0.073035
      4          6           0        1.769234    0.134084   -0.045170
      5          1           0        0.330885   -1.580540    0.051886
      6          1           0        1.898009    1.263211    0.084181
      7          1           0        2.758114   -0.379607   -0.126029
      8          1           0       -0.637235    1.346324    0.109900
 ---------------------------------------------------------------------

 SCF Done:  E(RB2PLYPD3) =  -191.595431209     A.U. after   13 cycles
 E2(B2PLYPD3) =    -0.2482384193D+00 E(B2PLYPD3) =    -0.19184366962797D+03

 The electronic state is 1-A.
 Alpha  occ. eigenvalues --  -19.72298 -10.70273 -10.67046 -10.65712  -1.19002
 Alpha  occ. eigenvalues --   -0.92174  -0.75486  -0.67887  -0.56848  -0.55323
 Alpha  occ. eigenvalues --   -0.50381  -0.46469  -0.45335  -0.34386  -0.33724
 Alpha virt. eigenvalues --   -0.02135   0.05465   0.07054   0.07892   0.09521
 Alpha virt. eigenvalues --    0.12139   0.14170   0.15369   0.17294   0.19400
 Alpha virt. eigenvalues --    0.19933   0.20964   0.24626   0.26972   0.28970

 Mulliken charges:
               1
     1  C    0.176483
     2  O   -0.361215
     3  C   -0.057349
     4  C   -0.119439
     5  H    0.106339
     6  H    0.079280
     7  H    0.098923
     8  H    0.076978
 Sum of Mulliken charges =   0.00000

 Dipole moment (field-independent basis, Debye):
    X=              3.5460    Y=              0.8600    Z=              0.1104  Tot=              3.6504
 Quadrupole moment (field-independent basis, Debye-Ang):
   XX=            -27.2966   YY=            -21.7192   ZZ=            -25.3303
   XY=             -0.7759   XZ=             -0.3713   YZ=              0.1791

 Normal termination of Gaussian 09 at Wed Aug 26 12:46:51 2020.
