 Gaussian 09, Revision D.01,
 Gaussian 09:  ES64L-G09RevD.01 24-Apr-2013

 --------------------
 #p B2PLYPD3/Def2QZVP
 --------------------

 --------
 acrolein
 --------
 Symbolic Z-matrix:
 Charge =  0 Multiplicity = 1

                         Standard orientation:
 ---------------------------------------------------------------------
 Center     Atomic      Atomic             Coordinates (Angstroms)
 Number     Number       Type             X           Y           Z
 ---------------------------------------------------------------------
      1          6           0       -0.673572    0.365668   -0.026228
      2          8           0       -1.790541   -0.138302    0.034524
      3          6           0        0.566029   -0.455974   -0.067224
      4          6           0        1.751690    0.138579    0.011060
      5          1           0        0.485069   -1.472078    0.061167
      6          1           0        1.824783    1.246866    0.080555
      7          1           0        2.666245   -0.450542    0.114178
      8          1           0       -0.516655    1.492527   -0.037738
 ---------------------------------------------------------------------

 SCF Done:  E(RB2PLYPD3) =  -191.610053022     A.U. after   13 cycles
 E2(B2PLYPD3) =    -0.2482381792D+00 E(B2PLYPD3) =    -0.19185829120108D+03

 The electronic state is 1-A.
 Alpha  occ. eigenvalues --  -19.72995 -10.72381 -10.65711 -10.63929  -1.18658
 Alpha  occ. eigenvalues --   -0.93061  -0.74757  -0.67270  -0.56473  -0.55864
 Alpha  occ. eigenvalues --   -0.50341  -0.47158  -0.46171  -0.34714  -0.33889
 Alpha virt. eigenvalues --   -0.01744   0.05628   0.07147   0.07657   0.09742
 Alpha virt. eigenvalues --    0.12402   0.13595   0.15295   0.17909   0.19437
 Alpha virt. eigenvalues --    0.19880   0.21466   0.25023   0.26414   0.28842

 Mulliken charges:
               1
     1  C    0.155918
     2  O   -0.353070
     3  C   -0.048685
     4  C   -0.119758
     5  H    0.112444
     6  H    0.079925
     7  H    0.097875
     8  H    0.075352
 Sum of Mulliken charges =   0.00000

 Dipole moment (field-independent basis, Debye):
    X=              3.4801    Y=              0.8065    Z=              0.1092  Tot=              3.5740
 Quadrupole moment (field-independent basis, Debye-Ang):
   XX=            -27.6971   YY=            -21.6509   ZZ=            -25.2636
   XY=             -1.1430   XZ=              0.6295   YZ=             -0.1072

 Normal termination of Gaussian 09 at Wed Aug 26 09:30:30 2020.
