 Gaussian 09, Revision D.01,
 Gaussian 09:  ES64L-G09RevD.01 24-Apr-2013

 --------------------
 #p B2PLYPD3/Def2QZVP
 --------------------

 --------
 acrolein
 --------
 Symbolic Z-matrix:
 Charge =  0 Multiplicity = 1

                         Standard orientation:
 ---------------------------------------------------------------------
 Center     Atomic      Atomic             Coordinates (Angstroms)
 Number     Number       Type             X           Y           Z
 ---------------------------------------------------------------------
      1          6           0        0.680693    0.391930    0.033993
      2          8           0        1.776636   -0.151464   -0.062342
      3          6           0       -0.546763   -0.458870    0.063799
      4          6           0       -1.717067    0.133578   -0.086111
      5          1           0       -0.552346   -1.421470    0.180752
      6          1           0       -1.837598    1.176846   -0.060375
      7          1           0       -2.736878   -0.433233    0.021878
      8          1           0        0.412551    1.489741    0.286395
 ---------------------------------------------------------------------

 SCF Done:  E(RB2PLYPD3) =  -191.588393711     A.U. after   13 cycles
 E2(B2PLYPD3) =    -0.2486808949D+00 E(B2PLYPD3) =    -0.19183707460636D+03

 The electronic state is 1-A.
 Alpha  occ. eigenvalues --  -19.73496 -10.73063 -10.65162 -10.63022  -1.19038
 Alpha  occ. eigenvalues --   -0.93346  -0.74306  -0.68609  -0.56267  -0.55833
 Alpha  occ. eigenvalues --   -0.51087  -0.46561  -0.46084  -0.34716  -0.34015
 Alpha virt. eigenvalues --   -0.01598   0.05572   0.06481   0.07926   0.09646
 Alpha virt. eigenvalues --    0.12543   0.13694   0.15335   0.18276   0.19041
 Alpha virt. eigenvalues --    0.20146   0.21040   0.24976   0.26497   0.28130

 Mulliken charges:
               1
     1  C    0.158534
     2  O   -0.343146
     3  C   -0.046658
     4  C   -0.116047
     5  H    0.115253
     6  H    0.073274
     7  H    0.074001
     8  H    0.084790
 Sum of Mulliken charges =   0.00000

 Dipole moment (field-independent basis, Debye):
    X=             -3.2993    Y=              0.8961    Z=              0.4262  Tot=              3.4453
 Quadrupole moment (field-independent basis, Debye-Ang):
   XX=            -27.7131   YY=            -21.7622   ZZ=            -25.1604
   XY=              0.9685   XZ=              0.1737   YZ=             -0.1377

 Normal termination of Gaussian 09 at Wed Aug 26 12:17:27 2020.
