 Gaussian 09, Revision D.01,
 Gaussian 09:  ES64L-G09RevD.01 24-Apr-2013

 --------------------
 #p B2PLYPD3/Def2QZVP
 --------------------

 --------
 acrolein
 --------
 Symbolic Z-matrix:
 Charge =  0 Multiplicity = 1

                         Standard orientation:
 ---------------------------------------------------------------------
 Center     Atomic      Atomic             Coordinates (Angstroms)
 Number     Number       Type             X           Y           Z
 ---------------------------------------------------------------------
      1          6           0       -0.656505    0.349922   -0.045099
      2          8           0       -1.803582   -0.126389    0.061984
      3          6           0        0.591018   -0.415779   -0.111869
      4          6           0        1.740505    0.141929    0.024246
      5          1           0        0.423010   -1.466281    0.017574
      6          1           0        1.787867    1.111003    0.063434
      7          1           0        2.649646   -0.440835    0.269867
      8          1           0       -0.481979    1.350796   -0.050417
 ---------------------------------------------------------------------

 SCF Done:  E(RB2PLYPD3) =  -191.592272087     A.U. after   13 cycles
 E2(B2PLYPD3) =    -0.2472949803D+00 E(B2PLYPD3) =    -0.19183956706706D+03

 The electronic state is 1-A.
 Alpha  occ. eigenvalues --  -19.72974 -10.71158 -10.64050 -10.63513  -1.17413
 Alpha  occ. eigenvalues --   -0.95028  -0.77020  -0.68946  -0.57920  -0.56596
 Alpha  occ. eigenvalues --   -0.50758  -0.46700  -0.45862  -0.35486  -0.34112
 Alpha virt. eigenvalues --   -0.02010   0.05714   0.07370   0.07993   0.09864
 Alpha virt. eigenvalues --    0.12913   0.13734   0.15238   0.17757   0.19453
 Alpha virt. eigenvalues --    0.20335   0.22106   0.24660   0.26997   0.28495

 Mulliken charges:
               1
     1  C    0.150334
     2  O   -0.372392
     3  C   -0.023373
     4  C   -0.121284
     5  H    0.101146
     6  H    0.084283
     7  H    0.098580
     8  H    0.082706
 Sum of Mulliken charges =   0.00000

 Dipole moment (field-independent basis, Debye):
    X=              3.6562    Y=              0.9030    Z=              0.0839  Tot=              3.7670
 Quadrupole moment (field-independent basis, Debye-Ang):
   XX=            -27.7700   YY=            -21.8625   ZZ=            -24.7986
   XY=             -0.9091   XZ=              1.0641   YZ=             -0.1938

 Normal termination of Gaussian 09 at Wed Aug 26 12:57:22 2020.
