 Gaussian 09, Revision D.01,
 Gaussian 09:  ES64L-G09RevD.01 24-Apr-2013

 --------------------
 #p B2PLYPD3/Def2QZVP
 --------------------

 --------
 acrolein
 --------
 Symbolic Z-matrix:
 Charge =  0 Multiplicity = 1

                         Standard orientation:
 ---------------------------------------------------------------------
 Center     Atomic      Atomic             Coordinates (Angstroms)
 Number     Number       Type             X           Y           Z
 ---------------------------------------------------------------------
      1          6           0        0.697421    0.373970   -0.009391
      2          8           0        1.786552   -0.147077    0.045515
      3          6           0       -0.556691   -0.454385   -0.102220
      4          6           0       -1.765139    0.128052    0.050791
      5          1           0       -0.466083   -1.521066   -0.030348
      6          1           0       -1.833977    1.187685   -0.060256
      7          1           0       -2.725886   -0.392197    0.181935
      8          1           0        0.479985    1.616373   -0.090525
 ---------------------------------------------------------------------

 SCF Done:  E(RB2PLYPD3) =  -191.598711076     A.U. after   13 cycles
 E2(B2PLYPD3) =    -0.2494894908D+00 E(B2PLYPD3) =    -0.19184820056665D+03

 The electronic state is 1-A.
 Alpha  occ. eigenvalues --  -19.73670 -10.73739 -10.65613 -10.64871  -1.20232
 Alpha  occ. eigenvalues --   -0.92126  -0.74362  -0.65675  -0.56425  -0.55261
 Alpha  occ. eigenvalues --   -0.50503  -0.47231  -0.46607  -0.34369  -0.33763
 Alpha virt. eigenvalues --   -0.01806   0.05620   0.06704   0.07505   0.09739
 Alpha virt. eigenvalues --    0.12185   0.13523   0.15193   0.17256   0.19718
 Alpha virt. eigenvalues --    0.20151   0.21430   0.24248   0.26067   0.28483

 Mulliken charges:
               1
     1  C    0.169041
     2  O   -0.329205
     3  C   -0.050705
     4  C   -0.122367
     5  H    0.108816
     6  H    0.080245
     7  H    0.098815
     8  H    0.045359
 Sum of Mulliken charges =   0.00000

 Dipole moment (field-independent basis, Debye):
    X=             -3.3447    Y=              0.6987    Z=             -0.0343  Tot=              3.4171
 Quadrupole moment (field-independent basis, Debye-Ang):
   XX=            -27.0712   YY=            -22.0870   ZZ=            -25.4553
   XY=              0.9422   XZ=             -0.5865   YZ=             -0.2246

 Normal termination of Gaussian 09 at Wed Aug 26 13:44:13 2020.
