 Gaussian 09, Revision D.01,
 Gaussian 09:  ES64L-G09RevD.01 24-Apr-2013

 --------------------
 #p B2PLYPD3/Def2QZVP
 --------------------

 --------
 acrolein
 --------
 Symbolic Z-matrix:
 Charge =  0 Multiplicity = 1

                         Standard orientation:
 ---------------------------------------------------------------------
 Center     Atomic      Atomic             Coordinates (Angstroms)
 Number     Number       Type             X           Y           Z
 ---------------------------------------------------------------------
      1          6           0        0.661194   -0.353161   -0.055929
      2          8           0        1.822027    0.096211    0.062236
      3          6           0       -0.609540    0.488895   -0.055423
      4          6           0       -1.780576   -0.153374    0.024268
      5          1           0       -0.459583    1.639909   -0.125335
      6          1           0       -1.849794   -1.318030    0.013823
      7          1           0       -2.403672    0.354568    0.250589
      8          1           0        0.510363   -1.340292   -0.114455
 ---------------------------------------------------------------------

 SCF Done:  E(RB2PLYPD3) =  -191.524136148     A.U. after   13 cycles
 E2(B2PLYPD3) =    -0.2493370008D+00 E(B2PLYPD3) =    -0.19177347314877D+03

 The electronic state is 1-A.
 Alpha  occ. eigenvalues --  -19.72907 -10.71427 -10.65939 -10.63701  -1.17099
 Alpha  occ. eigenvalues --   -0.93823  -0.77925  -0.67648  -0.58356  -0.55435
 Alpha  occ. eigenvalues --   -0.50330  -0.47464  -0.44983  -0.34685  -0.33733
 Alpha virt. eigenvalues --   -0.02075   0.05640   0.06972   0.07178   0.09500
 Alpha virt. eigenvalues --    0.12318   0.14203   0.15211   0.17112   0.19529
 Alpha virt. eigenvalues --    0.19744   0.22896   0.24405   0.26648   0.28537

 Mulliken charges:
               1
     1  C    0.157750
     2  O   -0.368465
     3  C   -0.035040
     4  C   -0.224315
     5  H    0.098623
     6  H    0.092546
     7  H    0.181665
     8  H    0.097237
 Sum of Mulliken charges =   0.00000

 Dipole moment (field-independent basis, Debye):
    X=             -3.5569    Y=             -0.8205    Z=             -0.1313  Tot=              3.6527
 Quadrupole moment (field-independent basis, Debye-Ang):
   XX=            -28.5653   YY=            -21.0663   ZZ=            -25.1305
   XY=             -0.7053   XZ=             -0.8944   YZ=              0.0251

 Normal termination of Gaussian 09 at Wed Aug 26 11:21:26 2020.
