 Gaussian 09, Revision D.01,
 Gaussian 09:  ES64L-G09RevD.01 24-Apr-2013

 --------------------
 #p B2PLYPD3/Def2QZVP
 --------------------

 --------
 acrolein
 --------
 Symbolic Z-matrix:
 Charge =  0 Multiplicity = 1

                         Standard orientation:
 ---------------------------------------------------------------------
 Center     Atomic      Atomic             Coordinates (Angstroms)
 Number     Number       Type             X           Y           Z
 ---------------------------------------------------------------------
      1          6           0        0.674529    0.358504   -0.008397
      2          8           0        1.779705   -0.132850    0.017042
      3          6           0       -0.555614   -0.435662   -0.028542
      4          6           0       -1.750981    0.144681    0.006156
      5          1           0       -0.434284   -1.527528   -0.014932
      6          1           0       -1.794250    1.152657    0.001296
      7          1           0       -2.741317   -0.419878    0.084453
      8          1           0        0.524605    1.452402   -0.022460
 ---------------------------------------------------------------------

 SCF Done:  E(RB2PLYPD3) =  -191.610345386     A.U. after   12 cycles
 E2(B2PLYPD3) =    -0.2470279008D+00 E(B2PLYPD3) =    -0.19185737328634D+03

 The electronic state is 1-A.
 Alpha  occ. eigenvalues --  -19.72837 -10.71585 -10.65185 -10.64364  -1.19642
 Alpha  occ. eigenvalues --   -0.93215  -0.75457  -0.67289  -0.57147  -0.55934
 Alpha  occ. eigenvalues --   -0.50446  -0.46944  -0.46695  -0.34700  -0.33941
 Alpha virt. eigenvalues --   -0.01714   0.05720   0.07095   0.08229   0.09795
 Alpha virt. eigenvalues --    0.12501   0.14044   0.15364   0.17354   0.19850
 Alpha virt. eigenvalues --    0.20234   0.21473   0.25557   0.26329   0.28945

 Mulliken charges:
               1
     1  C    0.149675
     2  O   -0.347983
     3  C   -0.030867
     4  C   -0.135161
     5  H    0.104370
     6  H    0.087479
     7  H    0.099909
     8  H    0.072580
 Sum of Mulliken charges =   0.00000

 Dipole moment (field-independent basis, Debye):
    X=             -3.4404    Y=              0.8314    Z=              0.0074  Tot=              3.5395
 Quadrupole moment (field-independent basis, Debye-Ang):
   XX=            -27.3118   YY=            -21.8217   ZZ=            -25.1817
   XY=              1.0124   XZ=             -0.2968   YZ=             -0.0472

 Normal termination of Gaussian 09 at Wed Aug 26 16:01:45 2020.
