 Gaussian 09, Revision D.01,
 Gaussian 09:  ES64L-G09RevD.01 24-Apr-2013

 --------------------
 #p B2PLYPD3/Def2QZVP
 --------------------

 --------
 acrolein
 --------
 Symbolic Z-matrix:
 Charge =  0 Multiplicity = 1

                         Standard orientation:
 ---------------------------------------------------------------------
 Center     Atomic      Atomic             Coordinates (Angstroms)
 Number     Number       Type             X           Y           Z
 ---------------------------------------------------------------------
      1          6           0       -0.658007    0.354739   -0.049562
      2          8           0       -1.788923   -0.117260    0.042450
      3          6           0        0.574504   -0.466160   -0.031459
      4          6           0        1.740308    0.144736    0.007103
      5          1           0        0.430019   -1.558863   -0.015038
      6          1           0        1.835620    1.264082    0.127535
      7          1           0        2.656463   -0.393506    0.066625
      8          1           0       -0.551548    1.426473   -0.075212
 ---------------------------------------------------------------------

 SCF Done:  E(RB2PLYPD3) =  -191.612085143     A.U. after   12 cycles
 E2(B2PLYPD3) =    -0.2477418078D+00 E(B2PLYPD3) =    -0.19185982695095D+03

 The electronic state is 1-A.
 Alpha  occ. eigenvalues --  -19.72638 -10.71487 -10.65495 -10.64698  -1.18333
 Alpha  occ. eigenvalues --   -0.93226  -0.75232  -0.67081  -0.56565  -0.56218
 Alpha  occ. eigenvalues --   -0.50369  -0.46404  -0.46044  -0.34919  -0.33805
 Alpha virt. eigenvalues --   -0.01630   0.05640   0.07094   0.07795   0.09676
 Alpha virt. eigenvalues --    0.12498   0.14143   0.15289   0.17298   0.19522
 Alpha virt. eigenvalues --    0.20018   0.21648   0.25253   0.26442   0.28857

 Mulliken charges:
               1
     1  C    0.157835
     2  O   -0.360357
     3  C   -0.046689
     4  C   -0.120303
     5  H    0.108413
     6  H    0.079703
     7  H    0.099473
     8  H    0.081926
 Sum of Mulliken charges =   0.00000

 Dipole moment (field-independent basis, Debye):
    X=              3.5326    Y=              0.7914    Z=             -0.0303  Tot=              3.6202
 Quadrupole moment (field-independent basis, Debye-Ang):
   XX=            -27.7466   YY=            -21.5129   ZZ=            -25.2233
   XY=             -0.9192   XZ=              0.5697   YZ=              0.1013

 Normal termination of Gaussian 09 at Wed Aug 26 08:27:09 2020.
