 Gaussian 09, Revision D.01,
 Gaussian 09:  ES64L-G09RevD.01 24-Apr-2013

 --------------------
 #p B2PLYPD3/Def2QZVP
 --------------------

 --------
 acrolein
 --------
 Symbolic Z-matrix:
 Charge =  0 Multiplicity = 1

                         Standard orientation:
 ---------------------------------------------------------------------
 Center     Atomic      Atomic             Coordinates (Angstroms)
 Number     Number       Type             X           Y           Z
 ---------------------------------------------------------------------
      1          6           0       -0.704535    0.355289    0.093026
      2          8           0       -1.781354   -0.137399   -0.078284
      3          6           0        0.517866   -0.396244    0.088434
      4          6           0        1.782997    0.102962   -0.051316
      5          1           0        0.410401   -1.480814    0.039282
      6          1           0        1.858951    1.151595   -0.019694
      7          1           0        2.820069   -0.438557   -0.154557
      8          1           0       -0.416554    1.494929   -0.019626
 ---------------------------------------------------------------------

 SCF Done:  E(RB2PLYPD3) =  -191.594416437     A.U. after   13 cycles
 E2(B2PLYPD3) =    -0.2492164249D+00 E(B2PLYPD3) =    -0.19184363286155D+03

 The electronic state is 1-A.
 Alpha  occ. eigenvalues --  -19.73561 -10.72347 -10.66816 -10.64620  -1.20971
 Alpha  occ. eigenvalues --   -0.92467  -0.75969  -0.66073  -0.56688  -0.55641
 Alpha  occ. eigenvalues --   -0.50769  -0.47833  -0.45377  -0.34503  -0.33779
 Alpha virt. eigenvalues --   -0.02667   0.05409   0.07097   0.08235   0.09807
 Alpha virt. eigenvalues --    0.12180   0.13849   0.15402   0.17661   0.19545
 Alpha virt. eigenvalues --    0.19841   0.21296   0.24494   0.26431   0.28654

 Mulliken charges:
               1
     1  C    0.167295
     2  O   -0.330463
     3  C   -0.023332
     4  C   -0.133658
     5  H    0.098498
     6  H    0.075734
     7  H    0.107449
     8  H    0.038475
 Sum of Mulliken charges =   0.00000

 Dipole moment (field-independent basis, Debye):
    X=              3.4546    Y=              0.7017    Z=              0.1383  Tot=              3.5278
 Quadrupole moment (field-independent basis, Debye-Ang):
   XX=            -26.4173   YY=            -22.6014   ZZ=            -25.3586
   XY=             -0.8630   XZ=             -0.8072   YZ=              0.0534

 Normal termination of Gaussian 09 at Wed Aug 26 14:57:42 2020.
