 Gaussian 09, Revision D.01,
 Gaussian 09:  ES64L-G09RevD.01 24-Apr-2013

 --------------------
 #p B2PLYPD3/Def2QZVP
 --------------------

 --------
 acrolein
 --------
 Symbolic Z-matrix:
 Charge =  0 Multiplicity = 1

                         Standard orientation:
 ---------------------------------------------------------------------
 Center     Atomic      Atomic             Coordinates (Angstroms)
 Number     Number       Type             X           Y           Z
 ---------------------------------------------------------------------
      1          6           0       -0.688966    0.385772    0.009018
      2          8           0       -1.737492   -0.173492   -0.045907
      3          6           0        0.527862   -0.407266    0.093583
      4          6           0        1.764660    0.135251   -0.056419
      5          1           0        0.515500   -1.493165    0.079669
      6          1           0        1.709571    1.126663    0.095705
      7          1           0        2.675555   -0.439298   -0.169077
      8          1           0       -0.622027    1.511189    0.083863
 ---------------------------------------------------------------------

 SCF Done:  E(RB2PLYPD3) =  -191.599655636     A.U. after   14 cycles
 E2(B2PLYPD3) =    -0.2469723911D+00 E(B2PLYPD3) =    -0.19184662802725D+03

 The electronic state is 1-A.
 Alpha  occ. eigenvalues --  -19.72636 -10.71662 -10.64495 -10.64081  -1.21006
 Alpha  occ. eigenvalues --   -0.92706  -0.75275  -0.67005  -0.57813  -0.56212
 Alpha  occ. eigenvalues --   -0.50984  -0.47840  -0.45929  -0.34027  -0.33749
 Alpha virt. eigenvalues --   -0.01699   0.06004   0.06966   0.08111   0.09951
 Alpha virt. eigenvalues --    0.12274   0.14197   0.15259   0.17423   0.19733
 Alpha virt. eigenvalues --    0.20499   0.21503   0.24719   0.26115   0.29138

 Mulliken charges:
               1
     1  C    0.148478
     2  O   -0.329354
     3  C   -0.043816
     4  C   -0.138490
     5  H    0.100338
     6  H    0.081690
     7  H    0.107374
     8  H    0.073781
 Sum of Mulliken charges =   0.00000

 Dipole moment (field-independent basis, Debye):
    X=              3.2081    Y=              0.8903    Z=              0.1243  Tot=              3.3317
 Quadrupole moment (field-independent basis, Debye-Ang):
   XX=            -27.0200   YY=            -21.8433   ZZ=            -25.1528
   XY=             -1.8350   XZ=             -0.5106   YZ=              0.2106

 Normal termination of Gaussian 09 at Wed Aug 26 12:31:23 2020.
