 Gaussian 09, Revision D.01,
 Gaussian 09:  ES64L-G09RevD.01 24-Apr-2013

 --------------------
 #p B2PLYPD3/Def2QZVP
 --------------------

 --------
 acrolein
 --------
 Symbolic Z-matrix:
 Charge =  0 Multiplicity = 1

                         Standard orientation:
 ---------------------------------------------------------------------
 Center     Atomic      Atomic             Coordinates (Angstroms)
 Number     Number       Type             X           Y           Z
 ---------------------------------------------------------------------
      1          6           0        0.667975    0.362784    0.007897
      2          8           0        1.778892   -0.136485   -0.004095
      3          6           0       -0.561583   -0.424651    0.007131
      4          6           0       -1.742244    0.146856   -0.015756
      5          1           0       -0.458127   -1.554231    0.033470
      6          1           0       -1.774733    1.127825    0.113127
      7          1           0       -2.705095   -0.420170   -0.049330
      8          1           0        0.521931    1.428524   -0.060133
 ---------------------------------------------------------------------

 SCF Done:  E(RB2PLYPD3) =  -191.605470509     A.U. after   13 cycles
 E2(B2PLYPD3) =    -0.2469298718D+00 E(B2PLYPD3) =    -0.19185240038099D+03

 The electronic state is 1-A.
 Alpha  occ. eigenvalues --  -19.72813 -10.71423 -10.64458 -10.64310  -1.19118
 Alpha  occ. eigenvalues --   -0.93815  -0.75891  -0.67374  -0.57534  -0.56138
 Alpha  occ. eigenvalues --   -0.50492  -0.46821  -0.46245  -0.34888  -0.34047
 Alpha virt. eigenvalues --   -0.01715   0.05798   0.06970   0.08136   0.09839
 Alpha virt. eigenvalues --    0.12674   0.14169   0.15308   0.17123   0.19700
 Alpha virt. eigenvalues --    0.20554   0.21762   0.25357   0.26583   0.28865

 Mulliken charges:
               1
     1  C    0.147350
     2  O   -0.351862
     3  C   -0.026283
     4  C   -0.133204
     5  H    0.097371
     6  H    0.085775
     7  H    0.101272
     8  H    0.079581
 Sum of Mulliken charges =   0.00000

 Dipole moment (field-independent basis, Debye):
    X=             -3.4761    Y=              0.8755    Z=              0.0844  Tot=              3.5857
 Quadrupole moment (field-independent basis, Debye-Ang):
   XX=            -27.4329   YY=            -21.7695   ZZ=            -25.0710
   XY=              1.1324   XZ=             -0.0660   YZ=              0.0881

 Normal termination of Gaussian 09 at Wed Aug 26 08:53:48 2020.
