 Gaussian 09, Revision D.01,
 Gaussian 09:  ES64L-G09RevD.01 24-Apr-2013

 --------------------
 #p B2PLYPD3/Def2QZVP
 --------------------

 --------
 acrolein
 --------
 Symbolic Z-matrix:
 Charge =  0 Multiplicity = 1

                         Standard orientation:
 ---------------------------------------------------------------------
 Center     Atomic      Atomic             Coordinates (Angstroms)
 Number     Number       Type             X           Y           Z
 ---------------------------------------------------------------------
      1          6           0       -0.637987    0.321574   -0.077559
      2          8           0       -1.809778   -0.094810    0.062219
      3          6           0        0.580394   -0.467667   -0.026203
      4          6           0        1.729618    0.167079    0.022460
      5          1           0        0.488911   -1.514898   -0.025329
      6          1           0        1.764837    1.189178    0.287867
      7          1           0        2.631449   -0.385688   -0.049894
      8          1           0       -0.439121    1.343965   -0.222582
 ---------------------------------------------------------------------

 SCF Done:  E(RB2PLYPD3) =  -191.605136328     A.U. after   14 cycles
 E2(B2PLYPD3) =    -0.2482988193D+00 E(B2PLYPD3) =    -0.19185343514696D+03

 The electronic state is 1-A.
 Alpha  occ. eigenvalues --  -19.72724 -10.71259 -10.64973 -10.63951  -1.16930
 Alpha  occ. eigenvalues --   -0.94566  -0.76541  -0.68323  -0.57148  -0.56451
 Alpha  occ. eigenvalues --   -0.50230  -0.48133  -0.45355  -0.34821  -0.33892
 Alpha virt. eigenvalues --   -0.02462   0.05736   0.07248   0.07615   0.09762
 Alpha virt. eigenvalues --    0.12991   0.14068   0.15286   0.17266   0.19081
 Alpha virt. eigenvalues --    0.20753   0.21777   0.24325   0.26831   0.28700

 Mulliken charges:
               1
     1  C    0.147419
     2  O   -0.373334
     3  C   -0.026891
     4  C   -0.125719
     5  H    0.105496
     6  H    0.091492
     7  H    0.098797
     8  H    0.082740
 Sum of Mulliken charges =   0.00000

 Dipole moment (field-independent basis, Debye):
    X=              3.8057    Y=              0.6840    Z=             -0.1400  Tot=              3.8692
 Quadrupole moment (field-independent basis, Debye-Ang):
   XX=            -28.0117   YY=            -21.6805   ZZ=            -24.9378
   XY=             -0.7744   XZ=              0.6057   YZ=              0.3076

 Normal termination of Gaussian 09 at Wed Aug 26 10:23:54 2020.
