 Gaussian 09, Revision D.01,
 Gaussian 09:  ES64L-G09RevD.01 24-Apr-2013

 --------------------
 #p B2PLYPD3/Def2QZVP
 --------------------

 --------
 acrolein
 --------
 Symbolic Z-matrix:
 Charge =  0 Multiplicity = 1

                         Standard orientation:
 ---------------------------------------------------------------------
 Center     Atomic      Atomic             Coordinates (Angstroms)
 Number     Number       Type             X           Y           Z
 ---------------------------------------------------------------------
      1          6           0       -0.684816    0.376234    0.025617
      2          8           0       -1.758730   -0.142850   -0.061670
      3          6           0        0.528118   -0.472640    0.096762
      4          6           0        1.738763    0.143020   -0.079871
      5          1           0        0.459845   -1.440654    0.140008
      6          1           0        1.803858    1.222891    0.111996
      7          1           0        2.817524   -0.438773   -0.153275
      8          1           0       -0.503777    1.519657    0.139588
 ---------------------------------------------------------------------

 SCF Done:  E(RB2PLYPD3) =  -191.585203114     A.U. after   13 cycles
 E2(B2PLYPD3) =    -0.2486636367D+00 E(B2PLYPD3) =    -0.19183386675050D+03

 The electronic state is 1-A.
 Alpha  occ. eigenvalues --  -19.72963 -10.72275 -10.67189 -10.63834  -1.20700
 Alpha  occ. eigenvalues --   -0.92082  -0.73572  -0.68025  -0.56252  -0.55422
 Alpha  occ. eigenvalues --   -0.50507  -0.47322  -0.46425  -0.33949  -0.33650
 Alpha virt. eigenvalues --   -0.01722   0.05344   0.06744   0.07818   0.09650
 Alpha virt. eigenvalues --    0.11913   0.13751   0.15332   0.18006   0.19743
 Alpha virt. eigenvalues --    0.20163   0.20472   0.24276   0.25918   0.28410

 Mulliken charges:
               1
     1  C    0.161633
     2  O   -0.334591
     3  C   -0.056202
     4  C   -0.128211
     5  H    0.121485
     6  H    0.083396
     7  H    0.082247
     8  H    0.070242
 Sum of Mulliken charges =   0.00000

 Dipole moment (field-independent basis, Debye):
    X=              3.2154    Y=              0.7818    Z=              0.2986  Tot=              3.3225
 Quadrupole moment (field-independent basis, Debye-Ang):
   XX=            -27.3796   YY=            -21.8229   ZZ=            -25.3889
   XY=             -1.0806   XZ=             -0.4168   YZ=              0.1404

 Normal termination of Gaussian 09 at Wed Aug 26 10:43:04 2020.
