 Gaussian 09, Revision D.01,
 Gaussian 09:  ES64L-G09RevD.01 24-Apr-2013

 --------------------
 #p B2PLYPD3/Def2QZVP
 --------------------

 --------
 acrolein
 --------
 Symbolic Z-matrix:
 Charge =  0 Multiplicity = 1

                         Standard orientation:
 ---------------------------------------------------------------------
 Center     Atomic      Atomic             Coordinates (Angstroms)
 Number     Number       Type             X           Y           Z
 ---------------------------------------------------------------------
      1          6           0        0.702668    0.382430    0.003074
      2          8           0        1.787056   -0.148363   -0.032382
      3          6           0       -0.579710   -0.464220    0.086774
      4          6           0       -1.738955    0.121661   -0.063152
      5          1           0       -0.472421   -1.405157    0.049934
      6          1           0       -1.855750    1.271459    0.149684
      7          1           0       -2.700117   -0.446460   -0.139827
      8          1           0        0.427819    1.527834    0.039091
 ---------------------------------------------------------------------

 SCF Done:  E(RB2PLYPD3) =  -191.584176387     A.U. after   13 cycles
 E2(B2PLYPD3) =    -0.2481339103D+00 E(B2PLYPD3) =    -0.19183231029699D+03

 The electronic state is 1-A.
 Alpha  occ. eigenvalues --  -19.73752 -10.73203 -10.65782 -10.62810  -1.20268
 Alpha  occ. eigenvalues --   -0.92924  -0.73536  -0.67758  -0.56589  -0.54977
 Alpha  occ. eigenvalues --   -0.51536  -0.47127  -0.46052  -0.34970  -0.33684
 Alpha virt. eigenvalues --   -0.01061   0.05464   0.06924   0.07723   0.09764
 Alpha virt. eigenvalues --    0.12138   0.13348   0.15229   0.18037   0.19531
 Alpha virt. eigenvalues --    0.19751   0.21114   0.23999   0.26453   0.28180

 Mulliken charges:
               1
     1  C    0.171065
     2  O   -0.332579
     3  C   -0.068683
     4  C   -0.113566
     5  H    0.118346
     6  H    0.069115
     7  H    0.088184
     8  H    0.068118
 Sum of Mulliken charges =   0.00000

 Dipole moment (field-independent basis, Debye):
    X=             -3.1657    Y=              0.7466    Z=              0.1264  Tot=              3.2550
 Quadrupole moment (field-independent basis, Debye-Ang):
   XX=            -27.5373   YY=            -21.9100   ZZ=            -25.2247
   XY=              1.0328   XZ=              0.2289   YZ=              0.2758

 Normal termination of Gaussian 09 at Wed Aug 26 11:42:57 2020.
