 Gaussian 09, Revision D.01,
 Gaussian 09:  ES64L-G09RevD.01 24-Apr-2013

 --------------------
 #p B2PLYPD3/Def2QZVP
 --------------------

 --------
 acrolein
 --------
 Symbolic Z-matrix:
 Charge =  0 Multiplicity = 1

                         Standard orientation:
 ---------------------------------------------------------------------
 Center     Atomic      Atomic             Coordinates (Angstroms)
 Number     Number       Type             X           Y           Z
 ---------------------------------------------------------------------
      1          6           0        0.694599    0.390938    0.051120
      2          8           0        1.785106   -0.154012   -0.064478
      3          6           0       -0.542150   -0.429149    0.026738
      4          6           0       -1.773003    0.111002   -0.023940
      5          1           0       -0.470146   -1.546168    0.219976
      6          1           0       -1.848402    1.162793   -0.142338
      7          1           0       -2.680041   -0.402903   -0.105665
      8          1           0        0.441064    1.581623    0.220341
 ---------------------------------------------------------------------

 SCF Done:  E(RB2PLYPD3) =  -191.598128983     A.U. after   13 cycles
 E2(B2PLYPD3) =    -0.2498742588D+00 E(B2PLYPD3) =    -0.19184800324137D+03

 The electronic state is 1-A.
 Alpha  occ. eigenvalues --  -19.73737 -10.73673 -10.65162 -10.64776  -1.19354
 Alpha  occ. eigenvalues --   -0.92349  -0.75453  -0.65392  -0.56818  -0.55453
 Alpha  occ. eigenvalues --   -0.50947  -0.47053  -0.45278  -0.34507  -0.34002
 Alpha virt. eigenvalues --   -0.02108   0.05663   0.06449   0.07732   0.09690
 Alpha virt. eigenvalues --    0.12515   0.13538   0.14891   0.17377   0.19124
 Alpha virt. eigenvalues --    0.20192   0.22054   0.24693   0.26513   0.28671

 Mulliken charges:
               1
     1  C    0.161262
     2  O   -0.336770
     3  C   -0.037065
     4  C   -0.124317
     5  H    0.100146
     6  H    0.068321
     7  H    0.103382
     8  H    0.065041
 Sum of Mulliken charges =   0.00000

 Dipole moment (field-independent basis, Debye):
    X=             -3.3843    Y=              0.8251    Z=              0.2440  Tot=              3.4920
 Quadrupole moment (field-independent basis, Debye-Ang):
   XX=            -27.2035   YY=            -22.0237   ZZ=            -25.3699
   XY=              1.0312   XZ=              0.6422   YZ=             -0.2873

 Normal termination of Gaussian 09 at Wed Aug 26 11:01:07 2020.
