 Gaussian 09, Revision D.01,
 Gaussian 09:  ES64L-G09RevD.01 24-Apr-2013

 --------------------
 #p B2PLYPD3/Def2QZVP
 --------------------

 --------
 acrolein
 --------
 Symbolic Z-matrix:
 Charge =  0 Multiplicity = 1

                         Standard orientation:
 ---------------------------------------------------------------------
 Center     Atomic      Atomic             Coordinates (Angstroms)
 Number     Number       Type             X           Y           Z
 ---------------------------------------------------------------------
      1          6           0       -0.695188    0.376515    0.045736
      2          8           0       -1.751234   -0.138236   -0.075965
      3          6           0        0.521758   -0.456178    0.046883
      4          6           0        1.752976    0.134455   -0.034195
      5          1           0        0.373572   -1.508332    0.202101
      6          1           0        1.839924    1.145776   -0.227478
      7          1           0        2.827821   -0.394765   -0.052095
      8          1           0       -0.508723    1.534451    0.334639
 ---------------------------------------------------------------------

 SCF Done:  E(RB2PLYPD3) =  -191.594411024     A.U. after   12 cycles
 E2(B2PLYPD3) =    -0.2480435309D+00 E(B2PLYPD3) =    -0.19184245455495D+03

 The electronic state is 1-A.
 Alpha  occ. eigenvalues --  -19.73224 -10.72366 -10.66238 -10.64775  -1.21838
 Alpha  occ. eigenvalues --   -0.91681  -0.74456  -0.66140  -0.56660  -0.55504
 Alpha  occ. eigenvalues --   -0.50868  -0.47548  -0.46263  -0.34038  -0.33592
 Alpha virt. eigenvalues --   -0.01583   0.05630   0.06507   0.08036   0.09658
 Alpha virt. eigenvalues --    0.12207   0.13879   0.15240   0.17469   0.19156
 Alpha virt. eigenvalues --    0.20151   0.21246   0.24387   0.26723   0.28854

 Mulliken charges:
               1
     1  C    0.159782
     2  O   -0.320835
     3  C   -0.054329
     4  C   -0.133504
     5  H    0.115772
     6  H    0.086182
     7  H    0.087220
     8  H    0.059712
 Sum of Mulliken charges =   0.00000

 Dipole moment (field-independent basis, Debye):
    X=              3.1144    Y=              0.7537    Z=              0.2409  Tot=              3.2133
 Quadrupole moment (field-independent basis, Debye-Ang):
   XX=            -26.9343   YY=            -22.1162   ZZ=            -25.3468
   XY=             -0.6793   XZ=             -0.7521   YZ=             -0.4021

 Normal termination of Gaussian 09 at Wed Aug 26 14:22:02 2020.
