 Gaussian 09, Revision D.01,
 Gaussian 09:  ES64L-G09RevD.01 24-Apr-2013

 --------------------
 #p B2PLYPD3/Def2QZVP
 --------------------

 --------
 acrolein
 --------
 Symbolic Z-matrix:
 Charge =  0 Multiplicity = 1

                         Standard orientation:
 ---------------------------------------------------------------------
 Center     Atomic      Atomic             Coordinates (Angstroms)
 Number     Number       Type             X           Y           Z
 ---------------------------------------------------------------------
      1          6           0       -0.676194    0.357688   -0.049177
      2          8           0       -1.786915   -0.133414    0.041047
      3          6           0        0.568872   -0.440241   -0.019345
      4          6           0        1.751984    0.127013    0.011181
      5          1           0        0.480965   -1.431770   -0.067603
      6          1           0        1.805396    1.246791    0.097335
      7          1           0        2.646141   -0.429341    0.058845
      8          1           0       -0.505151    1.414874   -0.072906
 ---------------------------------------------------------------------

 SCF Done:  E(RB2PLYPD3) =  -191.608586612     A.U. after   13 cycles
 E2(B2PLYPD3) =    -0.2465377298D+00 E(B2PLYPD3) =    -0.19185512434234D+03

 The electronic state is 1-A.
 Alpha  occ. eigenvalues --  -19.72967 -10.71491 -10.65055 -10.63046  -1.19183
 Alpha  occ. eigenvalues --   -0.93606  -0.75627  -0.68313  -0.57188  -0.56334
 Alpha  occ. eigenvalues --   -0.51092  -0.46982  -0.46546  -0.34955  -0.34027
 Alpha virt. eigenvalues --   -0.01565   0.05749   0.07546   0.08041   0.09762
 Alpha virt. eigenvalues --    0.12591   0.13941   0.15313   0.18122   0.19410
 Alpha virt. eigenvalues --    0.19928   0.21637   0.25523   0.26629   0.28961

 Mulliken charges:
               1
     1  C    0.155369
     2  O   -0.351864
     3  C   -0.042371
     4  C   -0.126625
     5  H    0.108852
     6  H    0.073003
     7  H    0.101819
     8  H    0.081817
 Sum of Mulliken charges =   0.00000

 Dipole moment (field-independent basis, Debye):
    X=              3.4286    Y=              0.7935    Z=             -0.1071  Tot=              3.5209
 Quadrupole moment (field-independent basis, Debye-Ang):
   XX=            -27.5372   YY=            -21.7446   ZZ=            -25.0307
   XY=             -1.1860   XZ=              0.4458   YZ=              0.1367

 Normal termination of Gaussian 09 at Wed Aug 26 09:21:46 2020.
