 Gaussian 09, Revision D.01,
 Gaussian 09:  ES64L-G09RevD.01 24-Apr-2013

 --------------------
 #p B2PLYPD3/Def2QZVP
 --------------------

 --------
 acrolein
 --------
 Symbolic Z-matrix:
 Charge =  0 Multiplicity = 1

                         Standard orientation:
 ---------------------------------------------------------------------
 Center     Atomic      Atomic             Coordinates (Angstroms)
 Number     Number       Type             X           Y           Z
 ---------------------------------------------------------------------
      1          6           0       -0.673746    0.321760    0.007716
      2          8           0       -1.808918   -0.104192   -0.037398
      3          6           0        0.561468   -0.470187    0.022708
      4          6           0        1.755620    0.159172   -0.019513
      5          1           0        0.477430   -1.489408    0.117138
      6          1           0        1.857940    1.269851   -0.141709
      7          1           0        2.789482   -0.436057   -0.012400
      8          1           0       -0.513555    1.424683    0.270683
 ---------------------------------------------------------------------

 SCF Done:  E(RB2PLYPD3) =  -191.601519598     A.U. after   13 cycles
 E2(B2PLYPD3) =    -0.2487398598D+00 E(B2PLYPD3) =    -0.19185025945777D+03

 The electronic state is 1-A.
 Alpha  occ. eigenvalues --  -19.72946 -10.71986 -10.67473 -10.64526  -1.19403
 Alpha  occ. eigenvalues --   -0.92772  -0.74561  -0.67004  -0.56065  -0.55715
 Alpha  occ. eigenvalues --   -0.50507  -0.46542  -0.46378  -0.34731  -0.33553
 Alpha virt. eigenvalues --   -0.02120   0.05362   0.06871   0.07851   0.09505
 Alpha virt. eigenvalues --    0.12229   0.13893   0.15202   0.17974   0.18823
 Alpha virt. eigenvalues --    0.20182   0.20792   0.24482   0.26779   0.28667

 Mulliken charges:
               1
     1  C    0.157150
     2  O   -0.345482
     3  C   -0.046447
     4  C   -0.121490
     5  H    0.114450
     6  H    0.089244
     7  H    0.091315
     8  H    0.061261
 Sum of Mulliken charges =   0.00000

 Dipole moment (field-independent basis, Debye):
    X=              3.5651    Y=              0.6241    Z=              0.1521  Tot=              3.6225
 Quadrupole moment (field-independent basis, Debye-Ang):
   XX=            -27.4771   YY=            -21.9453   ZZ=            -25.3547
   XY=             -0.7224   XZ=             -0.4002   YZ=             -0.2469

 Normal termination of Gaussian 09 at Wed Aug 26 13:44:38 2020.
