 Gaussian 09, Revision D.01,
 Gaussian 09:  ES64L-G09RevD.01 24-Apr-2013

 --------------------
 #p B2PLYPD3/Def2QZVP
 --------------------

 --------
 acrolein
 --------
 Symbolic Z-matrix:
 Charge =  0 Multiplicity = 1

                         Standard orientation:
 ---------------------------------------------------------------------
 Center     Atomic      Atomic             Coordinates (Angstroms)
 Number     Number       Type             X           Y           Z
 ---------------------------------------------------------------------
      1          6           0       -0.641594   -0.321083    0.073787
      2          8           0       -1.792264    0.087828   -0.036303
      3          6           0        0.564731    0.456035   -0.024333
      4          6           0        1.737397   -0.154335   -0.041652
      5          1           0        0.381799    1.592279    0.086713
      6          1           0        1.787055   -1.308152   -0.071801
      7          1           0        2.747474    0.409075    0.151782
      8          1           0       -0.541424   -1.279530    0.076918
 ---------------------------------------------------------------------

 SCF Done:  E(RB2PLYPD3) =  -191.583583777     A.U. after   13 cycles
 E2(B2PLYPD3) =    -0.2483692762D+00 E(B2PLYPD3) =    -0.19183195305320D+03

 The electronic state is 1-A.
 Alpha  occ. eigenvalues --  -19.72314 -10.69705 -10.67369 -10.65022  -1.18397
 Alpha  occ. eigenvalues --   -0.93637  -0.75938  -0.67974  -0.56601  -0.55448
 Alpha  occ. eigenvalues --   -0.50125  -0.46244  -0.45297  -0.34932  -0.33819
 Alpha virt. eigenvalues --   -0.02285   0.05283   0.06665   0.08126   0.09602
 Alpha virt. eigenvalues --    0.12397   0.13938   0.15112   0.17403   0.19044
 Alpha virt. eigenvalues --    0.19817   0.21288   0.25098   0.27168   0.29471

 Mulliken charges:
               1
     1  C    0.165673
     2  O   -0.365881
     3  C   -0.026116
     4  C   -0.121705
     5  H    0.097187
     6  H    0.080396
     7  H    0.100002
     8  H    0.070444
 Sum of Mulliken charges =   0.00000

 Dipole moment (field-independent basis, Debye):
    X=              3.6524    Y=             -0.7691    Z=              0.3508  Tot=              3.7489
 Quadrupole moment (field-independent basis, Debye-Ang):
   XX=            -27.8123   YY=            -21.6684   ZZ=            -25.1942
   XY=              0.7320   XZ=              0.1623   YZ=              0.2859

 Normal termination of Gaussian 09 at Wed Aug 26 11:08:38 2020.
