 Gaussian 09, Revision D.01,
 Gaussian 09:  ES64L-G09RevD.01 24-Apr-2013

 --------------------
 #p B2PLYPD3/Def2QZVP
 --------------------

 --------
 acrolein
 --------
 Symbolic Z-matrix:
 Charge =  0 Multiplicity = 1

                         Standard orientation:
 ---------------------------------------------------------------------
 Center     Atomic      Atomic             Coordinates (Angstroms)
 Number     Number       Type             X           Y           Z
 ---------------------------------------------------------------------
      1          6           0        0.671520    0.352749   -0.019361
      2          8           0        1.777129   -0.126620    0.011633
      3          6           0       -0.547690   -0.431686   -0.000692
      4          6           0       -1.750089    0.134015   -0.004727
      5          1           0       -0.420109   -1.501481   -0.001411
      6          1           0       -1.819464    1.205120    0.061010
      7          1           0       -2.738929   -0.436278    0.008226
      8          1           0        0.519028    1.415137   -0.012214
 ---------------------------------------------------------------------

 SCF Done:  E(RB2PLYPD3) =  -191.613765004     A.U. after   13 cycles
 E2(B2PLYPD3) =    -0.2467459922D+00 E(B2PLYPD3) =    -0.19186051099668D+03

 The electronic state is 1-A.
 Alpha  occ. eigenvalues --  -19.72691 -10.70995 -10.65951 -10.64017  -1.19830
 Alpha  occ. eigenvalues --   -0.93209  -0.75522  -0.67509  -0.56932  -0.56016
 Alpha  occ. eigenvalues --   -0.50630  -0.47073  -0.46347  -0.34725  -0.33954
 Alpha virt. eigenvalues --   -0.01784   0.05627   0.07233   0.08419   0.09754
 Alpha virt. eigenvalues --    0.12458   0.14045   0.15364   0.17674   0.19772
 Alpha virt. eigenvalues --    0.19940   0.21269   0.25668   0.26503   0.28899

 Mulliken charges:
               1
     1  C    0.154485
     2  O   -0.349656
     3  C   -0.033574
     4  C   -0.131447
     5  H    0.105456
     6  H    0.081768
     7  H    0.100032
     8  H    0.072935
 Sum of Mulliken charges =   0.00000

 Dipole moment (field-independent basis, Debye):
    X=             -3.4649    Y=              0.8041    Z=              0.0042  Tot=              3.5570
 Quadrupole moment (field-independent basis, Debye-Ang):
   XX=            -27.2704   YY=            -21.8583   ZZ=            -25.1589
   XY=              0.9953   XZ=             -0.1687   YZ=              0.0708

 Normal termination of Gaussian 09 at Wed Aug 26 15:45:40 2020.
