 Gaussian 09, Revision D.01,
 Gaussian 09:  ES64L-G09RevD.01 24-Apr-2013

 --------------------
 #p B2PLYPD3/Def2QZVP
 --------------------

 --------
 acrolein
 --------
 Symbolic Z-matrix:
 Charge =  0 Multiplicity = 1

                         Standard orientation:
 ---------------------------------------------------------------------
 Center     Atomic      Atomic             Coordinates (Angstroms)
 Number     Number       Type             X           Y           Z
 ---------------------------------------------------------------------
      1          6           0       -0.679570    0.354098    0.004598
      2          8           0       -1.781217   -0.128950   -0.017240
      3          6           0        0.548750   -0.429754    0.022711
      4          6           0        1.762190    0.132796   -0.006075
      5          1           0        0.434566   -1.517582    0.029821
      6          1           0        1.825223    1.212962   -0.034560
      7          1           0        2.737822   -0.429058   -0.054726
      8          1           0       -0.536088    1.422439    0.069981
 ---------------------------------------------------------------------

 SCF Done:  E(RB2PLYPD3) =  -191.614654134     A.U. after   13 cycles
 E2(B2PLYPD3) =    -0.2469341798D+00 E(B2PLYPD3) =    -0.19186158831398D+03

 The electronic state is 1-A.
 Alpha  occ. eigenvalues --  -19.72760 -10.71179 -10.65992 -10.64364  -1.20017
 Alpha  occ. eigenvalues --   -0.92818  -0.75469  -0.67166  -0.56801  -0.56068
 Alpha  occ. eigenvalues --   -0.50712  -0.47110  -0.46184  -0.34587  -0.33970
 Alpha virt. eigenvalues --   -0.01831   0.05660   0.07191   0.08396   0.09719
 Alpha virt. eigenvalues --    0.12413   0.14097   0.15409   0.17596   0.19587
 Alpha virt. eigenvalues --    0.19993   0.21282   0.25608   0.26451   0.28917

 Mulliken charges:
               1
     1  C    0.154855
     2  O   -0.345620
     3  C   -0.037532
     4  C   -0.131533
     5  H    0.103205
     6  H    0.079717
     7  H    0.103404
     8  H    0.073504
 Sum of Mulliken charges =   0.00000

 Dipole moment (field-independent basis, Debye):
    X=              3.4427    Y=              0.8096    Z=              0.0150  Tot=              3.5366
 Quadrupole moment (field-independent basis, Debye-Ang):
   XX=            -27.2034   YY=            -21.8788   ZZ=            -25.2227
   XY=             -1.0581   XZ=             -0.2756   YZ=             -0.0134

 Normal termination of Gaussian 09 at Wed Aug 26 20:19:49 2020.
