 Gaussian 09, Revision D.01,
 Gaussian 09:  ES64L-G09RevD.01 24-Apr-2013

 --------------------
 #p B2PLYPD3/Def2QZVP
 --------------------

 --------
 acrolein
 --------
 Symbolic Z-matrix:
 Charge =  0 Multiplicity = 1

                         Standard orientation:
 ---------------------------------------------------------------------
 Center     Atomic      Atomic             Coordinates (Angstroms)
 Number     Number       Type             X           Y           Z
 ---------------------------------------------------------------------
      1          6           0       -0.671598    0.351718    0.008431
      2          8           0       -1.783462   -0.127721   -0.001878
      3          6           0        0.551545   -0.428343   -0.006943
      4          6           0        1.757717    0.137865   -0.011790
      5          1           0        0.444576   -1.519778    0.001320
      6          1           0        1.832465    1.206924   -0.018108
      7          1           0        2.705551   -0.447979    0.073230
      8          1           0       -0.540880    1.415163    0.020397
 ---------------------------------------------------------------------

 SCF Done:  E(RB2PLYPD3) =  -191.614951616     A.U. after   12 cycles
 E2(B2PLYPD3) =    -0.2469912442D+00 E(B2PLYPD3) =    -0.19186194286046D+03

 The electronic state is 1-A.
 Alpha  occ. eigenvalues --  -19.72661 -10.71071 -10.65762 -10.64316  -1.19472
 Alpha  occ. eigenvalues --   -0.93143  -0.75724  -0.67301  -0.56985  -0.56124
 Alpha  occ. eigenvalues --   -0.50487  -0.46842  -0.46471  -0.34665  -0.33961
 Alpha virt. eigenvalues --   -0.01929   0.05677   0.07136   0.08420   0.09746
 Alpha virt. eigenvalues --    0.12491   0.14061   0.15380   0.17569   0.19713
 Alpha virt. eigenvalues --    0.19897   0.21501   0.25630   0.26462   0.28896

 Mulliken charges:
               1
     1  C    0.151726
     2  O   -0.351101
     3  C   -0.032555
     4  C   -0.132333
     5  H    0.102603
     6  H    0.083592
     7  H    0.102949
     8  H    0.075120
 Sum of Mulliken charges =   0.00000

 Dipole moment (field-independent basis, Debye):
    X=              3.5067    Y=              0.8159    Z=              0.0710  Tot=              3.6011
 Quadrupole moment (field-independent basis, Debye-Ang):
   XX=            -27.3725   YY=            -21.7775   ZZ=            -25.1809
   XY=             -1.0706   XZ=              0.1533   YZ=             -0.0610

 Normal termination of Gaussian 09 at Wed Aug 26 19:14:01 2020.
