 Gaussian 09, Revision D.01,
 Gaussian 09:  ES64L-G09RevD.01 24-Apr-2013

 --------------------
 #p B2PLYPD3/Def2QZVP
 --------------------

 --------
 acrolein
 --------
 Symbolic Z-matrix:
 Charge =  0 Multiplicity = 1

                         Standard orientation:
 ---------------------------------------------------------------------
 Center     Atomic      Atomic             Coordinates (Angstroms)
 Number     Number       Type             X           Y           Z
 ---------------------------------------------------------------------
      1          6           0       -0.669365    0.327378    0.054804
      2          8           0       -1.791747   -0.094517   -0.039369
      3          6           0        0.555440   -0.468351    0.031679
      4          6           0        1.762291    0.140956   -0.023967
      5          1           0        0.440547   -1.570268    0.018615
      6          1           0        1.871483    1.259834   -0.023464
      7          1           0        2.597014   -0.372038   -0.060864
      8          1           0       -0.465260    1.438709    0.005574
 ---------------------------------------------------------------------

 SCF Done:  E(RB2PLYPD3) =  -191.605751737     A.U. after   12 cycles
 E2(B2PLYPD3) =    -0.2474126904D+00 E(B2PLYPD3) =    -0.19185316442749D+03

 The electronic state is 1-A.
 Alpha  occ. eigenvalues --  -19.72844 -10.71564 -10.65309 -10.65010  -1.19969
 Alpha  occ. eigenvalues --   -0.92871  -0.76447  -0.66217  -0.57439  -0.55843
 Alpha  occ. eigenvalues --   -0.50895  -0.47086  -0.47038  -0.34521  -0.33671
 Alpha virt. eigenvalues --   -0.02058   0.05792   0.07109   0.08258   0.09684
 Alpha virt. eigenvalues --    0.12671   0.14216   0.15339   0.17238   0.19704
 Alpha virt. eigenvalues --    0.20002   0.22078   0.25137   0.26586   0.28590

 Mulliken charges:
               1
     1  C    0.163012
     2  O   -0.342320
     3  C   -0.036443
     4  C   -0.129363
     5  H    0.098924
     6  H    0.083085
     7  H    0.108507
     8  H    0.054600
 Sum of Mulliken charges =   0.00000

 Dipole moment (field-independent basis, Debye):
    X=              3.5513    Y=              0.6036    Z=              0.0901  Tot=              3.6034
 Quadrupole moment (field-independent basis, Debye-Ang):
   XX=            -27.2770   YY=            -21.8216   ZZ=            -25.2292
   XY=             -0.6056   XZ=             -0.3721   YZ=             -0.0165

 Normal termination of Gaussian 09 at Wed Aug 26 09:13:12 2020.
