 Gaussian 09, Revision D.01,
 Gaussian 09:  ES64L-G09RevD.01 24-Apr-2013

 --------------------
 #p B2PLYPD3/Def2QZVP
 --------------------

 --------
 acrolein
 --------
 Symbolic Z-matrix:
 Charge =  0 Multiplicity = 1

                         Standard orientation:
 ---------------------------------------------------------------------
 Center     Atomic      Atomic             Coordinates (Angstroms)
 Number     Number       Type             X           Y           Z
 ---------------------------------------------------------------------
      1          6           0        0.674924    0.344419   -0.019915
      2          8           0        1.786647   -0.119288    0.023978
      3          6           0       -0.545517   -0.444238   -0.019678
      4          6           0       -1.766158    0.140242    0.006353
      5          1           0       -0.429697   -1.520775   -0.060835
      6          1           0       -1.855686    1.228067    0.000928
      7          1           0       -2.721635   -0.439515    0.098177
      8          1           0        0.534346    1.443989   -0.030655
 ---------------------------------------------------------------------

 SCF Done:  E(RB2PLYPD3) =  -191.614641895     A.U. after   13 cycles
 E2(B2PLYPD3) =    -0.2475510692D+00 E(B2PLYPD3) =    -0.19186219296451D+03

 The electronic state is 1-A.
 Alpha  occ. eigenvalues --  -19.72686 -10.71355 -10.66436 -10.64661  -1.19814
 Alpha  occ. eigenvalues --   -0.92604  -0.75405  -0.66871  -0.56580  -0.56009
 Alpha  occ. eigenvalues --   -0.50350  -0.47157  -0.46612  -0.34380  -0.33816
 Alpha virt. eigenvalues --   -0.02085   0.05627   0.07132   0.08357   0.09694
 Alpha virt. eigenvalues --    0.12363   0.13965   0.15358   0.17618   0.19691
 Alpha virt. eigenvalues --    0.19874   0.21332   0.25398   0.26347   0.28875

 Mulliken charges:
               1
     1  C    0.155374
     2  O   -0.346742
     3  C   -0.037232
     4  C   -0.131712
     5  H    0.106239
     6  H    0.085695
     7  H    0.102472
     8  H    0.065905
 Sum of Mulliken charges =   0.00000

 Dipole moment (field-independent basis, Debye):
    X=             -3.5154    Y=              0.7397    Z=             -0.0535  Tot=              3.5928
 Quadrupole moment (field-independent basis, Debye-Ang):
   XX=            -27.2750   YY=            -21.8318   ZZ=            -25.2980
   XY=              0.9211   XZ=             -0.3373   YZ=              0.0159

 Normal termination of Gaussian 09 at Wed Aug 26 15:53:02 2020.
