 Gaussian 09, Revision D.01,
 Gaussian 09:  ES64L-G09RevD.01 24-Apr-2013

 --------------------
 #p B2PLYPD3/Def2QZVP
 --------------------

 --------
 acrolein
 --------
 Symbolic Z-matrix:
 Charge =  0 Multiplicity = 1

                         Standard orientation:
 ---------------------------------------------------------------------
 Center     Atomic      Atomic             Coordinates (Angstroms)
 Number     Number       Type             X           Y           Z
 ---------------------------------------------------------------------
      1          6           0       -0.697821    0.365808    0.073556
      2          8           0       -1.756186   -0.143057   -0.069776
      3          6           0        0.531633   -0.418856    0.090922
      4          6           0        1.782829    0.132066   -0.060178
      5          1           0        0.411621   -1.591774    0.037265
      6          1           0        1.759887    1.148553    0.030296
      7          1           0        2.760605   -0.380605   -0.139400
      8          1           0       -0.582479    1.494176    0.004249
 ---------------------------------------------------------------------

 SCF Done:  E(RB2PLYPD3) =  -191.598718092     A.U. after   13 cycles
 E2(B2PLYPD3) =    -0.2477948381D+00 E(B2PLYPD3) =    -0.19184651293048D+03

 The electronic state is 1-A.
 Alpha  occ. eigenvalues --  -19.72890 -10.71697 -10.65652 -10.65533  -1.21498
 Alpha  occ. eigenvalues --   -0.91896  -0.75470  -0.65875  -0.56685  -0.56317
 Alpha  occ. eigenvalues --   -0.51143  -0.47901  -0.45194  -0.34187  -0.33673
 Alpha virt. eigenvalues --   -0.02005   0.05869   0.06821   0.08156   0.09833
 Alpha virt. eigenvalues --    0.12271   0.14250   0.15363   0.16972   0.19626
 Alpha virt. eigenvalues --    0.20256   0.21666   0.24422   0.26425   0.29372

 Mulliken charges:
               1
     1  C    0.154414
     2  O   -0.324446
     3  C   -0.040448
     4  C   -0.134552
     5  H    0.094307
     6  H    0.081820
     7  H    0.110036
     8  H    0.058869
 Sum of Mulliken charges =   0.00000

 Dipole moment (field-independent basis, Debye):
    X=              3.2524    Y=              0.8350    Z=              0.1517  Tot=              3.3612
 Quadrupole moment (field-independent basis, Debye-Ang):
   XX=            -26.6710   YY=            -22.0978   ZZ=            -25.3784
   XY=             -1.2322   XZ=             -0.6591   YZ=              0.1104

 Normal termination of Gaussian 09 at Wed Aug 26 14:39:18 2020.
