 Gaussian 09, Revision D.01,
 Gaussian 09:  ES64L-G09RevD.01 24-Apr-2013

 --------------------
 #p B2PLYPD3/Def2QZVP
 --------------------

 --------
 acrolein
 --------
 Symbolic Z-matrix:
 Charge =  0 Multiplicity = 1

                         Standard orientation:
 ---------------------------------------------------------------------
 Center     Atomic      Atomic             Coordinates (Angstroms)
 Number     Number       Type             X           Y           Z
 ---------------------------------------------------------------------
      1          6           0        0.672414    0.340381   -0.020062
      2          8           0        1.787428   -0.114343    0.021835
      3          6           0       -0.569982   -0.455670   -0.024861
      4          6           0       -1.751052    0.156275    0.006970
      5          1           0       -0.461054   -1.560741    0.006946
      6          1           0       -1.838755    1.204595    0.072224
      7          1           0       -2.658866   -0.397514    0.028876
      8          1           0        0.550965    1.422494   -0.055003
 ---------------------------------------------------------------------

 SCF Done:  E(RB2PLYPD3) =  -191.615936071     A.U. after   12 cycles
 E2(B2PLYPD3) =    -0.2464696433D+00 E(B2PLYPD3) =    -0.19186240571427D+03

 The electronic state is 1-A.
 Alpha  occ. eigenvalues --  -19.72650 -10.71265 -10.64919 -10.64699  -1.19769
 Alpha  occ. eigenvalues --   -0.93040  -0.75564  -0.67041  -0.57012  -0.56471
 Alpha  occ. eigenvalues --   -0.50571  -0.47115  -0.46817  -0.34746  -0.33710
 Alpha virt. eigenvalues --   -0.01567   0.05854   0.07128   0.08243   0.09721
 Alpha virt. eigenvalues --    0.12713   0.14190   0.15377   0.17301   0.19813
 Alpha virt. eigenvalues --    0.20137   0.21757   0.25429   0.26351   0.28665

 Mulliken charges:
               1
     1  C    0.152757
     2  O   -0.345766
     3  C   -0.038638
     4  C   -0.130136
     5  H    0.101911
     6  H    0.087408
     7  H    0.100951
     8  H    0.071513
 Sum of Mulliken charges =   0.00000

 Dipole moment (field-independent basis, Debye):
    X=             -3.4705    Y=              0.7573    Z=              0.0052  Tot=              3.5522
 Quadrupole moment (field-independent basis, Debye-Ang):
   XX=            -27.4209   YY=            -21.6818   ZZ=            -25.1580
   XY=              0.8792   XZ=             -0.3087   YZ=              0.0308

 Normal termination of Gaussian 09 at Wed Aug 26 19:03:11 2020.
