 Gaussian 09, Revision D.01,
 Gaussian 09:  ES64L-G09RevD.01 24-Apr-2013

 --------------------
 #p B2PLYPD3/Def2QZVP
 --------------------

 --------
 acrolein
 --------
 Symbolic Z-matrix:
 Charge =  0 Multiplicity = 1

                         Standard orientation:
 ---------------------------------------------------------------------
 Center     Atomic      Atomic             Coordinates (Angstroms)
 Number     Number       Type             X           Y           Z
 ---------------------------------------------------------------------
      1          6           0        0.648884    0.339019    0.041937
      2          8           0        1.798068   -0.108624   -0.031367
      3          6           0       -0.564142   -0.462051    0.039368
      4          6           0       -1.743918    0.145561   -0.030609
      5          1           0       -0.392391   -1.561545   -0.003446
      6          1           0       -1.842827    1.270102    0.014566
      7          1           0       -2.718134   -0.429502   -0.049388
      8          1           0        0.523870    1.454759   -0.014972
 ---------------------------------------------------------------------

 SCF Done:  E(RB2PLYPD3) =  -191.608870781     A.U. after   13 cycles
 E2(B2PLYPD3) =    -0.2492069208D+00 E(B2PLYPD3) =    -0.19185807770199D+03

 The electronic state is 1-A.
 Alpha  occ. eigenvalues --  -19.72671 -10.71803 -10.66807 -10.65052  -1.17952
 Alpha  occ. eigenvalues --   -0.93312  -0.75150  -0.66291  -0.56249  -0.55682
 Alpha  occ. eigenvalues --   -0.49833  -0.46193  -0.46063  -0.34891  -0.33739
 Alpha virt. eigenvalues --   -0.02167   0.05466   0.06781   0.07917   0.09678
 Alpha virt. eigenvalues --    0.12234   0.13840   0.15209   0.17219   0.19566
 Alpha virt. eigenvalues --    0.19958   0.21241   0.25011   0.26633   0.28969

 Mulliken charges:
               1
     1  C    0.159597
     2  O   -0.363890
     3  C   -0.036672
     4  C   -0.119886
     5  H    0.108645
     6  H    0.087455
     7  H    0.099882
     8  H    0.064868
 Sum of Mulliken charges =   0.00000

 Dipole moment (field-independent basis, Debye):
    X=             -3.6864    Y=              0.7092    Z=              0.0774  Tot=              3.7548
 Quadrupole moment (field-independent basis, Debye-Ang):
   XX=            -27.6728   YY=            -21.6829   ZZ=            -25.3831
   XY=              0.7570   XZ=              0.2350   YZ=              0.0580

 Normal termination of Gaussian 09 at Wed Aug 26 08:56:22 2020.
