 Gaussian 09, Revision D.01,
 Gaussian 09:  ES64L-G09RevD.01 24-Apr-2013

 --------------------
 #p B2PLYPD3/Def2QZVP
 --------------------

 --------
 acrolein
 --------
 Symbolic Z-matrix:
 Charge =  0 Multiplicity = 1

                         Standard orientation:
 ---------------------------------------------------------------------
 Center     Atomic      Atomic             Coordinates (Angstroms)
 Number     Number       Type             X           Y           Z
 ---------------------------------------------------------------------
      1          6           0       -0.674283    0.357079   -0.009402
      2          8           0       -1.789795   -0.127757    0.006687
      3          6           0        0.574108   -0.454727   -0.024189
      4          6           0        1.757058    0.148356    0.013981
      5          1           0        0.465722   -1.530472    0.043623
      6          1           0        1.824258    1.218742   -0.020389
      7          1           0        2.625430   -0.423085    0.010289
      8          1           0       -0.538351    1.452628    0.030635
 ---------------------------------------------------------------------

 SCF Done:  E(RB2PLYPD3) =  -191.615247158     A.U. after   12 cycles
 E2(B2PLYPD3) =    -0.2470570531D+00 E(B2PLYPD3) =    -0.19186230421063D+03

 The electronic state is 1-A.
 Alpha  occ. eigenvalues --  -19.72844 -10.71785 -10.64698 -10.64409  -1.19173
 Alpha  occ. eigenvalues --   -0.93040  -0.75406  -0.67070  -0.56977  -0.56297
 Alpha  occ. eigenvalues --   -0.50539  -0.47373  -0.46455  -0.34736  -0.33799
 Alpha virt. eigenvalues --   -0.01570   0.05865   0.07174   0.07918   0.09775
 Alpha virt. eigenvalues --    0.12640   0.13965   0.15315   0.17459   0.19824
 Alpha virt. eigenvalues --    0.19981   0.21881   0.25274   0.26506   0.28747

 Mulliken charges:
               1
     1  C    0.154048
     2  O   -0.349495
     3  C   -0.044201
     4  C   -0.131196
     5  H    0.105621
     6  H    0.085804
     7  H    0.103257
     8  H    0.076161
 Sum of Mulliken charges =   0.00000

 Dipole moment (field-independent basis, Debye):
    X=              3.4484    Y=              0.7958    Z=              0.0177  Tot=              3.5391
 Quadrupole moment (field-independent basis, Debye-Ang):
   XX=            -27.6235   YY=            -21.5822   ZZ=            -25.1889
   XY=             -1.0438   XZ=              0.0491   YZ=             -0.0968

 Normal termination of Gaussian 09 at Wed Aug 26 21:18:22 2020.
