 Gaussian 09, Revision D.01,
 Gaussian 09:  ES64L-G09RevD.01 24-Apr-2013

 --------------------
 #p B2PLYPD3/Def2QZVP
 --------------------

 --------
 acrolein
 --------
 Symbolic Z-matrix:
 Charge =  0 Multiplicity = 1

                         Standard orientation:
 ---------------------------------------------------------------------
 Center     Atomic      Atomic             Coordinates (Angstroms)
 Number     Number       Type             X           Y           Z
 ---------------------------------------------------------------------
      1          6           0        0.671793    0.354282    0.012149
      2          8           0        1.784690   -0.122241   -0.024806
      3          6           0       -0.569863   -0.451495    0.016884
      4          6           0       -1.731274    0.153931   -0.034238
      5          1           0       -0.437314   -1.535559    0.092700
      6          1           0       -1.812977    1.182289   -0.009225
      7          1           0       -2.762258   -0.408763    0.013326
      8          1           0        0.511088    1.399653    0.132873
 ---------------------------------------------------------------------

 SCF Done:  E(RB2PLYPD3) =  -191.608033099     A.U. after   12 cycles
 E2(B2PLYPD3) =    -0.2467522523D+00 E(B2PLYPD3) =    -0.19185478535157D+03

 The electronic state is 1-A.
 Alpha  occ. eigenvalues --  -19.72844 -10.71283 -10.65377 -10.64240  -1.19510
 Alpha  occ. eigenvalues --   -0.93393  -0.75089  -0.67761  -0.57270  -0.55596
 Alpha  occ. eigenvalues --   -0.50793  -0.46767  -0.46057  -0.35066  -0.33863
 Alpha virt. eigenvalues --   -0.01365   0.05631   0.07039   0.08094   0.09698
 Alpha virt. eigenvalues --    0.12534   0.14164   0.15281   0.17490   0.19687
 Alpha virt. eigenvalues --    0.20168   0.21313   0.25517   0.26683   0.28668

 Mulliken charges:
               1
     1  C    0.152838
     2  O   -0.350088
     3  C   -0.037115
     4  C   -0.129121
     5  H    0.107474
     6  H    0.086435
     7  H    0.089227
     8  H    0.080351
 Sum of Mulliken charges =   0.00000

 Dipole moment (field-independent basis, Debye):
    X=             -3.3966    Y=              0.8475    Z=              0.2042  Tot=              3.5067
 Quadrupole moment (field-independent basis, Debye-Ang):
   XX=            -27.5738   YY=            -21.7311   ZZ=            -25.1378
   XY=              0.8159   XZ=              0.0610   YZ=             -0.0872

 Normal termination of Gaussian 09 at Wed Aug 26 10:22:03 2020.
