 Gaussian 09, Revision D.01,
 Gaussian 09:  ES64L-G09RevD.01 24-Apr-2013

 --------------------
 #p B2PLYPD3/Def2QZVP
 --------------------

 --------
 acrolein
 --------
 Symbolic Z-matrix:
 Charge =  0 Multiplicity = 1

                         Standard orientation:
 ---------------------------------------------------------------------
 Center     Atomic      Atomic             Coordinates (Angstroms)
 Number     Number       Type             X           Y           Z
 ---------------------------------------------------------------------
      1          6           0       -0.673286    0.336358    0.053512
      2          8           0       -1.769571   -0.123956   -0.074699
      3          6           0        0.521229   -0.437960    0.098595
      4          6           0        1.751770    0.141707   -0.030371
      5          1           0        0.503745   -1.438402    0.006777
      6          1           0        1.792435    1.095861   -0.201308
      7          1           0        2.777887   -0.361726   -0.133951
      8          1           0       -0.515782    1.455286    0.195659
 ---------------------------------------------------------------------

 SCF Done:  E(RB2PLYPD3) =  -191.591061369     A.U. after   13 cycles
 E2(B2PLYPD3) =    -0.2471343095D+00 E(B2PLYPD3) =    -0.19183819567821D+03

 The electronic state is 1-A.
 Alpha  occ. eigenvalues --  -19.72639 -10.71365 -10.65575 -10.63723  -1.20429
 Alpha  occ. eigenvalues --   -0.93451  -0.76439  -0.68237  -0.57567  -0.56162
 Alpha  occ. eigenvalues --   -0.50363  -0.47842  -0.47321  -0.34178  -0.33823
 Alpha virt. eigenvalues --   -0.02435   0.05675   0.07423   0.08405   0.09672
 Alpha virt. eigenvalues --    0.12691   0.13962   0.15530   0.17922   0.19276
 Alpha virt. eigenvalues --    0.20387   0.21296   0.25087   0.25766   0.28796

 Mulliken charges:
               1
     1  C    0.144430
     2  O   -0.340600
     3  C   -0.031850
     4  C   -0.119061
     5  H    0.109550
     6  H    0.083550
     7  H    0.092239
     8  H    0.061742
 Sum of Mulliken charges =   0.00000

 Dipole moment (field-independent basis, Debye):
    X=              3.5515    Y=              0.7218    Z=             -0.0122  Tot=              3.6241
 Quadrupole moment (field-independent basis, Debye-Ang):
   XX=            -26.7373   YY=            -22.1945   ZZ=            -25.0390
   XY=             -0.9248   XZ=             -1.0406   YZ=             -0.0605

 Normal termination of Gaussian 09 at Wed Aug 26 12:20:30 2020.
