 Gaussian 09, Revision D.01,
 Gaussian 09:  ES64L-G09RevD.01 24-Apr-2013

 --------------------
 #p B2PLYPD3/Def2QZVP
 --------------------

 --------
 acrolein
 --------
 Symbolic Z-matrix:
 Charge =  0 Multiplicity = 1

                         Standard orientation:
 ---------------------------------------------------------------------
 Center     Atomic      Atomic             Coordinates (Angstroms)
 Number     Number       Type             X           Y           Z
 ---------------------------------------------------------------------
      1          6           0        0.669159    0.340013    0.005430
      2          8           0        1.794882   -0.113463   -0.012092
      3          6           0       -0.572382   -0.460852    0.021829
      4          6           0       -1.749670    0.144375   -0.013695
      5          1           0       -0.462661   -1.507509    0.012834
      6          1           0       -1.864928    1.229261    0.011492
      7          1           0       -2.616799   -0.406118   -0.036838
      8          1           0        0.502693    1.450850    0.027866
 ---------------------------------------------------------------------

 SCF Done:  E(RB2PLYPD3) =  -191.614430099     A.U. after   12 cycles
 E2(B2PLYPD3) =    -0.2468318857D+00 E(B2PLYPD3) =    -0.19186126198464D+03

 The electronic state is 1-A.
 Alpha  occ. eigenvalues --  -19.72858 -10.71762 -10.64854 -10.64117  -1.19299
 Alpha  occ. eigenvalues --   -0.93388  -0.75739  -0.67114  -0.57051  -0.56341
 Alpha  occ. eigenvalues --   -0.50727  -0.47512  -0.46626  -0.34896  -0.33721
 Alpha virt. eigenvalues --   -0.01639   0.05816   0.07284   0.08158   0.09719
 Alpha virt. eigenvalues --    0.12700   0.14025   0.15333   0.17521   0.19798
 Alpha virt. eigenvalues --    0.19990   0.21864   0.25433   0.26484   0.28508

 Mulliken charges:
               1
     1  C    0.157304
     2  O   -0.349384
     3  C   -0.040895
     4  C   -0.126631
     5  H    0.106818
     6  H    0.085966
     7  H    0.100922
     8  H    0.065900
 Sum of Mulliken charges =   0.00000

 Dipole moment (field-independent basis, Debye):
    X=             -3.5354    Y=              0.6957    Z=              0.0303  Tot=              3.6033
 Quadrupole moment (field-independent basis, Debye-Ang):
   XX=            -27.4693   YY=            -21.7201   ZZ=            -25.1288
   XY=              0.7946   XZ=              0.1291   YZ=              0.0394

 Normal termination of Gaussian 09 at Wed Aug 26 11:17:12 2020.
