 Gaussian 09, Revision D.01,
 Gaussian 09:  ES64L-G09RevD.01 24-Apr-2013

 --------------------
 #p B2PLYPD3/Def2QZVP
 --------------------

 --------
 acrolein
 --------
 Symbolic Z-matrix:
 Charge =  0 Multiplicity = 1

                         Standard orientation:
 ---------------------------------------------------------------------
 Center     Atomic      Atomic             Coordinates (Angstroms)
 Number     Number       Type             X           Y           Z
 ---------------------------------------------------------------------
      1          6           0       -0.682563    0.364650   -0.009508
      2          8           0       -1.798438   -0.115033   -0.029195
      3          6           0        0.536270   -0.463290    0.023259
      4          6           0        1.773674    0.123014   -0.004448
      5          1           0        0.352009   -1.516134    0.106432
      6          1           0        1.972548    1.249530   -0.134670
      7          1           0        2.793993   -0.424315   -0.047510
      8          1           0       -0.495326    1.464943    0.253494
 ---------------------------------------------------------------------

 SCF Done:  E(RB2PLYPD3) =  -191.600042831     A.U. after   13 cycles
 E2(B2PLYPD3) =    -0.2496598575D+00 E(B2PLYPD3) =    -0.19184970268837D+03

 The electronic state is 1-A.
 Alpha  occ. eigenvalues --  -19.73078 -10.72140 -10.67672 -10.65289  -1.19485
 Alpha  occ. eigenvalues --   -0.91745  -0.74722  -0.66352  -0.56430  -0.54910
 Alpha  occ. eigenvalues --   -0.50652  -0.46540  -0.45567  -0.34377  -0.33611
 Alpha virt. eigenvalues --   -0.02354   0.05327   0.06807   0.07718   0.09499
 Alpha virt. eigenvalues --    0.12004   0.13992   0.15269   0.17689   0.18963
 Alpha virt. eigenvalues --    0.19994   0.20992   0.24492   0.26939   0.28463

 Mulliken charges:
               1
     1  C    0.170371
     2  O   -0.347943
     3  C   -0.060288
     4  C   -0.120681
     5  H    0.117934
     6  H    0.078948
     7  H    0.092580
     8  H    0.069079
 Sum of Mulliken charges =   0.00000

 Dipole moment (field-independent basis, Debye):
    X=              3.4932    Y=              0.7385    Z=              0.0819  Tot=              3.5714
 Quadrupole moment (field-independent basis, Debye-Ang):
   XX=            -27.1896   YY=            -21.9889   ZZ=            -25.4880
   XY=             -0.4890   XZ=             -0.4677   YZ=             -0.1850

 Normal termination of Gaussian 09 at Wed Aug 26 11:00:00 2020.
