 Gaussian 09, Revision D.01,
 Gaussian 09:  ES64L-G09RevD.01 24-Apr-2013

 --------------------
 #p B2PLYPD3/Def2QZVP
 --------------------

 --------
 acrolein
 --------
 Symbolic Z-matrix:
 Charge =  0 Multiplicity = 1

                         Standard orientation:
 ---------------------------------------------------------------------
 Center     Atomic      Atomic             Coordinates (Angstroms)
 Number     Number       Type             X           Y           Z
 ---------------------------------------------------------------------
      1          6           0        0.680441    0.381353   -0.009862
      2          8           0        1.771178   -0.151997   -0.009900
      3          6           0       -0.529588   -0.438064   -0.013769
      4          6           0       -1.743982    0.124388    0.016919
      5          1           0       -0.486720   -1.500385    0.102792
      6          1           0       -1.804909    1.255105   -0.119225
      7          1           0       -2.765370   -0.488991   -0.027403
      8          1           0        0.446351    1.544189    0.163308
 ---------------------------------------------------------------------

 SCF Done:  E(RB2PLYPD3) =  -191.595993343     A.U. after   13 cycles
 E2(B2PLYPD3) =    -0.2497208167D+00 E(B2PLYPD3) =    -0.19184571415922D+03

 The electronic state is 1-A.
 Alpha  occ. eigenvalues --  -19.73316 -10.72864 -10.66942 -10.64200  -1.19775
 Alpha  occ. eigenvalues --   -0.92633  -0.74074  -0.65977  -0.55651  -0.55556
 Alpha  occ. eigenvalues --   -0.49919  -0.47024  -0.45472  -0.34682  -0.33913
 Alpha virt. eigenvalues --   -0.01909   0.05317   0.06536   0.07629   0.09752
 Alpha virt. eigenvalues --    0.12097   0.13495   0.15106   0.17821   0.19183
 Alpha virt. eigenvalues --    0.19952   0.20828   0.24636   0.26635   0.28661

 Mulliken charges:
               1
     1  C    0.160874
     2  O   -0.338062
     3  C   -0.044431
     4  C   -0.120498
     5  H    0.110857
     6  H    0.071345
     7  H    0.095548
     8  H    0.064367
 Sum of Mulliken charges =   0.00000

 Dipole moment (field-independent basis, Debye):
    X=             -3.3547    Y=              0.7498    Z=              0.0351  Tot=              3.4377
 Quadrupole moment (field-independent basis, Debye-Ang):
   XX=            -27.4757   YY=            -21.9017   ZZ=            -25.4539
   XY=              1.2624   XZ=              0.2320   YZ=             -0.2054

 Normal termination of Gaussian 09 at Wed Aug 26 13:21:26 2020.
