 Gaussian 09, Revision D.01,
 Gaussian 09:  ES64L-G09RevD.01 24-Apr-2013

 --------------------
 #p B2PLYPD3/Def2QZVP
 --------------------

 --------
 acrolein
 --------
 Symbolic Z-matrix:
 Charge =  0 Multiplicity = 1

                         Standard orientation:
 ---------------------------------------------------------------------
 Center     Atomic      Atomic             Coordinates (Angstroms)
 Number     Number       Type             X           Y           Z
 ---------------------------------------------------------------------
      1          6           0       -0.681842    0.365145    0.015578
      2          8           0       -1.780702   -0.130204   -0.014252
      3          6           0        0.554718   -0.443166    0.012013
      4          6           0        1.762988    0.131261   -0.015830
      5          1           0        0.428302   -1.515910   -0.003913
      6          1           0        1.849073    1.236383   -0.058843
      7          1           0        2.685789   -0.428066    0.048229
      8          1           0       -0.532725    1.429780    0.057981
 ---------------------------------------------------------------------

 SCF Done:  E(RB2PLYPD3) =  -191.616018724     A.U. after   12 cycles
 E2(B2PLYPD3) =    -0.2468568132D+00 E(B2PLYPD3) =    -0.19186287553704D+03

 The electronic state is 1-A.
 Alpha  occ. eigenvalues --  -19.72800 -10.71312 -10.65642 -10.64322  -1.19863
 Alpha  occ. eigenvalues --   -0.92547  -0.75327  -0.67303  -0.56538  -0.56287
 Alpha  occ. eigenvalues --   -0.50852  -0.46915  -0.46508  -0.34495  -0.33911
 Alpha virt. eigenvalues --   -0.01656   0.05718   0.07314   0.08131   0.09733
 Alpha virt. eigenvalues --    0.12440   0.14042   0.15455   0.17624   0.19432
 Alpha virt. eigenvalues --    0.19978   0.21603   0.25533   0.26528   0.28841

 Mulliken charges:
               1
     1  C    0.158035
     2  O   -0.346609
     3  C   -0.048272
     4  C   -0.132104
     5  H    0.107093
     6  H    0.078286
     7  H    0.103672
     8  H    0.079899
 Sum of Mulliken charges =   0.00000

 Dipole moment (field-independent basis, Debye):
    X=              3.3849    Y=              0.8310    Z=              0.0597  Tot=              3.4860
 Quadrupole moment (field-independent basis, Debye-Ang):
   XX=            -27.3895   YY=            -21.7002   ZZ=            -25.2312
   XY=             -1.0325   XZ=             -0.0438   YZ=             -0.0608

 Normal termination of Gaussian 09 at Wed Aug 26 14:25:13 2020.
