 Gaussian 09, Revision D.01,
 Gaussian 09:  ES64L-G09RevD.01 24-Apr-2013

 --------------------
 #p B2PLYPD3/Def2QZVP
 --------------------

 --------
 acrolein
 --------
 Symbolic Z-matrix:
 Charge =  0 Multiplicity = 1

                         Standard orientation:
 ---------------------------------------------------------------------
 Center     Atomic      Atomic             Coordinates (Angstroms)
 Number     Number       Type             X           Y           Z
 ---------------------------------------------------------------------
      1          6           0       -0.667813    0.345658    0.030888
      2          8           0       -1.777778   -0.111644   -0.028131
      3          6           0        0.569136   -0.472972    0.023099
      4          6           0        1.742177    0.145932   -0.025381
      5          1           0        0.460608   -1.503282   -0.001681
      6          1           0        1.878097    1.268813   -0.089931
      7          1           0        2.621513   -0.371107    0.051745
      8          1           0       -0.598991    1.387020    0.093274
 ---------------------------------------------------------------------

 SCF Done:  E(RB2PLYPD3) =  -191.608335945     A.U. after   12 cycles
 E2(B2PLYPD3) =    -0.2456817318D+00 E(B2PLYPD3) =    -0.19185401767667D+03

 The electronic state is 1-A.
 Alpha  occ. eigenvalues --  -19.72317 -10.70601 -10.65061 -10.64001  -1.19826
 Alpha  occ. eigenvalues --   -0.93030  -0.75464  -0.68207  -0.57035  -0.56878
 Alpha  occ. eigenvalues --   -0.50836  -0.47242  -0.46654  -0.34714  -0.33546
 Alpha virt. eigenvalues --   -0.01298   0.05762   0.07534   0.08126   0.09642
 Alpha virt. eigenvalues --    0.12573   0.14299   0.15496   0.17769   0.19290
 Alpha virt. eigenvalues --    0.20111   0.21846   0.25445   0.26391   0.28891

 Mulliken charges:
               1
     1  C    0.153148
     2  O   -0.348066
     3  C   -0.056651
     4  C   -0.122739
     5  H    0.113559
     6  H    0.079988
     7  H    0.098277
     8  H    0.082484
 Sum of Mulliken charges =   0.00000

 Dipole moment (field-independent basis, Debye):
    X=              3.4340    Y=              0.7723    Z=              0.1019  Tot=              3.5212
 Quadrupole moment (field-independent basis, Debye-Ang):
   XX=            -27.4368   YY=            -21.5218   ZZ=            -25.0583
   XY=             -0.9017   XZ=             -0.1718   YZ=             -0.0874

 Normal termination of Gaussian 09 at Wed Aug 26 10:10:38 2020.
