 Gaussian 09, Revision D.01,
 Gaussian 09:  ES64L-G09RevD.01 24-Apr-2013

 --------------------
 #p B2PLYPD3/Def2QZVP
 --------------------

 --------
 acrolein
 --------
 Symbolic Z-matrix:
 Charge =  0 Multiplicity = 1

                         Standard orientation:
 ---------------------------------------------------------------------
 Center     Atomic      Atomic             Coordinates (Angstroms)
 Number     Number       Type             X           Y           Z
 ---------------------------------------------------------------------
      1          6           0        0.660912    0.333552    0.022878
      2          8           0        1.801861   -0.096463   -0.041226
      3          6           0       -0.570246   -0.491434    0.023839
      4          6           0       -1.750410    0.149900   -0.055957
      5          1           0       -0.472698   -1.640223    0.116870
      6          1           0       -1.849370    1.379271   -0.087465
      7          1           0       -2.615563   -0.392726    0.090520
      8          1           0        0.481210    1.473275    0.265326
 ---------------------------------------------------------------------

 SCF Done:  E(RB2PLYPD3) =  -191.590965258     A.U. after   13 cycles
 E2(B2PLYPD3) =    -0.2500727370D+00 E(B2PLYPD3) =    -0.19184103799494D+03

 The electronic state is 1-A.
 Alpha  occ. eigenvalues --  -19.73032 -10.72546 -10.66636 -10.65846  -1.18952
 Alpha  occ. eigenvalues --   -0.92533  -0.74884  -0.64755  -0.56509  -0.54622
 Alpha  occ. eigenvalues --   -0.50301  -0.46251  -0.45732  -0.34663  -0.33668
 Alpha virt. eigenvalues --   -0.02007   0.05220   0.06223   0.07776   0.09511
 Alpha virt. eigenvalues --    0.12052   0.14042   0.15294   0.16793   0.18583
 Alpha virt. eigenvalues --    0.20025   0.21721   0.24582   0.26665   0.28536

 Mulliken charges:
               1
     1  C    0.166368
     2  O   -0.343844
     3  C   -0.050724
     4  C   -0.119133
     5  H    0.102150
     6  H    0.078750
     7  H    0.107124
     8  H    0.059309
 Sum of Mulliken charges =   0.00000

 Dipole moment (field-independent basis, Debye):
    X=             -3.5324    Y=              0.5635    Z=              0.3168  Tot=              3.5911
 Quadrupole moment (field-independent basis, Debye-Ang):
   XX=            -27.8968   YY=            -21.5490   ZZ=            -25.5263
   XY=              0.7083   XZ=              0.0441   YZ=             -0.2194

 Normal termination of Gaussian 09 at Wed Aug 26 14:53:52 2020.
