 Gaussian 09, Revision D.01,
 Gaussian 09:  ES64L-G09RevD.01 24-Apr-2013

 --------------------
 #p B2PLYPD3/Def2QZVP
 --------------------

 --------
 acrolein
 --------
 Symbolic Z-matrix:
 Charge =  0 Multiplicity = 1

                         Standard orientation:
 ---------------------------------------------------------------------
 Center     Atomic      Atomic             Coordinates (Angstroms)
 Number     Number       Type             X           Y           Z
 ---------------------------------------------------------------------
      1          6           0       -0.654135   -0.336481   -0.021145
      2          8           0       -1.790588    0.087906    0.038113
      3          6           0        0.565016    0.483630   -0.085048
      4          6           0        1.738590   -0.178715    0.004794
      5          1           0        0.419859    1.677591    0.092506
      6          1           0        1.814641   -1.313163    0.078137
      7          1           0        2.768307    0.399898    0.178575
      8          1           0       -0.574925   -1.278176   -0.045727
 ---------------------------------------------------------------------

 SCF Done:  E(RB2PLYPD3) =  -191.572881113     A.U. after   13 cycles
 E2(B2PLYPD3) =    -0.2487241139D+00 E(B2PLYPD3) =    -0.19182160522718D+03

 The electronic state is 1-A.
 Alpha  occ. eigenvalues --  -19.72120 -10.69694 -10.67704 -10.66194  -1.18986
 Alpha  occ. eigenvalues --   -0.92442  -0.75328  -0.67911  -0.56754  -0.54694
 Alpha  occ. eigenvalues --   -0.49566  -0.46413  -0.45054  -0.34504  -0.33760
 Alpha virt. eigenvalues --   -0.01881   0.05233   0.06207   0.07832   0.09418
 Alpha virt. eigenvalues --    0.12323   0.13833   0.15291   0.17123   0.19374
 Alpha virt. eigenvalues --    0.19829   0.20913   0.24489   0.27000   0.29167

 Mulliken charges:
               1
     1  C    0.167295
     2  O   -0.360333
     3  C   -0.044068
     4  C   -0.118784
     5  H    0.102061
     6  H    0.085838
     7  H    0.091598
     8  H    0.076394
 Sum of Mulliken charges =   0.00000

 Dipole moment (field-independent basis, Debye):
    X=              3.5631    Y=             -0.8391    Z=              0.1682  Tot=              3.6644
 Quadrupole moment (field-independent basis, Debye-Ang):
   XX=            -27.9487   YY=            -21.3733   ZZ=            -25.3921
   XY=              0.7050   XZ=              0.8233   YZ=              0.2024

 Normal termination of Gaussian 09 at Wed Aug 26 13:17:21 2020.
