 Gaussian 09, Revision D.01,
 Gaussian 09:  ES64L-G09RevD.01 24-Apr-2013

 --------------------
 #p B2PLYPD3/Def2QZVP
 --------------------

 --------
 acrolein
 --------
 Symbolic Z-matrix:
 Charge =  0 Multiplicity = 1

                         Standard orientation:
 ---------------------------------------------------------------------
 Center     Atomic      Atomic             Coordinates (Angstroms)
 Number     Number       Type             X           Y           Z
 ---------------------------------------------------------------------
      1          6           0        0.637434    0.325230    0.057442
      2          8           0        1.831361   -0.087972   -0.056312
      3          6           0       -0.584559   -0.465268    0.112875
      4          6           0       -1.764622    0.145205   -0.072478
      5          1           0       -0.346646   -1.675715   -0.075438
      6          1           0       -1.848720    1.278867    0.037270
      7          1           0       -2.620963   -0.414681   -0.104511
      8          1           0        0.435920    1.484302    0.006138
 ---------------------------------------------------------------------

 SCF Done:  E(RB2PLYPD3) =  -191.580903161     A.U. after   14 cycles
 E2(B2PLYPD3) =    -0.2528489788D+00 E(B2PLYPD3) =    -0.19183375213956D+03

 The electronic state is 1-A.
 Alpha  occ. eigenvalues --  -19.73117 -10.73010 -10.66823 -10.66597  -1.16180
 Alpha  occ. eigenvalues --   -0.93555  -0.76453  -0.64355  -0.56913  -0.54870
 Alpha  occ. eigenvalues --   -0.49575  -0.45490  -0.44975  -0.35020  -0.33769
 Alpha virt. eigenvalues --   -0.03137   0.05259   0.06123   0.07201   0.09573
 Alpha virt. eigenvalues --    0.12382   0.13230   0.14941   0.16454   0.19700
 Alpha virt. eigenvalues --    0.19836   0.21789   0.23462   0.26640   0.28375

 Mulliken charges:
               1
     1  C    0.167436
     2  O   -0.372897
     3  C   -0.036414
     4  C   -0.106954
     5  H    0.098013
     6  H    0.089153
     7  H    0.110822
     8  H    0.050840
 Sum of Mulliken charges =   0.00000

 Dipole moment (field-independent basis, Debye):
    X=             -3.9519    Y=              0.6404    Z=              0.0543  Tot=              4.0038
 Quadrupole moment (field-independent basis, Debye-Ang):
   XX=            -27.8968   YY=            -21.8243   ZZ=            -25.5627
   XY=              0.4187   XZ=              0.5112   YZ=              0.3004

 Normal termination of Gaussian 09 at Wed Aug 26 11:11:11 2020.
