 Gaussian 09, Revision D.01,
 Gaussian 09:  ES64L-G09RevD.01 24-Apr-2013

 --------------------
 #p B2PLYPD3/Def2QZVP
 --------------------

 --------
 acrolein
 --------
 Symbolic Z-matrix:
 Charge =  0 Multiplicity = 1

                         Standard orientation:
 ---------------------------------------------------------------------
 Center     Atomic      Atomic             Coordinates (Angstroms)
 Number     Number       Type             X           Y           Z
 ---------------------------------------------------------------------
      1          6           0        0.688442    0.347517   -0.023252
      2          8           0        1.786602   -0.122608    0.035408
      3          6           0       -0.559077   -0.455231   -0.068095
      4          6           0       -1.768661    0.154895    0.016485
      5          1           0       -0.490995   -1.535672    0.041277
      6          1           0       -1.781732    1.198663    0.051546
      7          1           0       -2.702167   -0.397347    0.120886
      8          1           0        0.517848    1.432136   -0.047807
 ---------------------------------------------------------------------

 SCF Done:  E(RB2PLYPD3) =  -191.613712698     A.U. after   12 cycles
 E2(B2PLYPD3) =    -0.2469470874D+00 E(B2PLYPD3) =    -0.19186065978512D+03

 The electronic state is 1-A.
 Alpha  occ. eigenvalues --  -19.72883 -10.71571 -10.65376 -10.64655  -1.20470
 Alpha  occ. eigenvalues --   -0.92380  -0.75244  -0.67202  -0.56796  -0.56257
 Alpha  occ. eigenvalues --   -0.50686  -0.47359  -0.47044  -0.34271  -0.33853
 Alpha virt. eigenvalues --   -0.01740   0.05853   0.07197   0.08064   0.09750
 Alpha virt. eigenvalues --    0.12671   0.13958   0.15390   0.17655   0.19749
 Alpha virt. eigenvalues --    0.20094   0.21445   0.24962   0.26418   0.28858

 Mulliken charges:
               1
     1  C    0.151117
     2  O   -0.336999
     3  C   -0.041377
     4  C   -0.133665
     5  H    0.102352
     6  H    0.083464
     7  H    0.103986
     8  H    0.071123
 Sum of Mulliken charges =   0.00000

 Dipole moment (field-independent basis, Debye):
    X=             -3.3794    Y=              0.7760    Z=              0.0773  Tot=              3.4683
 Quadrupole moment (field-independent basis, Debye-Ang):
   XX=            -27.2958   YY=            -21.8240   ZZ=            -25.2439
   XY=              1.0577   XZ=             -0.6095   YZ=             -0.1208

 Normal termination of Gaussian 09 at Wed Aug 26 08:40:09 2020.
