 Gaussian 09, Revision D.01,
 Gaussian 09:  ES64L-G09RevD.01 24-Apr-2013

 --------------------
 #p B2PLYPD3/Def2QZVP
 --------------------

 --------
 acrolein
 --------
 Symbolic Z-matrix:
 Charge =  0 Multiplicity = 1

                         Standard orientation:
 ---------------------------------------------------------------------
 Center     Atomic      Atomic             Coordinates (Angstroms)
 Number     Number       Type             X           Y           Z
 ---------------------------------------------------------------------
      1          6           0        0.670604    0.347021   -0.022555
      2          8           0        1.781682   -0.122967    0.013578
      3          6           0       -0.550794   -0.440310   -0.007942
      4          6           0       -1.752144    0.140986   -0.004465
      5          1           0       -0.457881   -1.520578    0.007180
      6          1           0       -1.824753    1.222262    0.041545
      7          1           0       -2.705535   -0.430087    0.038524
      8          1           0        0.528721    1.425962    0.013901
 ---------------------------------------------------------------------

 SCF Done:  E(RB2PLYPD3) =  -191.615923493     A.U. after   13 cycles
 E2(B2PLYPD3) =    -0.2469603713D+00 E(B2PLYPD3) =    -0.19186288386402D+03

 The electronic state is 1-A.
 Alpha  occ. eigenvalues --  -19.72666 -10.71198 -10.65845 -10.64278  -1.19707
 Alpha  occ. eigenvalues --   -0.93087  -0.75470  -0.67179  -0.56796  -0.56204
 Alpha  occ. eigenvalues --   -0.50477  -0.46985  -0.46597  -0.34659  -0.33891
 Alpha virt. eigenvalues --   -0.01831   0.05692   0.07131   0.08362   0.09727
 Alpha virt. eigenvalues --    0.12511   0.14095   0.15356   0.17602   0.19777
 Alpha virt. eigenvalues --    0.19918   0.21389   0.25584   0.26384   0.28896

 Mulliken charges:
               1
     1  C    0.153220
     2  O   -0.347969
     3  C   -0.034782
     4  C   -0.130106
     5  H    0.104282
     6  H    0.082625
     7  H    0.101360
     8  H    0.071370
 Sum of Mulliken charges =   0.00000

 Dipole moment (field-independent basis, Debye):
    X=             -3.4952    Y=              0.7676    Z=              0.0236  Tot=              3.5786
 Quadrupole moment (field-independent basis, Debye-Ang):
   XX=            -27.3491   YY=            -21.7873   ZZ=            -25.1968
   XY=              1.0243   XZ=             -0.2271   YZ=              0.0258

 Normal termination of Gaussian 09 at Wed Aug 26 16:19:51 2020.
