 Gaussian 09, Revision D.01,
 Gaussian 09:  ES64L-G09RevD.01 24-Apr-2013

 --------------------
 #p B2PLYPD3/Def2QZVP
 --------------------

 --------
 acrolein
 --------
 Symbolic Z-matrix:
 Charge =  0 Multiplicity = 1

                         Standard orientation:
 ---------------------------------------------------------------------
 Center     Atomic      Atomic             Coordinates (Angstroms)
 Number     Number       Type             X           Y           Z
 ---------------------------------------------------------------------
      1          6           0       -0.692775    0.373977    0.058729
      2          8           0       -1.745357   -0.165682   -0.066437
      3          6           0        0.541948   -0.402622    0.054710
      4          6           0        1.751910    0.118063   -0.072338
      5          1           0        0.534565   -1.415018    0.094305
      6          1           0        1.741007    1.126060   -0.215383
      7          1           0        2.616299   -0.418029    0.139891
      8          1           0       -0.535508    1.495934    0.266070
 ---------------------------------------------------------------------

 SCF Done:  E(RB2PLYPD3) =  -191.599319057     A.U. after   13 cycles
 E2(B2PLYPD3) =    -0.2458073400D+00 E(B2PLYPD3) =    -0.19184512639678D+03

 The electronic state is 1-A.
 Alpha  occ. eigenvalues --  -19.73143 -10.71952 -10.63460 -10.62697  -1.21215
 Alpha  occ. eigenvalues --   -0.93605  -0.75697  -0.67596  -0.57922  -0.56590
 Alpha  occ. eigenvalues --   -0.51720  -0.47698  -0.46804  -0.34584  -0.33867
 Alpha virt. eigenvalues --   -0.01590   0.06087   0.07177   0.08456   0.10026
 Alpha virt. eigenvalues --    0.12750   0.13944   0.15703   0.17405   0.19076
 Alpha virt. eigenvalues --    0.20133   0.22123   0.25137   0.26699   0.29031

 Mulliken charges:
               1
     1  C    0.143121
     2  O   -0.326487
     3  C   -0.033911
     4  C   -0.128697
     5  H    0.101778
     6  H    0.069947
     7  H    0.103695
     8  H    0.070555
 Sum of Mulliken charges =   0.00000

 Dipole moment (field-independent basis, Debye):
    X=              3.1452    Y=              0.8216    Z=              0.3191  Tot=              3.2663
 Quadrupole moment (field-independent basis, Debye-Ang):
   XX=            -27.1337   YY=            -21.9984   ZZ=            -24.8787
   XY=             -1.4735   XZ=             -0.1915   YZ=             -0.2964

 Normal termination of Gaussian 09 at Wed Aug 26 15:53:17 2020.
