 Gaussian 09, Revision D.01,
 Gaussian 09:  ES64L-G09RevD.01 24-Apr-2013

 --------------------
 #p B2PLYPD3/Def2QZVP
 --------------------

 --------
 acrolein
 --------
 Symbolic Z-matrix:
 Charge =  0 Multiplicity = 1

                         Standard orientation:
 ---------------------------------------------------------------------
 Center     Atomic      Atomic             Coordinates (Angstroms)
 Number     Number       Type             X           Y           Z
 ---------------------------------------------------------------------
      1          6           0        0.647139    0.313414    0.102556
      2          8           0        1.830526   -0.087443   -0.073957
      3          6           0       -0.564520   -0.465027    0.061007
      4          6           0       -1.745738    0.140049   -0.061791
      5          1           0       -0.466044   -1.557439    0.032810
      6          1           0       -1.959946    1.308120   -0.046072
      7          1           0       -2.732506   -0.400380   -0.053343
      8          1           0        0.493008    1.418629    0.047624
 ---------------------------------------------------------------------

 SCF Done:  E(RB2PLYPD3) =  -191.596310237     A.U. after   13 cycles
 E2(B2PLYPD3) =    -0.2511722299D+00 E(B2PLYPD3) =    -0.19184748246705D+03

 The electronic state is 1-A.
 Alpha  occ. eigenvalues --  -19.72842 -10.72106 -10.67712 -10.65383  -1.16478
 Alpha  occ. eigenvalues --   -0.93608  -0.75758  -0.66340  -0.56680  -0.55214
 Alpha  occ. eigenvalues --   -0.49566  -0.45578  -0.45358  -0.34936  -0.33785
 Alpha virt. eigenvalues --   -0.03000   0.05175   0.06744   0.07687   0.09405
 Alpha virt. eigenvalues --    0.12068   0.14073   0.15238   0.17494   0.19216
 Alpha virt. eigenvalues --    0.19847   0.21213   0.24614   0.26593   0.28725

 Mulliken charges:
               1
     1  C    0.160870
     2  O   -0.372713
     3  C   -0.032066
     4  C   -0.107788
     5  H    0.107704
     6  H    0.080195
     7  H    0.095985
     8  H    0.067811
 Sum of Mulliken charges =   0.00000

 Dipole moment (field-independent basis, Debye):
    X=             -3.9702    Y=              0.6354    Z=              0.2414  Tot=              4.0280
 Quadrupole moment (field-independent basis, Debye-Ang):
   XX=            -27.5755   YY=            -21.8351   ZZ=            -25.4446
   XY=              0.5008   XZ=              0.5131   YZ=             -0.0513

 Normal termination of Gaussian 09 at Wed Aug 26 12:43:15 2020.
