 Gaussian 09, Revision D.01,
 Gaussian 09:  ES64L-G09RevD.01 24-Apr-2013

 --------------------
 #p B2PLYPD3/Def2QZVP
 --------------------

 --------
 acrolein
 --------
 Symbolic Z-matrix:
 Charge =  0 Multiplicity = 1

                         Standard orientation:
 ---------------------------------------------------------------------
 Center     Atomic      Atomic             Coordinates (Angstroms)
 Number     Number       Type             X           Y           Z
 ---------------------------------------------------------------------
      1          6           0       -0.668031    0.329688    0.030033
      2          8           0       -1.784475   -0.113681   -0.025103
      3          6           0        0.571489   -0.465675    0.023960
      4          6           0        1.747139    0.144684   -0.028952
      5          1           0        0.465733   -1.502327    0.003461
      6          1           0        1.817839    1.264352   -0.043838
      7          1           0        2.596235   -0.407289    0.034665
      8          1           0       -0.507587    1.502529    0.056294
 ---------------------------------------------------------------------

 SCF Done:  E(RB2PLYPD3) =  -191.608581613     A.U. after   12 cycles
 E2(B2PLYPD3) =    -0.2469753870D+00 E(B2PLYPD3) =    -0.19185555700009D+03

 The electronic state is 1-A.
 Alpha  occ. eigenvalues --  -19.72966 -10.72120 -10.65039 -10.64025  -1.20082
 Alpha  occ. eigenvalues --   -0.93442  -0.75494  -0.66386  -0.57338  -0.55798
 Alpha  occ. eigenvalues --   -0.50681  -0.47645  -0.47074  -0.34960  -0.33527
 Alpha virt. eigenvalues --   -0.01577   0.05843   0.07105   0.08299   0.09772
 Alpha virt. eigenvalues --    0.12555   0.13828   0.15353   0.17391   0.19541
 Alpha virt. eigenvalues --    0.19968   0.21873   0.25437   0.26386   0.28768

 Mulliken charges:
               1
     1  C    0.161102
     2  O   -0.338770
     3  C   -0.040925
     4  C   -0.122458
     5  H    0.105435
     6  H    0.085913
     7  H    0.104237
     8  H    0.045467
 Sum of Mulliken charges =   0.00000

 Dipole moment (field-independent basis, Debye):
    X=              3.4530    Y=              0.5678    Z=              0.0987  Tot=              3.5008
 Quadrupole moment (field-independent basis, Debye-Ang):
   XX=            -27.4161   YY=            -21.8289   ZZ=            -25.1700
   XY=             -0.8586   XZ=             -0.0987   YZ=             -0.0551

 Normal termination of Gaussian 09 at Wed Aug 26 09:06:44 2020.
