 Gaussian 09, Revision D.01,
 Gaussian 09:  ES64L-G09RevD.01 24-Apr-2013

 --------------------
 #p B2PLYPD3/Def2QZVP
 --------------------

 --------
 acrolein
 --------
 Symbolic Z-matrix:
 Charge =  0 Multiplicity = 1

                         Standard orientation:
 ---------------------------------------------------------------------
 Center     Atomic      Atomic             Coordinates (Angstroms)
 Number     Number       Type             X           Y           Z
 ---------------------------------------------------------------------
      1          6           0       -0.686021    0.389868   -0.033899
      2          8           0       -1.792469   -0.151884    0.032476
      3          6           0        0.584879   -0.451287   -0.016796
      4          6           0        1.745439    0.148678   -0.000807
      5          1           0        0.551684   -1.518677    0.020083
      6          1           0        1.767782    1.154702    0.288629
      7          1           0        2.621980   -0.406742   -0.080619
      8          1           0       -0.467470    1.462230   -0.178888
 ---------------------------------------------------------------------

 SCF Done:  E(RB2PLYPD3) =  -191.603047140     A.U. after   14 cycles
 E2(B2PLYPD3) =    -0.2479573006D+00 E(B2PLYPD3) =    -0.19185100444044D+03

 The electronic state is 1-A.
 Alpha  occ. eigenvalues --  -19.73382 -10.72727 -10.63887 -10.63546  -1.18434
 Alpha  occ. eigenvalues --   -0.93383  -0.75052  -0.67422  -0.57221  -0.55896
 Alpha  occ. eigenvalues --   -0.50706  -0.47525  -0.45830  -0.34697  -0.33871
 Alpha virt. eigenvalues --   -0.01553   0.05900   0.07019   0.07256   0.09870
 Alpha virt. eigenvalues --    0.12815   0.13837   0.15485   0.17192   0.19211
 Alpha virt. eigenvalues --    0.20637   0.21844   0.24239   0.26808   0.28044

 Mulliken charges:
               1
     1  C    0.156297
     2  O   -0.348206
     3  C   -0.051890
     4  C   -0.128497
     5  H    0.101703
     6  H    0.078852
     7  H    0.097103
     8  H    0.094638
 Sum of Mulliken charges =   0.00000

 Dipole moment (field-independent basis, Debye):
    X=              3.3382    Y=              0.9014    Z=              0.0188  Tot=              3.4578
 Quadrupole moment (field-independent basis, Debye-Ang):
   XX=            -27.9297   YY=            -21.5908   ZZ=            -25.0470
   XY=             -1.3534   XZ=              0.4187   YZ=              0.2336

 Normal termination of Gaussian 09 at Wed Aug 26 14:04:22 2020.
