 Gaussian 09, Revision D.01,
 Gaussian 09:  ES64L-G09RevD.01 24-Apr-2013

 --------------------
 #p B2PLYPD3/Def2QZVP
 --------------------

 --------
 acrolein
 --------
 Symbolic Z-matrix:
 Charge =  0 Multiplicity = 1

                         Standard orientation:
 ---------------------------------------------------------------------
 Center     Atomic      Atomic             Coordinates (Angstroms)
 Number     Number       Type             X           Y           Z
 ---------------------------------------------------------------------
      1          6           0        0.637525    0.311688    0.062211
      2          8           0        1.817317   -0.087996   -0.059414
      3          6           0       -0.581442   -0.495892    0.005149
      4          6           0       -1.729998    0.158893   -0.064798
      5          1           0       -0.590960   -1.518113    0.228994
      6          1           0       -1.793824    1.332807   -0.057118
      7          1           0       -2.496072   -0.381136    0.037156
      8          1           0        0.385811    1.422276    0.250904
 ---------------------------------------------------------------------

 SCF Done:  E(RB2PLYPD3) =  -191.581456097     A.U. after   13 cycles
 E2(B2PLYPD3) =    -0.2498371409D+00 E(B2PLYPD3) =    -0.19183129323841D+03

 The electronic state is 1-A.
 Alpha  occ. eigenvalues --  -19.73068 -10.72612 -10.64889 -10.64263  -1.17075
 Alpha  occ. eigenvalues --   -0.94556  -0.76664  -0.66748  -0.57737  -0.54969
 Alpha  occ. eigenvalues --   -0.50178  -0.48101  -0.45086  -0.35037  -0.33850
 Alpha virt. eigenvalues --   -0.02275   0.05570   0.06461   0.07708   0.09631
 Alpha virt. eigenvalues --    0.12672   0.14076   0.14818   0.17603   0.19013
 Alpha virt. eigenvalues --    0.20216   0.21901   0.24313   0.27080   0.28568

 Mulliken charges:
               1
     1  C    0.152646
     2  O   -0.361284
     3  C   -0.022630
     4  C   -0.122845
     5  H    0.097476
     6  H    0.085492
     7  H    0.104887
     8  H    0.066259
 Sum of Mulliken charges =   0.00000

 Dipole moment (field-independent basis, Debye):
    X=             -3.8020    Y=              0.5707    Z=              0.5002  Tot=              3.8770
 Quadrupole moment (field-independent basis, Debye-Ang):
   XX=            -28.1965   YY=            -21.5818   ZZ=            -25.1242
   XY=              0.7213   XZ=              0.0794   YZ=             -0.3219

 Normal termination of Gaussian 09 at Wed Aug 26 13:55:06 2020.
