 Gaussian 09, Revision D.01,
 Gaussian 09:  ES64L-G09RevD.01 24-Apr-2013

 --------------------
 #p B2PLYPD3/Def2QZVP
 --------------------

 --------
 acrolein
 --------
 Symbolic Z-matrix:
 Charge =  0 Multiplicity = 1

                         Standard orientation:
 ---------------------------------------------------------------------
 Center     Atomic      Atomic             Coordinates (Angstroms)
 Number     Number       Type             X           Y           Z
 ---------------------------------------------------------------------
      1          6           0       -0.674249    0.335770    0.042672
      2          8           0       -1.791799   -0.105654   -0.042905
      3          6           0        0.568925   -0.467927    0.007383
      4          6           0        1.749483    0.151526   -0.021350
      5          1           0        0.468789   -1.543394    0.127679
      6          1           0        1.912351    1.266649   -0.083467
      7          1           0        2.640955   -0.404652   -0.023056
      8          1           0       -0.552654    1.410410    0.149855
 ---------------------------------------------------------------------

 SCF Done:  E(RB2PLYPD3) =  -191.613353072     A.U. after   12 cycles
 E2(B2PLYPD3) =    -0.2467163173D+00 E(B2PLYPD3) =    -0.19186006938966D+03

 The electronic state is 1-A.
 Alpha  occ. eigenvalues --  -19.72623 -10.71225 -10.65561 -10.64676  -1.19757
 Alpha  occ. eigenvalues --   -0.92787  -0.75348  -0.66954  -0.56693  -0.56321
 Alpha  occ. eigenvalues --   -0.50742  -0.47027  -0.46408  -0.34736  -0.33628
 Alpha virt. eigenvalues --   -0.01513   0.05750   0.07111   0.08126   0.09574
 Alpha virt. eigenvalues --    0.12559   0.14193   0.15222   0.17652   0.19415
 Alpha virt. eigenvalues --    0.20060   0.21692   0.25063   0.26644   0.28546

 Mulliken charges:
               1
     1  C    0.154782
     2  O   -0.344309
     3  C   -0.048263
     4  C   -0.126384
     5  H    0.106053
     6  H    0.084791
     7  H    0.098850
     8  H    0.074479
 Sum of Mulliken charges =   0.00000

 Dipole moment (field-independent basis, Debye):
    X=              3.4845    Y=              0.7228    Z=              0.2234  Tot=              3.5657
 Quadrupole moment (field-independent basis, Debye-Ang):
   XX=            -27.4454   YY=            -21.6421   ZZ=            -25.1985
   XY=             -0.7458   XZ=             -0.3410   YZ=             -0.2323

 Normal termination of Gaussian 09 at Wed Aug 26 21:01:44 2020.
