 Gaussian 09, Revision D.01,
 Gaussian 09:  ES64L-G09RevD.01 24-Apr-2013

 --------------------
 #p B2PLYPD3/Def2QZVP
 --------------------

 --------
 acrolein
 --------
 Symbolic Z-matrix:
 Charge =  0 Multiplicity = 1

                         Standard orientation:
 ---------------------------------------------------------------------
 Center     Atomic      Atomic             Coordinates (Angstroms)
 Number     Number       Type             X           Y           Z
 ---------------------------------------------------------------------
      1          6           0        0.669212    0.332406   -0.021071
      2          8           0        1.790064   -0.105081    0.024820
      3          6           0       -0.561674   -0.456732   -0.023603
      4          6           0       -1.754473    0.150594    0.019223
      5          1           0       -0.409926   -1.545409   -0.058054
      6          1           0       -1.842161    1.234416   -0.019362
      7          1           0       -2.683634   -0.428497    0.070164
      8          1           0        0.496821    1.422536   -0.038602
 ---------------------------------------------------------------------

 SCF Done:  E(RB2PLYPD3) =  -191.616093123     A.U. after   12 cycles
 E2(B2PLYPD3) =    -0.2471289835D+00 E(B2PLYPD3) =    -0.19186322210612D+03

 The electronic state is 1-A.
 Alpha  occ. eigenvalues --  -19.72743 -10.71266 -10.65957 -10.64681  -1.19844
 Alpha  occ. eigenvalues --   -0.92962  -0.75503  -0.66749  -0.56549  -0.56183
 Alpha  occ. eigenvalues --   -0.50567  -0.47209  -0.46705  -0.34684  -0.33697
 Alpha virt. eigenvalues --   -0.01825   0.05721   0.07086   0.08375   0.09731
 Alpha virt. eigenvalues --    0.12564   0.13917   0.15321   0.17392   0.19781
 Alpha virt. eigenvalues --    0.19971   0.21513   0.25366   0.26582   0.28631

 Mulliken charges:
               1
     1  C    0.158701
     2  O   -0.347261
     3  C   -0.033531
     4  C   -0.133383
     5  H    0.102263
     6  H    0.089859
     7  H    0.103317
     8  H    0.060035
 Sum of Mulliken charges =   0.00000

 Dipole moment (field-independent basis, Debye):
    X=             -3.5161    Y=              0.6834    Z=             -0.0984  Tot=              3.5832
 Quadrupole moment (field-independent basis, Debye-Ang):
   XX=            -27.4118   YY=            -21.8089   ZZ=            -25.2356
   XY=              0.7126   XZ=             -0.2363   YZ=             -0.0027

 Normal termination of Gaussian 09 at Wed Aug 26 16:38:35 2020.
