 Gaussian 09, Revision D.01,
 Gaussian 09:  ES64L-G09RevD.01 24-Apr-2013

 --------------------
 #p B2PLYPD3/Def2QZVP
 --------------------

 --------
 acrolein
 --------
 Symbolic Z-matrix:
 Charge =  0 Multiplicity = 1

                         Standard orientation:
 ---------------------------------------------------------------------
 Center     Atomic      Atomic             Coordinates (Angstroms)
 Number     Number       Type             X           Y           Z
 ---------------------------------------------------------------------
      1          6           0        0.646775    0.347610    0.033574
      2          8           0        1.786009   -0.155506   -0.067081
      3          6           0       -0.548927   -0.409959    0.086101
      4          6           0       -1.736388    0.129534   -0.037874
      5          1           0       -0.478084   -1.373763    0.120528
      6          1           0       -1.642787    1.079524   -0.197374
      7          1           0       -2.742974   -0.484717   -0.127179
      8          1           0        0.407018    1.619895    0.249861
 ---------------------------------------------------------------------

 SCF Done:  E(RB2PLYPD3) =  -191.557423588     A.U. after   13 cycles
 E2(B2PLYPD3) =    -0.2510699685D+00 E(B2PLYPD3) =    -0.19180849355665D+03

 The electronic state is 1-A.
 Alpha  occ. eigenvalues --  -19.73706 -10.73834 -10.65274 -10.62758  -1.17873
 Alpha  occ. eigenvalues --   -0.95600  -0.76309  -0.68049  -0.56462  -0.55174
 Alpha  occ. eigenvalues --   -0.49827  -0.47889  -0.46241  -0.35293  -0.33925
 Alpha virt. eigenvalues --   -0.02732   0.05491   0.06117   0.08078   0.09900
 Alpha virt. eigenvalues --    0.12120   0.13045   0.15179   0.17464   0.19011
 Alpha virt. eigenvalues --    0.20791   0.21040   0.24929   0.25994   0.28665

 Mulliken charges:
               1
     1  C    0.157178
     2  O   -0.357149
     3  C   -0.007701
     4  C   -0.118656
     5  H    0.104997
     6  H    0.086393
     7  H    0.107908
     8  H    0.027031
 Sum of Mulliken charges =   0.00000

 Dipole moment (field-independent basis, Debye):
    X=             -3.7223    Y=              0.4896    Z=              0.0686  Tot=              3.7550
 Quadrupole moment (field-independent basis, Debye-Ang):
   XX=            -27.1953   YY=            -22.4526   ZZ=            -25.0891
   XY=              1.3441   XZ=              0.8119   YZ=             -0.1503

 Normal termination of Gaussian 09 at Wed Aug 26 11:47:32 2020.
