 Gaussian 09, Revision D.01,
 Gaussian 09:  ES64L-G09RevD.01 24-Apr-2013

 --------------------
 #p B2PLYPD3/Def2QZVP
 --------------------

 --------
 acrolein
 --------
 Symbolic Z-matrix:
 Charge =  0 Multiplicity = 1

                         Standard orientation:
 ---------------------------------------------------------------------
 Center     Atomic      Atomic             Coordinates (Angstroms)
 Number     Number       Type             X           Y           Z
 ---------------------------------------------------------------------
      1          6           0        0.670638    0.350575    0.008971
      2          8           0        1.784270   -0.127834   -0.014056
      3          6           0       -0.554226   -0.443954    0.009296
      4          6           0       -1.751921    0.136424   -0.019557
      5          1           0       -0.450926   -1.501097    0.046447
      6          1           0       -1.823510    1.215904   -0.015298
      7          1           0       -2.674512   -0.442740    0.019133
      8          1           0        0.487836    1.492332    0.069905
 ---------------------------------------------------------------------

 SCF Done:  E(RB2PLYPD3) =  -191.614897618     A.U. after   12 cycles
 E2(B2PLYPD3) =    -0.2475814062D+00 E(B2PLYPD3) =    -0.19186247902427D+03

 The electronic state is 1-A.
 Alpha  occ. eigenvalues --  -19.72990 -10.72081 -10.65540 -10.64105  -1.19546
 Alpha  occ. eigenvalues --   -0.93224  -0.75362  -0.66661  -0.56533  -0.56189
 Alpha  occ. eigenvalues --   -0.50497  -0.47166  -0.46771  -0.34748  -0.33856
 Alpha virt. eigenvalues --   -0.01844   0.05740   0.07031   0.08262   0.09799
 Alpha virt. eigenvalues --    0.12514   0.13790   0.15347   0.17499   0.19717
 Alpha virt. eigenvalues --    0.20008   0.21522   0.25524   0.26368   0.28785

 Mulliken charges:
               1
     1  C    0.157305
     2  O   -0.346309
     3  C   -0.033943
     4  C   -0.129351
     5  H    0.106157
     6  H    0.084445
     7  H    0.102612
     8  H    0.059085
 Sum of Mulliken charges =   0.00000

 Dipole moment (field-independent basis, Debye):
    X=             -3.4946    Y=              0.7008    Z=              0.1079  Tot=              3.5658
 Quadrupole moment (field-independent basis, Debye-Ang):
   XX=            -27.3859   YY=            -21.8489   ZZ=            -25.2308
   XY=              0.9647   XZ=              0.0161   YZ=             -0.0616

 Normal termination of Gaussian 09 at Wed Aug 26 15:51:41 2020.
