 Gaussian 09, Revision D.01,
 Gaussian 09:  ES64L-G09RevD.01 24-Apr-2013

 --------------------
 #p B2PLYPD3/Def2QZVP
 --------------------

 --------
 acrolein
 --------
 Symbolic Z-matrix:
 Charge =  0 Multiplicity = 1

                         Standard orientation:
 ---------------------------------------------------------------------
 Center     Atomic      Atomic             Coordinates (Angstroms)
 Number     Number       Type             X           Y           Z
 ---------------------------------------------------------------------
      1          6           0       -0.652613    0.334081   -0.033307
      2          8           0       -1.798954   -0.109765    0.025237
      3          6           0        0.567755   -0.455243   -0.012890
      4          6           0        1.747493    0.145511    0.004519
      5          1           0        0.440545   -1.529746   -0.020365
      6          1           0        1.793481    1.231796    0.070602
      7          1           0        2.659135   -0.411308    0.035286
      8          1           0       -0.477337    1.441288   -0.037353
 ---------------------------------------------------------------------

 SCF Done:  E(RB2PLYPD3) =  -191.614775391     A.U. after   12 cycles
 E2(B2PLYPD3) =    -0.2481172907D+00 E(B2PLYPD3) =    -0.19186289268162D+03

 The electronic state is 1-A.
 Alpha  occ. eigenvalues --  -19.72829 -10.71791 -10.65563 -10.64389  -1.18275
 Alpha  occ. eigenvalues --   -0.93758  -0.75871  -0.66867  -0.56785  -0.56159
 Alpha  occ. eigenvalues --   -0.50297  -0.47117  -0.46265  -0.34936  -0.33858
 Alpha virt. eigenvalues --   -0.02111   0.05717   0.07032   0.08142   0.09767
 Alpha virt. eigenvalues --    0.12659   0.13881   0.15229   0.17324   0.19801
 Alpha virt. eigenvalues --    0.20028   0.21627   0.25392   0.26489   0.28919

 Mulliken charges:
               1
     1  C    0.157036
     2  O   -0.360198
     3  C   -0.027248
     4  C   -0.126529
     5  H    0.103406
     6  H    0.085956
     7  H    0.104869
     8  H    0.062707
 Sum of Mulliken charges =   0.00000

 Dipole moment (field-independent basis, Debye):
    X=              3.6744    Y=              0.6793    Z=             -0.0348  Tot=              3.7368
 Quadrupole moment (field-independent basis, Debye-Ang):
   XX=            -27.6154   YY=            -21.7737   ZZ=            -25.1930
   XY=             -0.8527   XZ=              0.3019   YZ=              0.0832

 Normal termination of Gaussian 09 at Wed Aug 26 19:49:21 2020.
