 Gaussian 09, Revision D.01,
 Gaussian 09:  ES64L-G09RevD.01 24-Apr-2013

 --------------------
 #p B2PLYPD3/Def2QZVP
 --------------------

 --------
 acrolein
 --------
 Symbolic Z-matrix:
 Charge =  0 Multiplicity = 1

                         Standard orientation:
 ---------------------------------------------------------------------
 Center     Atomic      Atomic             Coordinates (Angstroms)
 Number     Number       Type             X           Y           Z
 ---------------------------------------------------------------------
      1          6           0        0.674969    0.351910    0.013672
      2          8           0        1.788233   -0.131510   -0.014312
      3          6           0       -0.558903   -0.445180    0.014190
      4          6           0       -1.755589    0.133671   -0.015877
      5          1           0       -0.480061   -1.484870   -0.000616
      6          1           0       -1.809554    1.214049   -0.057496
      7          1           0       -2.674504   -0.416462    0.039276
      8          1           0        0.495389    1.496966    0.061429
 ---------------------------------------------------------------------

 SCF Done:  E(RB2PLYPD3) =  -191.613792476     A.U. after   12 cycles
 E2(B2PLYPD3) =    -0.2475024521D+00 E(B2PLYPD3) =    -0.19186129492763D+03

 The electronic state is 1-A.
 Alpha  occ. eigenvalues --  -19.73068 -10.72277 -10.65270 -10.63928  -1.19481
 Alpha  occ. eigenvalues --   -0.93246  -0.75343  -0.66922  -0.56798  -0.56125
 Alpha  occ. eigenvalues --   -0.50647  -0.47196  -0.46783  -0.34746  -0.33895
 Alpha virt. eigenvalues --   -0.01819   0.05776   0.07155   0.08160   0.09784
 Alpha virt. eigenvalues --    0.12531   0.13844   0.15385   0.17581   0.19648
 Alpha virt. eigenvalues --    0.20040   0.21517   0.25517   0.26307   0.28907

 Mulliken charges:
               1
     1  C    0.156239
     2  O   -0.345256
     3  C   -0.036051
     4  C   -0.127415
     5  H    0.106926
     6  H    0.080436
     7  H    0.103326
     8  H    0.061794
 Sum of Mulliken charges =   0.00000

 Dipole moment (field-independent basis, Debye):
    X=             -3.4874    Y=              0.7124    Z=              0.0509  Tot=              3.5598
 Quadrupole moment (field-independent basis, Debye-Ang):
   XX=            -27.3380   YY=            -21.8772   ZZ=            -25.2038
   XY=              1.0492   XZ=              0.0582   YZ=             -0.0563

 Normal termination of Gaussian 09 at Wed Aug 26 15:54:14 2020.
