 Gaussian 09, Revision D.01,
 Gaussian 09:  ES64L-G09RevD.01 24-Apr-2013

 --------------------
 #p B2PLYPD3/Def2QZVP
 --------------------

 --------
 acrolein
 --------
 Symbolic Z-matrix:
 Charge =  0 Multiplicity = 1

                         Standard orientation:
 ---------------------------------------------------------------------
 Center     Atomic      Atomic             Coordinates (Angstroms)
 Number     Number       Type             X           Y           Z
 ---------------------------------------------------------------------
      1          6           0       -0.686767    0.335708    0.074045
      2          8           0       -1.752793   -0.135229   -0.082668
      3          6           0        0.519914   -0.420566    0.018975
      4          6           0        1.754244    0.139333   -0.037735
      5          1           0        0.447146   -1.455861    0.284735
      6          1           0        1.788262    1.169199   -0.186057
      7          1           0        2.763723   -0.485578   -0.059713
      8          1           0       -0.501139    1.527225    0.290675
 ---------------------------------------------------------------------

 SCF Done:  E(RB2PLYPD3) =  -191.594332786     A.U. after   13 cycles
 E2(B2PLYPD3) =    -0.2476685167D+00 E(B2PLYPD3) =    -0.19184200130262D+03

 The electronic state is 1-A.
 Alpha  occ. eigenvalues --  -19.73182 -10.72022 -10.66386 -10.64082  -1.22112
 Alpha  occ. eigenvalues --   -0.92865  -0.75358  -0.65815  -0.56645  -0.56095
 Alpha  occ. eigenvalues --   -0.50620  -0.48385  -0.46121  -0.34497  -0.33537
 Alpha virt. eigenvalues --   -0.01950   0.05627   0.06591   0.08441   0.09764
 Alpha virt. eigenvalues --    0.12243   0.13538   0.14710   0.17909   0.19319
 Alpha virt. eigenvalues --    0.20280   0.20927   0.24381   0.26762   0.29307

 Mulliken charges:
               1
     1  C    0.148273
     2  O   -0.316024
     3  C   -0.023877
     4  C   -0.133310
     5  H    0.102614
     6  H    0.086606
     7  H    0.101139
     8  H    0.034578
 Sum of Mulliken charges =   0.00000

 Dipole moment (field-independent basis, Debye):
    X=              3.2824    Y=              0.5792    Z=              0.3596  Tot=              3.3524
 Quadrupole moment (field-independent basis, Debye-Ang):
   XX=            -26.7733   YY=            -22.4250   ZZ=            -25.2067
   XY=             -1.0059   XZ=             -0.6301   YZ=             -0.5255

 Normal termination of Gaussian 09 at Wed Aug 26 13:22:32 2020.
