 Gaussian 09, Revision D.01,
 Gaussian 09:  ES64L-G09RevD.01 24-Apr-2013

 --------------------
 #p B2PLYPD3/Def2QZVP
 --------------------

 --------
 acrolein
 --------
 Symbolic Z-matrix:
 Charge =  0 Multiplicity = 1

                         Standard orientation:
 ---------------------------------------------------------------------
 Center     Atomic      Atomic             Coordinates (Angstroms)
 Number     Number       Type             X           Y           Z
 ---------------------------------------------------------------------
      1          6           0        0.672595    0.343729    0.006232
      2          8           0        1.795192   -0.112471    0.008128
      3          6           0       -0.558763   -0.469228   -0.023478
      4          6           0       -1.754413    0.147541    0.002098
      5          1           0       -0.489427   -1.507326   -0.018502
      6          1           0       -1.870175    1.259331   -0.025668
      7          1           0       -2.664569   -0.413653    0.091784
      8          1           0        0.506119    1.429162   -0.021755
 ---------------------------------------------------------------------

 SCF Done:  E(RB2PLYPD3) =  -191.614148422     A.U. after   13 cycles
 E2(B2PLYPD3) =    -0.2473217717D+00 E(B2PLYPD3) =    -0.19186147019408D+03

 The electronic state is 1-A.
 Alpha  occ. eigenvalues --  -19.72726 -10.71537 -10.65911 -10.64278  -1.19372
 Alpha  occ. eigenvalues --   -0.92783  -0.75255  -0.67503  -0.56443  -0.56334
 Alpha  occ. eigenvalues --   -0.50486  -0.47340  -0.46601  -0.34491  -0.33774
 Alpha virt. eigenvalues --   -0.01821   0.05678   0.07298   0.08009   0.09627
 Alpha virt. eigenvalues --    0.12536   0.14089   0.15366   0.17775   0.19596
 Alpha virt. eigenvalues --    0.19946   0.21465   0.25244   0.26445   0.28634

 Mulliken charges:
               1
     1  C    0.154943
     2  O   -0.348904
     3  C   -0.046019
     4  C   -0.128557
     5  H    0.110445
     6  H    0.083820
     7  H    0.098918
     8  H    0.075354
 Sum of Mulliken charges =   0.00000

 Dipole moment (field-independent basis, Debye):
    X=             -3.5343    Y=              0.7291    Z=              0.0245  Tot=              3.6088
 Quadrupole moment (field-independent basis, Debye-Ang):
   XX=            -27.5213   YY=            -21.6461   ZZ=            -25.2394
   XY=              0.8651   XZ=             -0.2280   YZ=             -0.0785

 Normal termination of Gaussian 09 at Wed Aug 26 12:40:07 2020.
