 Gaussian 09, Revision D.01,
 Gaussian 09:  ES64L-G09RevD.01 24-Apr-2013

 --------------------
 #p B2PLYPD3/Def2QZVP
 --------------------

 --------
 acrolein
 --------
 Symbolic Z-matrix:
 Charge =  0 Multiplicity = 1

                         Standard orientation:
 ---------------------------------------------------------------------
 Center     Atomic      Atomic             Coordinates (Angstroms)
 Number     Number       Type             X           Y           Z
 ---------------------------------------------------------------------
      1          6           0       -0.680597    0.384473    0.004054
      2          8           0       -1.756356   -0.166010   -0.040858
      3          6           0        0.516369   -0.437182    0.081629
      4          6           0        1.762770    0.135718   -0.052665
      5          1           0        0.499906   -1.512601    0.084267
      6          1           0        1.707207    1.148602    0.077484
      7          1           0        2.749420   -0.448162   -0.136837
      8          1           0       -0.496937    1.642184    0.103844
 ---------------------------------------------------------------------

 SCF Done:  E(RB2PLYPD3) =  -191.585199164     A.U. after   13 cycles
 E2(B2PLYPD3) =    -0.2505543112D+00 E(B2PLYPD3) =    -0.19183575347501D+03

 The electronic state is 1-A.
 Alpha  occ. eigenvalues --  -19.73287 -10.73392 -10.65954 -10.64723  -1.20153
 Alpha  occ. eigenvalues --   -0.92365  -0.74650  -0.65898  -0.56363  -0.55202
 Alpha  occ. eigenvalues --   -0.49922  -0.47631  -0.46334  -0.33953  -0.33682
 Alpha virt. eigenvalues --   -0.02283   0.05568   0.06238   0.07753   0.09873
 Alpha virt. eigenvalues --    0.12077   0.13424   0.15222   0.17134   0.19744
 Alpha virt. eigenvalues --    0.20434   0.21001   0.24654   0.25797   0.29029

 Mulliken charges:
               1
     1  C    0.161327
     2  O   -0.331530
     3  C   -0.039233
     4  C   -0.133775
     5  H    0.107341
     6  H    0.085094
     7  H    0.105595
     8  H    0.045182
 Sum of Mulliken charges =   0.00000

 Dipole moment (field-independent basis, Debye):
    X=              3.3736    Y=              0.6977    Z=              0.1273  Tot=              3.4473
 Quadrupole moment (field-independent basis, Debye-Ang):
   XX=            -27.0847   YY=            -22.0011   ZZ=            -25.5067
   XY=             -1.5173   XZ=             -0.4087   YZ=              0.1591

 Normal termination of Gaussian 09 at Wed Aug 26 14:33:31 2020.
