 Gaussian 09, Revision D.01,
 Gaussian 09:  ES64L-G09RevD.01 24-Apr-2013

 --------------------
 #p B2PLYPD3/Def2QZVP
 --------------------

 --------
 acrolein
 --------
 Symbolic Z-matrix:
 Charge =  0 Multiplicity = 1

                         Standard orientation:
 ---------------------------------------------------------------------
 Center     Atomic      Atomic             Coordinates (Angstroms)
 Number     Number       Type             X           Y           Z
 ---------------------------------------------------------------------
      1          6           0        0.670306    0.353461   -0.012708
      2          8           0        1.777874   -0.116480    0.030182
      3          6           0       -0.559461   -0.475387   -0.055364
      4          6           0       -1.752674    0.158388    0.039416
      5          1           0       -0.481509   -1.539044   -0.049885
      6          1           0       -1.840029    1.267197   -0.080522
      7          1           0       -2.636777   -0.408972    0.110886
      8          1           0        0.586296    1.393881   -0.049994
 ---------------------------------------------------------------------

 SCF Done:  E(RB2PLYPD3) =  -191.610604346     A.U. after   13 cycles
 E2(B2PLYPD3) =    -0.2467268197D+00 E(B2PLYPD3) =    -0.19185733116583D+03

 The electronic state is 1-A.
 Alpha  occ. eigenvalues --  -19.72310 -10.70763 -10.65636 -10.64606  -1.19703
 Alpha  occ. eigenvalues --   -0.92374  -0.75158  -0.67930  -0.57025  -0.56103
 Alpha  occ. eigenvalues --   -0.50249  -0.47608  -0.46574  -0.34179  -0.33651
 Alpha virt. eigenvalues --   -0.01565   0.05762   0.07228   0.07906   0.09664
 Alpha virt. eigenvalues --    0.12525   0.14252   0.15368   0.17651   0.19721
 Alpha virt. eigenvalues --    0.20001   0.21588   0.24802   0.26338   0.28712

 Mulliken charges:
               1
     1  C    0.154190
     2  O   -0.347916
     3  C   -0.054976
     4  C   -0.132149
     5  H    0.110505
     6  H    0.086608
     7  H    0.099524
     8  H    0.084214
 Sum of Mulliken charges =   0.00000

 Dipole moment (field-independent basis, Debye):
    X=             -3.4282    Y=              0.7959    Z=             -0.1149  Tot=              3.5213
 Quadrupole moment (field-independent basis, Debye-Ang):
   XX=            -27.6379   YY=            -21.4014   ZZ=            -25.2189
   XY=              1.0745   XZ=             -0.2845   YZ=             -0.1452

 Normal termination of Gaussian 09 at Wed Aug 26 08:58:11 2020.
