 Gaussian 09, Revision D.01,
 Gaussian 09:  ES64L-G09RevD.01 24-Apr-2013

 --------------------
 #p B2PLYPD3/Def2QZVP
 --------------------

 --------
 acrolein
 --------
 Symbolic Z-matrix:
 Charge =  0 Multiplicity = 1

                         Standard orientation:
 ---------------------------------------------------------------------
 Center     Atomic      Atomic             Coordinates (Angstroms)
 Number     Number       Type             X           Y           Z
 ---------------------------------------------------------------------
      1          6           0        0.687338    0.364855   -0.026980
      2          8           0        1.779985   -0.146219    0.042170
      3          6           0       -0.537875   -0.431136   -0.095344
      4          6           0       -1.760606    0.109647    0.004614
      5          1           0       -0.513156   -1.356961    0.104012
      6          1           0       -1.831584    1.137277    0.092919
      7          1           0       -2.680359   -0.389642    0.192304
      8          1           0        0.452083    1.518884   -0.020335
 ---------------------------------------------------------------------

 SCF Done:  E(RB2PLYPD3) =  -191.588258988     A.U. after   13 cycles
 E2(B2PLYPD3) =    -0.2474702447D+00 E(B2PLYPD3) =    -0.19183572923253D+03

 The electronic state is 1-A.
 Alpha  occ. eigenvalues --  -19.73300 -10.72558 -10.64778 -10.62785  -1.20043
 Alpha  occ. eigenvalues --   -0.93630  -0.75954  -0.68447  -0.57142  -0.56457
 Alpha  occ. eigenvalues --   -0.51078  -0.47893  -0.46727  -0.34588  -0.33970
 Alpha virt. eigenvalues --   -0.02105   0.05757   0.07526   0.07912   0.09824
 Alpha virt. eigenvalues --    0.12716   0.13698   0.15253   0.18460   0.19406
 Alpha virt. eigenvalues --    0.20058   0.21467   0.24808   0.26448   0.28599

 Mulliken charges:
               1
     1  C    0.154817
     2  O   -0.339232
     3  C   -0.037485
     4  C   -0.110820
     5  H    0.110219
     6  H    0.068247
     7  H    0.093416
     8  H    0.060836
 Sum of Mulliken charges =   0.00000

 Dipole moment (field-independent basis, Debye):
    X=             -3.4566    Y=              0.7855    Z=              0.2291  Tot=              3.5521
 Quadrupole moment (field-independent basis, Debye-Ang):
   XX=            -26.9219   YY=            -22.2394   ZZ=            -24.9775
   XY=              1.0304   XZ=             -0.9342   YZ=             -0.1874

 Normal termination of Gaussian 09 at Wed Aug 26 14:14:10 2020.
