 Gaussian 09, Revision D.01,
 Gaussian 09:  ES64L-G09RevD.01 24-Apr-2013

 --------------------
 #p B2PLYPD3/Def2QZVP
 --------------------

 --------
 acrolein
 --------
 Symbolic Z-matrix:
 Charge =  0 Multiplicity = 1

                         Standard orientation:
 ---------------------------------------------------------------------
 Center     Atomic      Atomic             Coordinates (Angstroms)
 Number     Number       Type             X           Y           Z
 ---------------------------------------------------------------------
      1          6           0        0.695666    0.360329   -0.027058
      2          8           0        1.778157   -0.141351    0.028154
      3          6           0       -0.544578   -0.442153   -0.037076
      4          6           0       -1.758574    0.132382   -0.001622
      5          1           0       -0.517482   -1.460517   -0.003007
      6          1           0       -1.831977    1.172743    0.038048
      7          1           0       -2.685066   -0.428431    0.133362
      8          1           0        0.454192    1.543660    0.000899
 ---------------------------------------------------------------------

 SCF Done:  E(RB2PLYPD3) =  -191.605370809     A.U. after   12 cycles
 E2(B2PLYPD3) =    -0.2473215105D+00 E(B2PLYPD3) =    -0.19185269231902D+03

 The electronic state is 1-A.
 Alpha  occ. eigenvalues --  -19.73412 -10.72746 -10.64988 -10.63712  -1.20964
 Alpha  occ. eigenvalues --   -0.92807  -0.75053  -0.67017  -0.56648  -0.56218
 Alpha  occ. eigenvalues --   -0.50706  -0.47624  -0.47430  -0.34465  -0.33876
 Alpha virt. eigenvalues --   -0.01670   0.05793   0.07160   0.08174   0.09801
 Alpha virt. eigenvalues --    0.12629   0.13659   0.15442   0.17830   0.19675
 Alpha virt. eigenvalues --    0.19987   0.21481   0.25348   0.26324   0.28466

 Mulliken charges:
               1
     1  C    0.158285
     2  O   -0.327645
     3  C   -0.036457
     4  C   -0.128872
     5  H    0.106940
     6  H    0.079339
     7  H    0.096788
     8  H    0.051622
 Sum of Mulliken charges =   0.00000

 Dipole moment (field-independent basis, Debye):
    X=             -3.3116    Y=              0.6834    Z=              0.0596  Tot=              3.3819
 Quadrupole moment (field-independent basis, Debye-Ang):
   XX=            -27.0881   YY=            -22.0510   ZZ=            -25.2093
   XY=              1.0160   XZ=             -0.5361   YZ=             -0.0400

 Normal termination of Gaussian 09 at Wed Aug 26 08:39:36 2020.
