 Gaussian 09, Revision D.01,
 Gaussian 09:  ES64L-G09RevD.01 24-Apr-2013

 --------------------
 #p B2PLYPD3/Def2QZVP
 --------------------

 --------
 acrolein
 --------
 Symbolic Z-matrix:
 Charge =  0 Multiplicity = 1

                         Standard orientation:
 ---------------------------------------------------------------------
 Center     Atomic      Atomic             Coordinates (Angstroms)
 Number     Number       Type             X           Y           Z
 ---------------------------------------------------------------------
      1          6           0        0.700815    0.402196   -0.059272
      2          8           0        1.740137   -0.163016    0.070385
      3          6           0       -0.517603   -0.438462   -0.066402
      4          6           0       -1.753741    0.137143    0.026563
      5          1           0       -0.476562   -1.496390   -0.026599
      6          1           0       -1.831858    1.212343    0.278404
      7          1           0       -2.773396   -0.474597    0.009358
      8          1           0        0.583889    1.457509   -0.229572
 ---------------------------------------------------------------------

 SCF Done:  E(RB2PLYPD3) =  -191.599833592     A.U. after   13 cycles
 E2(B2PLYPD3) =    -0.2474938471D+00 E(B2PLYPD3) =    -0.19184732743907D+03

 The electronic state is 1-A.
 Alpha  occ. eigenvalues --  -19.72688 -10.71358 -10.66521 -10.64197  -1.21005
 Alpha  occ. eigenvalues --   -0.91387  -0.74110  -0.67598  -0.57088  -0.55249
 Alpha  occ. eigenvalues --   -0.50110  -0.47366  -0.46038  -0.34083  -0.33330
 Alpha virt. eigenvalues --   -0.01526   0.05467   0.07227   0.07595   0.09705
 Alpha virt. eigenvalues --    0.12184   0.13889   0.15662   0.17865   0.18840
 Alpha virt. eigenvalues --    0.20209   0.20873   0.25033   0.26124   0.28751

 Mulliken charges:
               1
     1  C    0.159431
     2  O   -0.333420
     3  C   -0.073085
     4  C   -0.132386
     5  H    0.115830
     6  H    0.076364
     7  H    0.089784
     8  H    0.097481
 Sum of Mulliken charges =   0.00000

 Dipole moment (field-independent basis, Debye):
    X=             -3.0598    Y=              0.9722    Z=             -0.0843  Tot=              3.2116
 Quadrupole moment (field-independent basis, Debye-Ang):
   XX=            -27.4052   YY=            -21.5770   ZZ=            -25.3441
   XY=              1.4618   XZ=             -0.8154   YZ=              0.2114

 Normal termination of Gaussian 09 at Wed Aug 26 12:16:31 2020.
