 Gaussian 09, Revision D.01,
 Gaussian 09:  ES64L-G09RevD.01 24-Apr-2013

 --------------------
 #p B2PLYPD3/Def2QZVP
 --------------------

 --------
 acrolein
 --------
 Symbolic Z-matrix:
 Charge =  0 Multiplicity = 1

                         Standard orientation:
 ---------------------------------------------------------------------
 Center     Atomic      Atomic             Coordinates (Angstroms)
 Number     Number       Type             X           Y           Z
 ---------------------------------------------------------------------
      1          6           0       -0.680265    0.361512   -0.000496
      2          8           0       -1.785715   -0.130244   -0.016276
      3          6           0        0.553584   -0.434160    0.038546
      4          6           0        1.765471    0.122380   -0.032186
      5          1           0        0.442837   -1.473063    0.033705
      6          1           0        1.880445    1.220927    0.055415
      7          1           0        2.640038   -0.436386   -0.043726
      8          1           0       -0.510336    1.432089    0.049627
 ---------------------------------------------------------------------

 SCF Done:  E(RB2PLYPD3) =  -191.613636021     A.U. after   12 cycles
 E2(B2PLYPD3) =    -0.2467485626D+00 E(B2PLYPD3) =    -0.19186038458395D+03

 The electronic state is 1-A.
 Alpha  occ. eigenvalues --  -19.72884 -10.71413 -10.65206 -10.63867  -1.19625
 Alpha  occ. eigenvalues --   -0.92986  -0.75979  -0.67571  -0.56993  -0.56413
 Alpha  occ. eigenvalues --   -0.51058  -0.47117  -0.46628  -0.34570  -0.33971
 Alpha virt. eigenvalues --   -0.01861   0.05775   0.07417   0.08220   0.09751
 Alpha virt. eigenvalues --    0.12575   0.14053   0.15372   0.17811   0.19644
 Alpha virt. eigenvalues --    0.19915   0.21860   0.25296   0.26511   0.28549

 Mulliken charges:
               1
     1  C    0.159708
     2  O   -0.348736
     3  C   -0.045393
     4  C   -0.129235
     5  H    0.107163
     6  H    0.077218
     7  H    0.102576
     8  H    0.076700
 Sum of Mulliken charges =   0.00000

 Dipole moment (field-independent basis, Debye):
    X=              3.4543    Y=              0.7957    Z=              0.0882  Tot=              3.5458
 Quadrupole moment (field-independent basis, Debye-Ang):
   XX=            -27.3310   YY=            -21.7851   ZZ=            -25.1245
   XY=             -1.0157   XZ=             -0.0930   YZ=              0.0962

 Normal termination of Gaussian 09 at Wed Aug 26 09:19:57 2020.
