 Gaussian 09, Revision D.01,
 Gaussian 09:  ES64L-G09RevD.01 24-Apr-2013

 --------------------
 #p B2PLYPD3/Def2QZVP
 --------------------

 --------
 acrolein
 --------
 Symbolic Z-matrix:
 Charge =  0 Multiplicity = 1

                         Standard orientation:
 ---------------------------------------------------------------------
 Center     Atomic      Atomic             Coordinates (Angstroms)
 Number     Number       Type             X           Y           Z
 ---------------------------------------------------------------------
      1          6           0       -0.672786    0.348449    0.016855
      2          8           0       -1.785262   -0.122922   -0.017449
      3          6           0        0.548311   -0.437111    0.002060
      4          6           0        1.762054    0.140343   -0.003293
      5          1           0        0.419183   -1.539263    0.058160
      6          1           0        1.818082    1.191637   -0.041798
      7          1           0        2.708588   -0.442960   -0.027233
      8          1           0       -0.489231    1.463876    0.056730
 ---------------------------------------------------------------------

 SCF Done:  E(RB2PLYPD3) =  -191.613897771     A.U. after   12 cycles
 E2(B2PLYPD3) =    -0.2477159958D+00 E(B2PLYPD3) =    -0.19186161376650D+03

 The electronic state is 1-A.
 Alpha  occ. eigenvalues --  -19.72908 -10.71716 -10.65793 -10.64681  -1.19718
 Alpha  occ. eigenvalues --   -0.92955  -0.75657  -0.66493  -0.56528  -0.56205
 Alpha  occ. eigenvalues --   -0.50470  -0.47094  -0.46583  -0.34556  -0.33902
 Alpha virt. eigenvalues --   -0.02059   0.05726   0.06964   0.08348   0.09793
 Alpha virt. eigenvalues --    0.12524   0.13847   0.15302   0.17319   0.19820
 Alpha virt. eigenvalues --    0.20066   0.21479   0.25422   0.26434   0.28828

 Mulliken charges:
               1
     1  C    0.155935
     2  O   -0.346351
     3  C   -0.029023
     4  C   -0.134627
     5  H    0.100912
     6  H    0.087088
     7  H    0.105460
     8  H    0.060605
 Sum of Mulliken charges =   0.00000

 Dipole moment (field-independent basis, Debye):
    X=              3.5105    Y=              0.7334    Z=              0.0673  Tot=              3.5869
 Quadrupole moment (field-independent basis, Debye-Ang):
   XX=            -27.2882   YY=            -21.8985   ZZ=            -25.2737
   XY=             -0.9128   XZ=             -0.1876   YZ=             -0.0999

 Normal termination of Gaussian 09 at Wed Aug 26 15:38:39 2020.
