 Gaussian 09, Revision D.01,
 Gaussian 09:  ES64L-G09RevD.01 24-Apr-2013

 --------------------
 #p B2PLYPD3/Def2QZVP
 --------------------

 --------
 acrolein
 --------
 Symbolic Z-matrix:
 Charge =  0 Multiplicity = 1

                         Standard orientation:
 ---------------------------------------------------------------------
 Center     Atomic      Atomic             Coordinates (Angstroms)
 Number     Number       Type             X           Y           Z
 ---------------------------------------------------------------------
      1          6           0        0.674448    0.334157   -0.043746
      2          8           0        1.781107   -0.099961    0.033300
      3          6           0       -0.546833   -0.450162   -0.014700
      4          6           0       -1.757846    0.148344    0.002895
      5          1           0       -0.381902   -1.544740   -0.020492
      6          1           0       -1.894247    1.220037    0.104916
      7          1           0       -2.713657   -0.431048    0.035569
      8          1           0        0.522335    1.361401   -0.053084
 ---------------------------------------------------------------------

 SCF Done:  E(RB2PLYPD3) =  -191.610813584     A.U. after   13 cycles
 E2(B2PLYPD3) =    -0.2463687055D+00 E(B2PLYPD3) =    -0.19185718228979D+03

 The electronic state is 1-A.
 Alpha  occ. eigenvalues --  -19.72463 -10.70220 -10.66294 -10.64741  -1.20534
 Alpha  occ. eigenvalues --   -0.92616  -0.75819  -0.67600  -0.57176  -0.55802
 Alpha  occ. eigenvalues --   -0.50689  -0.47333  -0.46570  -0.34447  -0.33710
 Alpha virt. eigenvalues --   -0.01898   0.05647   0.07306   0.08522   0.09679
 Alpha virt. eigenvalues --    0.12592   0.14150   0.15359   0.17581   0.19614
 Alpha virt. eigenvalues --    0.19988   0.21479   0.25312   0.26778   0.28458

 Mulliken charges:
               1
     1  C    0.161383
     2  O   -0.346150
     3  C   -0.037653
     4  C   -0.134672
     5  H    0.102517
     6  H    0.088316
     7  H    0.098110
     8  H    0.068148
 Sum of Mulliken charges =   0.00000

 Dipole moment (field-independent basis, Debye):
    X=             -3.4631    Y=              0.7500    Z=             -0.0418  Tot=              3.5437
 Quadrupole moment (field-independent basis, Debye-Ang):
   XX=            -27.2388   YY=            -21.8041   ZZ=            -25.1804
   XY=              0.6181   XZ=             -0.4203   YZ=              0.1261

 Normal termination of Gaussian 09 at Wed Aug 26 09:29:15 2020.
