 Gaussian 09, Revision D.01,
 Gaussian 09:  ES64L-G09RevD.01 24-Apr-2013

 --------------------
 #p B2PLYPD3/Def2QZVP
 --------------------

 --------
 acrolein
 --------
 Symbolic Z-matrix:
 Charge =  0 Multiplicity = 1

                         Standard orientation:
 ---------------------------------------------------------------------
 Center     Atomic      Atomic             Coordinates (Angstroms)
 Number     Number       Type             X           Y           Z
 ---------------------------------------------------------------------
      1          6           0       -0.670169    0.353707   -0.017803
      2          8           0       -1.782364   -0.128101    0.023271
      3          6           0        0.550121   -0.440960   -0.038714
      4          6           0        1.751428    0.129655    0.008772
      5          1           0        0.446753   -1.498675    0.021429
      6          1           0        1.807323    1.229253    0.055253
      7          1           0        2.697160   -0.429139    0.062231
      8          1           0       -0.480599    1.468952   -0.038613
 ---------------------------------------------------------------------

 SCF Done:  E(RB2PLYPD3) =  -191.614864936     A.U. after   13 cycles
 E2(B2PLYPD3) =    -0.2475986814D+00 E(B2PLYPD3) =    -0.19186246361728D+03

 The electronic state is 1-A.
 Alpha  occ. eigenvalues --  -19.72938 -10.71843 -10.65859 -10.64032  -1.19497
 Alpha  occ. eigenvalues --   -0.93210  -0.75355  -0.66863  -0.56531  -0.56129
 Alpha  occ. eigenvalues --   -0.50619  -0.46942  -0.46533  -0.34731  -0.33956
 Alpha virt. eigenvalues --   -0.01873   0.05675   0.07123   0.08233   0.09780
 Alpha virt. eigenvalues --    0.12474   0.13827   0.15346   0.17620   0.19639
 Alpha virt. eigenvalues --    0.19960   0.21374   0.25512   0.26378   0.28917

 Mulliken charges:
               1
     1  C    0.156541
     2  O   -0.348399
     3  C   -0.034468
     4  C   -0.126684
     5  H    0.106164
     6  H    0.078119
     7  H    0.103613
     8  H    0.065115
 Sum of Mulliken charges =   0.00000

 Dipole moment (field-independent basis, Debye):
    X=              3.5028    Y=              0.7331    Z=              0.0385  Tot=              3.5789
 Quadrupole moment (field-independent basis, Debye-Ang):
   XX=            -27.3406   YY=            -21.8836   ZZ=            -25.2255
   XY=             -1.0159   XZ=              0.3756   YZ=             -0.0349

 Normal termination of Gaussian 09 at Wed Aug 26 15:13:39 2020.
