 Gaussian 09, Revision D.01,
 Gaussian 09:  ES64L-G09RevD.01 24-Apr-2013

 --------------------
 #p B2PLYPD3/Def2QZVP
 --------------------

 --------
 acrolein
 --------
 Symbolic Z-matrix:
 Charge =  0 Multiplicity = 1

                         Standard orientation:
 ---------------------------------------------------------------------
 Center     Atomic      Atomic             Coordinates (Angstroms)
 Number     Number       Type             X           Y           Z
 ---------------------------------------------------------------------
      1          6           0        0.662186    0.342105   -0.013153
      2          8           0        1.789779   -0.110503    0.019540
      3          6           0       -0.585109   -0.467592   -0.009838
      4          6           0       -1.738791    0.169919   -0.008373
      5          1           0       -0.446256   -1.588463   -0.073209
      6          1           0       -1.778112    1.228256    0.007648
      7          1           0       -2.663550   -0.406235    0.131443
      8          1           0        0.539970    1.383867   -0.034019
 ---------------------------------------------------------------------

 SCF Done:  E(RB2PLYPD3) =  -191.611018540     A.U. after   12 cycles
 E2(B2PLYPD3) =    -0.2469506560D+00 E(B2PLYPD3) =    -0.19185796919556D+03

 The electronic state is 1-A.
 Alpha  occ. eigenvalues --  -19.72603 -10.71022 -10.65117 -10.64819  -1.19072
 Alpha  occ. eigenvalues --   -0.93309  -0.75200  -0.67400  -0.57048  -0.55969
 Alpha  occ. eigenvalues --   -0.50337  -0.47018  -0.46251  -0.34967  -0.33681
 Alpha virt. eigenvalues --   -0.01428   0.05804   0.06974   0.07939   0.09735
 Alpha virt. eigenvalues --    0.12678   0.13984   0.15252   0.17303   0.19756
 Alpha virt. eigenvalues --    0.19996   0.21704   0.25352   0.26649   0.28809

 Mulliken charges:
               1
     1  C    0.152229
     2  O   -0.353895
     3  C   -0.036597
     4  C   -0.130333
     5  H    0.102895
     6  H    0.087986
     7  H    0.099618
     8  H    0.078096
 Sum of Mulliken charges =   0.00000

 Dipole moment (field-independent basis, Debye):
    X=             -3.4625    Y=              0.7873    Z=             -0.0167  Tot=              3.5509
 Quadrupole moment (field-independent basis, Debye-Ang):
   XX=            -27.8752   YY=            -21.4991   ZZ=            -25.1583
   XY=              0.9044   XZ=             -0.4007   YZ=              0.0334

 Normal termination of Gaussian 09 at Wed Aug 26 09:42:46 2020.
