 Gaussian 09, Revision D.01,
 Gaussian 09:  ES64L-G09RevD.01 24-Apr-2013

 --------------------
 #p B2PLYPD3/Def2QZVP
 --------------------

 --------
 acrolein
 --------
 Symbolic Z-matrix:
 Charge =  0 Multiplicity = 1

                         Standard orientation:
 ---------------------------------------------------------------------
 Center     Atomic      Atomic             Coordinates (Angstroms)
 Number     Number       Type             X           Y           Z
 ---------------------------------------------------------------------
      1          6           0        0.672158    0.348593    0.004135
      2          8           0        1.792654   -0.126486   -0.014498
      3          6           0       -0.561299   -0.441624    0.028593
      4          6           0       -1.753838    0.139927   -0.018775
      5          1           0       -0.451169   -1.475710    0.020078
      6          1           0       -1.814492    1.176650    0.021377
      7          1           0       -2.682562   -0.439687   -0.045142
      8          1           0        0.464863    1.469258    0.035961
 ---------------------------------------------------------------------

 SCF Done:  E(RB2PLYPD3) =  -191.613095842     A.U. after   12 cycles
 E2(B2PLYPD3) =    -0.2473721863D+00 E(B2PLYPD3) =    -0.19186046802820D+03

 The electronic state is 1-A.
 Alpha  occ. eigenvalues --  -19.73074 -10.72051 -10.65125 -10.63808  -1.19253
 Alpha  occ. eigenvalues --   -0.93513  -0.75685  -0.67390  -0.56591  -0.56429
 Alpha  occ. eigenvalues --   -0.50626  -0.47562  -0.46697  -0.34817  -0.33898
 Alpha virt. eigenvalues --   -0.01900   0.05773   0.07223   0.08201   0.09829
 Alpha virt. eigenvalues --    0.12659   0.13732   0.15321   0.17626   0.19925
 Alpha virt. eigenvalues --    0.20079   0.21542   0.25475   0.26412   0.28698

 Mulliken charges:
               1
     1  C    0.155271
     2  O   -0.350184
     3  C   -0.028983
     4  C   -0.132772
     5  H    0.106722
     6  H    0.087242
     7  H    0.101357
     8  H    0.061348
 Sum of Mulliken charges =   0.00000

 Dipole moment (field-independent basis, Debye):
    X=             -3.5314    Y=              0.7207    Z=              0.0436  Tot=              3.6045
 Quadrupole moment (field-independent basis, Debye-Ang):
   XX=            -27.3894   YY=            -21.8950   ZZ=            -25.1446
   XY=              0.9174   XZ=              0.1434   YZ=              0.0562

 Normal termination of Gaussian 09 at Wed Aug 26 15:47:01 2020.
