 Gaussian 09, Revision D.01,
 Gaussian 09:  ES64L-G09RevD.01 24-Apr-2013

 --------------------
 #p B2PLYPD3/Def2QZVP
 --------------------

 --------
 acrolein
 --------
 Symbolic Z-matrix:
 Charge =  0 Multiplicity = 1

                         Standard orientation:
 ---------------------------------------------------------------------
 Center     Atomic      Atomic             Coordinates (Angstroms)
 Number     Number       Type             X           Y           Z
 ---------------------------------------------------------------------
      1          6           0       -0.677378    0.347534    0.012111
      2          8           0       -1.787614   -0.115299   -0.021038
      3          6           0        0.556230   -0.451703    0.014838
      4          6           0        1.767062    0.144930   -0.021213
      5          1           0        0.410354   -1.565070    0.061859
      6          1           0        1.841153    1.207224   -0.026977
      7          1           0        2.691322   -0.408295   -0.000228
      8          1           0       -0.517398    1.443960    0.099233
 ---------------------------------------------------------------------

 SCF Done:  E(RB2PLYPD3) =  -191.615107651     A.U. after   12 cycles
 E2(B2PLYPD3) =    -0.2473061969D+00 E(B2PLYPD3) =    -0.19186241384821D+03

 The electronic state is 1-A.
 Alpha  occ. eigenvalues --  -19.72827 -10.71526 -10.65570 -10.65058  -1.19985
 Alpha  occ. eigenvalues --   -0.92517  -0.75580  -0.66543  -0.56614  -0.56259
 Alpha  occ. eigenvalues --   -0.50683  -0.47147  -0.46613  -0.34435  -0.33801
 Alpha virt. eigenvalues --   -0.01884   0.05800   0.07035   0.08262   0.09728
 Alpha virt. eigenvalues --    0.12573   0.14069   0.15376   0.17210   0.19723
 Alpha virt. eigenvalues --    0.20074   0.21653   0.25307   0.26500   0.28744

 Mulliken charges:
               1
     1  C    0.158193
     2  O   -0.343862
     3  C   -0.039355
     4  C   -0.133881
     5  H    0.101520
     6  H    0.086355
     7  H    0.104955
     8  H    0.066074
 Sum of Mulliken charges =   0.00000

 Dipole moment (field-independent basis, Debye):
    X=              3.4574    Y=              0.7467    Z=              0.1229  Tot=              3.5393
 Quadrupole moment (field-independent basis, Debye-Ang):
   XX=            -27.2962   YY=            -21.8025   ZZ=            -25.2872
   XY=             -0.8052   XZ=             -0.1219   YZ=             -0.0779

 Normal termination of Gaussian 09 at Wed Aug 26 11:01:03 2020.
