 Gaussian 09, Revision D.01,
 Gaussian 09:  ES64L-G09RevD.01 24-Apr-2013

 --------------------
 #p B2PLYPD3/Def2QZVP
 --------------------

 --------
 acrolein
 --------
 Symbolic Z-matrix:
 Charge =  0 Multiplicity = 1

                         Standard orientation:
 ---------------------------------------------------------------------
 Center     Atomic      Atomic             Coordinates (Angstroms)
 Number     Number       Type             X           Y           Z
 ---------------------------------------------------------------------
      1          6           0       -0.677041    0.336953   -0.026308
      2          8           0       -1.804731   -0.111577   -0.002799
      3          6           0        0.575778   -0.506345    0.051969
      4          6           0        1.752313    0.151992   -0.042832
      5          1           0        0.550725   -1.524350    0.014876
      6          1           0        1.836212    1.425720    0.156707
      7          1           0        2.682284   -0.397596   -0.061257
      8          1           0       -0.537676    1.493245    0.015091
 ---------------------------------------------------------------------

 SCF Done:  E(RB2PLYPD3) =  -191.584511647     A.U. after   13 cycles
 E2(B2PLYPD3) =    -0.2497355094D+00 E(B2PLYPD3) =    -0.19183424715635D+03

 The electronic state is 1-A.
 Alpha  occ. eigenvalues --  -19.72970 -10.72648 -10.67511 -10.64784  -1.19394
 Alpha  occ. eigenvalues --   -0.92232  -0.73633  -0.66479  -0.56460  -0.54966
 Alpha  occ. eigenvalues --   -0.50182  -0.46555  -0.45479  -0.34527  -0.33648
 Alpha virt. eigenvalues --   -0.01750   0.04866   0.06787   0.07487   0.09390
 Alpha virt. eigenvalues --    0.11753   0.13934   0.15223   0.17653   0.18949
 Alpha virt. eigenvalues --    0.19872   0.20960   0.24125   0.26110   0.28329

 Mulliken charges:
               1
     1  C    0.168501
     2  O   -0.339179
     3  C   -0.064010
     4  C   -0.117389
     5  H    0.111863
     6  H    0.073670
     7  H    0.099218
     8  H    0.067327
 Sum of Mulliken charges =   0.00000

 Dipole moment (field-independent basis, Debye):
    X=              3.4383    Y=              0.5840    Z=              0.0579  Tot=              3.4880
 Quadrupole moment (field-independent basis, Debye-Ang):
   XX=            -27.8137   YY=            -21.5721   ZZ=            -25.5393
   XY=             -1.1507   XZ=              0.0550   YZ=              0.2762

 Normal termination of Gaussian 09 at Wed Aug 26 13:00:13 2020.
