 Gaussian 09, Revision D.01,
 Gaussian 09:  ES64L-G09RevD.01 24-Apr-2013

 --------------------
 #p B2PLYPD3/Def2QZVP
 --------------------

 --------
 acrolein
 --------
 Symbolic Z-matrix:
 Charge =  0 Multiplicity = 1

                         Standard orientation:
 ---------------------------------------------------------------------
 Center     Atomic      Atomic             Coordinates (Angstroms)
 Number     Number       Type             X           Y           Z
 ---------------------------------------------------------------------
      1          6           0        0.679558    0.365788    0.014154
      2          8           0        1.793252   -0.134308   -0.026228
      3          6           0       -0.573435   -0.442424    0.048082
      4          6           0       -1.744635    0.151867   -0.032997
      5          1           0       -0.477598   -1.514578    0.028722
      6          1           0       -1.825255    1.196901    0.043565
      7          1           0       -2.734007   -0.452447   -0.077275
      8          1           0        0.521916    1.393206    0.039372
 ---------------------------------------------------------------------

 SCF Done:  E(RB2PLYPD3) =  -191.608727922     A.U. after   12 cycles
 E2(B2PLYPD3) =    -0.2471504167D+00 E(B2PLYPD3) =    -0.19185587833841D+03

 The electronic state is 1-A.
 Alpha  occ. eigenvalues --  -19.72909 -10.71389 -10.65433 -10.64096  -1.18915
 Alpha  occ. eigenvalues --   -0.93176  -0.75243  -0.68066  -0.57090  -0.55621
 Alpha  occ. eigenvalues --   -0.50573  -0.46586  -0.46247  -0.34868  -0.34010
 Alpha virt. eigenvalues --   -0.01509   0.05609   0.07191   0.07850   0.09713
 Alpha virt. eigenvalues --    0.12513   0.13967   0.15307   0.17734   0.19890
 Alpha virt. eigenvalues --    0.19971   0.21279   0.25184   0.26676   0.28555

 Mulliken charges:
               1
     1  C    0.153202
     2  O   -0.354181
     3  C   -0.042494
     4  C   -0.131705
     5  H    0.107622
     6  H    0.085386
     7  H    0.092746
     8  H    0.089424
 Sum of Mulliken charges =   0.00000

 Dipole moment (field-independent basis, Debye):
    X=             -3.4227    Y=              0.9076    Z=              0.0896  Tot=              3.5421
 Quadrupole moment (field-independent basis, Debye-Ang):
   XX=            -27.7138   YY=            -21.6053   ZZ=            -25.1776
   XY=              1.0799   XZ=              0.2312   YZ=              0.1060

 Normal termination of Gaussian 09 at Wed Aug 26 10:32:07 2020.
