 Gaussian 09, Revision D.01,
 Gaussian 09:  ES64L-G09RevD.01 24-Apr-2013

 --------------------
 #p B2PLYPD3/Def2QZVP
 --------------------

 --------
 acrolein
 --------
 Symbolic Z-matrix:
 Charge =  0 Multiplicity = 1

                         Standard orientation:
 ---------------------------------------------------------------------
 Center     Atomic      Atomic             Coordinates (Angstroms)
 Number     Number       Type             X           Y           Z
 ---------------------------------------------------------------------
      1          6           0        0.666767    0.333354    0.010087
      2          8           0        1.801004   -0.110187   -0.019523
      3          6           0       -0.568654   -0.460043    0.017985
      4          6           0       -1.751730    0.150244   -0.025112
      5          1           0       -0.471951   -1.531909    0.055962
      6          1           0       -1.838351    1.224055   -0.011991
      7          1           0       -2.664259   -0.405720    0.001075
      8          1           0        0.488231    1.453740    0.093373
 ---------------------------------------------------------------------

 SCF Done:  E(RB2PLYPD3) =  -191.615617691     A.U. after   12 cycles
 E2(B2PLYPD3) =    -0.2476671818D+00 E(B2PLYPD3) =    -0.19186328487271D+03

 The electronic state is 1-A.
 Alpha  occ. eigenvalues --  -19.72925 -10.71975 -10.65416 -10.64528  -1.19063
 Alpha  occ. eigenvalues --   -0.93297  -0.75599  -0.66753  -0.56626  -0.56273
 Alpha  occ. eigenvalues --   -0.50469  -0.47348  -0.46476  -0.34834  -0.33771
 Alpha virt. eigenvalues --   -0.01921   0.05769   0.07026   0.08183   0.09704
 Alpha virt. eigenvalues --    0.12654   0.13992   0.15297   0.17390   0.19741
 Alpha virt. eigenvalues --    0.20086   0.21596   0.25316   0.26442   0.28626

 Mulliken charges:
               1
     1  C    0.156640
     2  O   -0.350001
     3  C   -0.033519
     4  C   -0.126782
     5  H    0.104233
     6  H    0.086813
     7  H    0.101375
     8  H    0.061240
 Sum of Mulliken charges =   0.00000

 Dipole moment (field-independent basis, Debye):
    X=             -3.5942    Y=              0.6701    Z=              0.1250  Tot=              3.6583
 Quadrupole moment (field-independent basis, Debye-Ang):
   XX=            -27.4772   YY=            -21.8020   ZZ=            -25.2210
   XY=              0.7887   XZ=              0.0842   YZ=             -0.0502

 Normal termination of Gaussian 09 at Wed Aug 26 16:31:36 2020.
