 Gaussian 09, Revision D.01,
 Gaussian 09:  ES64L-G09RevD.01 24-Apr-2013

 --------------------
 #p B2PLYPD3/Def2QZVP
 --------------------

 --------
 acrolein
 --------
 Symbolic Z-matrix:
 Charge =  0 Multiplicity = 1

                         Standard orientation:
 ---------------------------------------------------------------------
 Center     Atomic      Atomic             Coordinates (Angstroms)
 Number     Number       Type             X           Y           Z
 ---------------------------------------------------------------------
      1          6           0       -0.679025    0.348778    0.031938
      2          8           0       -1.788811   -0.106689   -0.039470
      3          6           0        0.563942   -0.465959    0.004509
      4          6           0        1.769861    0.137882   -0.004395
      5          1           0        0.412090   -1.523289    0.140660
      6          1           0        1.928345    1.300805   -0.085671
      7          1           0        2.599592   -0.425209   -0.081652
      8          1           0       -0.558208    1.376997    0.150113
 ---------------------------------------------------------------------

 SCF Done:  E(RB2PLYPD3) =  -191.602975462     A.U. after   12 cycles
 E2(B2PLYPD3) =    -0.2467014877D+00 E(B2PLYPD3) =    -0.19184967694925D+03

 The electronic state is 1-A.
 Alpha  occ. eigenvalues --  -19.72575 -10.70710 -10.65717 -10.64687  -1.19936
 Alpha  occ. eigenvalues --   -0.92379  -0.75847  -0.67568  -0.56845  -0.56079
 Alpha  occ. eigenvalues --   -0.50974  -0.47212  -0.46292  -0.34491  -0.33627
 Alpha virt. eigenvalues --   -0.01650   0.05665   0.07361   0.07971   0.09562
 Alpha virt. eigenvalues --    0.12480   0.13988   0.15249   0.17872   0.19144
 Alpha virt. eigenvalues --    0.19920   0.22026   0.24866   0.26936   0.28544

 Mulliken charges:
               1
     1  C    0.161501
     2  O   -0.346855
     3  C   -0.060152
     4  C   -0.129559
     5  H    0.108574
     6  H    0.080192
     7  H    0.105167
     8  H    0.081133
 Sum of Mulliken charges =   0.00000

 Dipole moment (field-independent basis, Debye):
    X=              3.4096    Y=              0.7605    Z=              0.1681  Tot=              3.4974
 Quadrupole moment (field-independent basis, Debye-Ang):
   XX=            -27.5439   YY=            -21.5575   ZZ=            -25.1907
   XY=             -0.7898   XZ=             -0.4815   YZ=             -0.2182

 Normal termination of Gaussian 09 at Wed Aug 26 08:53:38 2020.
