 Gaussian 09, Revision D.01,
 Gaussian 09:  ES64L-G09RevD.01 24-Apr-2013

 --------------------
 #p B2PLYPD3/Def2QZVP
 --------------------

 --------
 acrolein
 --------
 Symbolic Z-matrix:
 Charge =  0 Multiplicity = 1

                         Standard orientation:
 ---------------------------------------------------------------------
 Center     Atomic      Atomic             Coordinates (Angstroms)
 Number     Number       Type             X           Y           Z
 ---------------------------------------------------------------------
      1          6           0        0.669829    0.359509    0.045736
      2          8           0        1.803563   -0.128013   -0.043311
      3          6           0       -0.558301   -0.456419    0.008196
      4          6           0       -1.758298    0.138509   -0.014866
      5          1           0       -0.519134   -1.521217    0.129331
      6          1           0       -1.849196    1.206315   -0.113474
      7          1           0       -2.621252   -0.422569   -0.041310
      8          1           0        0.441695    1.511978    0.137542
 ---------------------------------------------------------------------

 SCF Done:  E(RB2PLYPD3) =  -191.607386841     A.U. after   13 cycles
 E2(B2PLYPD3) =    -0.2492176574D+00 E(B2PLYPD3) =    -0.19185660449887D+03

 The electronic state is 1-A.
 Alpha  occ. eigenvalues --  -19.73248 -10.72963 -10.64941 -10.64559  -1.18151
 Alpha  occ. eigenvalues --   -0.93171  -0.75759  -0.66567  -0.56868  -0.55744
 Alpha  occ. eigenvalues --   -0.50254  -0.47514  -0.45913  -0.34584  -0.34008
 Alpha virt. eigenvalues --   -0.02205   0.05761   0.06859   0.07654   0.09706
 Alpha virt. eigenvalues --    0.12706   0.13739   0.15064   0.17490   0.19614
 Alpha virt. eigenvalues --    0.20168   0.21714   0.24876   0.26562   0.28569

 Mulliken charges:
               1
     1  C    0.157860
     2  O   -0.352940
     3  C   -0.033854
     4  C   -0.125692
     5  H    0.103682
     6  H    0.081180
     7  H    0.101405
     8  H    0.068359
 Sum of Mulliken charges =   0.00000

 Dipole moment (field-independent basis, Debye):
    X=             -3.6185    Y=              0.7372    Z=              0.1803  Tot=              3.6972
 Quadrupole moment (field-independent basis, Debye-Ang):
   XX=            -27.6313   YY=            -21.7201   ZZ=            -25.2801
   XY=              0.9544   XZ=              0.3914   YZ=             -0.2326

 Normal termination of Gaussian 09 at Wed Aug 26 09:26:05 2020.
