 Gaussian 09, Revision D.01,
 Gaussian 09:  ES64L-G09RevD.01 24-Apr-2013

 --------------------
 #p B2PLYPD3/Def2QZVP
 --------------------

 --------
 acrolein
 --------
 Symbolic Z-matrix:
 Charge =  0 Multiplicity = 1

                         Standard orientation:
 ---------------------------------------------------------------------
 Center     Atomic      Atomic             Coordinates (Angstroms)
 Number     Number       Type             X           Y           Z
 ---------------------------------------------------------------------
      1          6           0       -0.667020    0.364437   -0.030790
      2          8           0       -1.782447   -0.134397    0.024356
      3          6           0        0.555710   -0.441790   -0.009095
      4          6           0        1.748337    0.138299    0.004477
      5          1           0        0.463044   -1.535253   -0.026719
      6          1           0        1.804946    1.206789    0.091707
      7          1           0        2.699096   -0.419089    0.009039
      8          1           0       -0.529682    1.457053   -0.056425
 ---------------------------------------------------------------------

 SCF Done:  E(RB2PLYPD3) =  -191.615155690     A.U. after   12 cycles
 E2(B2PLYPD3) =    -0.2476915817D+00 E(B2PLYPD3) =    -0.19186284727168D+03

 The electronic state is 1-A.
 Alpha  occ. eigenvalues --  -19.72786 -10.71752 -10.65399 -10.64410  -1.18808
 Alpha  occ. eigenvalues --   -0.93173  -0.75327  -0.67037  -0.56653  -0.56218
 Alpha  occ. eigenvalues --   -0.50319  -0.46538  -0.46433  -0.34690  -0.33998
 Alpha virt. eigenvalues --   -0.01815   0.05713   0.07033   0.08003   0.09750
 Alpha virt. eigenvalues --    0.12490   0.14103   0.15325   0.17377   0.19735
 Alpha virt. eigenvalues --    0.20097   0.21444   0.25458   0.26323   0.29036

 Mulliken charges:
               1
     1  C    0.152055
     2  O   -0.353881
     3  C   -0.036926
     4  C   -0.128247
     5  H    0.105255
     6  H    0.080739
     7  H    0.101225
     8  H    0.079780
 Sum of Mulliken charges =   0.00000

 Dipole moment (field-independent basis, Debye):
    X=              3.5057    Y=              0.8359    Z=             -0.0485  Tot=              3.6043
 Quadrupole moment (field-independent basis, Debye-Ang):
   XX=            -27.5103   YY=            -21.6711   ZZ=            -25.2318
   XY=             -1.1300   XZ=              0.2655   YZ=              0.1145

 Normal termination of Gaussian 09 at Wed Aug 26 15:13:30 2020.
