 Gaussian 09, Revision D.01,
 Gaussian 09:  ES64L-G09RevD.01 24-Apr-2013

 --------------------
 #p B2PLYPD3/Def2QZVP
 --------------------

 --------
 acrolein
 --------
 Symbolic Z-matrix:
 Charge =  0 Multiplicity = 1

                         Standard orientation:
 ---------------------------------------------------------------------
 Center     Atomic      Atomic             Coordinates (Angstroms)
 Number     Number       Type             X           Y           Z
 ---------------------------------------------------------------------
      1          6           0        0.670155    0.349713   -0.083247
      2          8           0        1.776215   -0.097946    0.045719
      3          6           0       -0.581224   -0.500384    0.010007
      4          6           0       -1.756251    0.153778    0.012086
      5          1           0       -0.379838   -1.572678   -0.037374
      6          1           0       -1.901121    1.338531    0.164470
      7          1           0       -2.559343   -0.367727   -0.070669
      8          1           0        0.634508    1.366802   -0.055253
 ---------------------------------------------------------------------

 SCF Done:  E(RB2PLYPD3) =  -191.582143710     A.U. after   14 cycles
 E2(B2PLYPD3) =    -0.2467243336D+00 E(B2PLYPD3) =    -0.19182886804350D+03

 The electronic state is 1-A.
 Alpha  occ. eigenvalues --  -19.72250 -10.70314 -10.65267 -10.65088  -1.19937
 Alpha  occ. eigenvalues --   -0.92206  -0.75433  -0.67956  -0.57015  -0.55903
 Alpha  occ. eigenvalues --   -0.50705  -0.46959  -0.46495  -0.34410  -0.33150
 Alpha virt. eigenvalues --   -0.01308   0.05544   0.07370   0.07576   0.09584
 Alpha virt. eigenvalues --    0.12330   0.14250   0.15364   0.17518   0.19123
 Alpha virt. eigenvalues --    0.20023   0.22121   0.24885   0.26288   0.28882

 Mulliken charges:
               1
     1  C    0.169205
     2  O   -0.346565
     3  C   -0.071863
     4  C   -0.132658
     5  H    0.110937
     6  H    0.086758
     7  H    0.105975
     8  H    0.078212
 Sum of Mulliken charges =   0.00000

 Dipole moment (field-independent basis, Debye):
    X=             -3.3177    Y=              0.7591    Z=             -0.1827  Tot=              3.4084
 Quadrupole moment (field-independent basis, Debye-Ang):
   XX=            -27.6948   YY=            -21.2593   ZZ=            -25.1936
   XY=              0.7426   XZ=             -0.2929   YZ=              0.3112

 Normal termination of Gaussian 09 at Wed Aug 26 10:38:16 2020.
