 Gaussian 09, Revision D.01,
 Gaussian 09:  ES64L-G09RevD.01 24-Apr-2013

 --------------------
 #p B2PLYPD3/Def2QZVP
 --------------------

 --------
 acrolein
 --------
 Symbolic Z-matrix:
 Charge =  0 Multiplicity = 1

                         Standard orientation:
 ---------------------------------------------------------------------
 Center     Atomic      Atomic             Coordinates (Angstroms)
 Number     Number       Type             X           Y           Z
 ---------------------------------------------------------------------
      1          6           0       -0.632164    0.297560   -0.057143
      2          8           0       -1.799110   -0.091373    0.059896
      3          6           0        0.597102   -0.454211   -0.056991
      4          6           0        1.731950    0.180047    0.022760
      5          1           0        0.507290   -1.545671   -0.115601
      6          1           0        1.748526    1.201206   -0.012160
      7          1           0        2.492521   -0.410827    0.263614
      8          1           0       -0.536784    1.345902   -0.066775
 ---------------------------------------------------------------------

 SCF Done:  E(RB2PLYPD3) =  -191.596570709     A.U. after   13 cycles
 E2(B2PLYPD3) =    -0.2470181766D+00 E(B2PLYPD3) =    -0.19184358888514D+03

 The electronic state is 1-A.
 Alpha  occ. eigenvalues --  -19.72336 -10.70686 -10.64237 -10.63801  -1.17687
 Alpha  occ. eigenvalues --   -0.95283  -0.77114  -0.67819  -0.58747  -0.56451
 Alpha  occ. eigenvalues --   -0.49881  -0.48665  -0.45814  -0.35211  -0.33481
 Alpha virt. eigenvalues --   -0.02037   0.05976   0.07009   0.08321   0.09787
 Alpha virt. eigenvalues --    0.12924   0.13950   0.15223   0.17366   0.19582
 Alpha virt. eigenvalues --    0.20405   0.22385   0.24961   0.26704   0.28705

 Mulliken charges:
               1
     1  C    0.142059
     2  O   -0.366719
     3  C   -0.005585
     4  C   -0.127940
     5  H    0.093039
     6  H    0.096073
     7  H    0.105301
     8  H    0.063772
 Sum of Mulliken charges =   0.00000

 Dipole moment (field-independent basis, Debye):
    X=              3.7649    Y=              0.6415    Z=             -0.1122  Tot=              3.8208
 Quadrupole moment (field-independent basis, Debye-Ang):
   XX=            -28.1089   YY=            -21.5650   ZZ=            -24.8016
   XY=             -0.8939   XZ=              0.8299   YZ=             -0.0389

 Normal termination of Gaussian 09 at Wed Aug 26 12:55:52 2020.
