 Gaussian 09, Revision D.01,
 Gaussian 09:  ES64L-G09RevD.01 24-Apr-2013

 --------------------
 #p B2PLYPD3/Def2QZVP
 --------------------

 --------
 acrolein
 --------
 Symbolic Z-matrix:
 Charge =  0 Multiplicity = 1

                         Standard orientation:
 ---------------------------------------------------------------------
 Center     Atomic      Atomic             Coordinates (Angstroms)
 Number     Number       Type             X           Y           Z
 ---------------------------------------------------------------------
      1          6           0        0.674089    0.353680   -0.008935
      2          8           0        1.778312   -0.127045    0.012051
      3          6           0       -0.556351   -0.442442   -0.013787
      4          6           0       -1.755470    0.133847    0.003453
      5          1           0       -0.438366   -1.510040    0.008794
      6          1           0       -1.840077    1.203369    0.067139
      7          1           0       -2.650392   -0.410696   -0.003910
      8          1           0        0.528730    1.463217   -0.052817
 ---------------------------------------------------------------------

 SCF Done:  E(RB2PLYPD3) =  -191.616753794     A.U. after   12 cycles
 E2(B2PLYPD3) =    -0.2465314819D+00 E(B2PLYPD3) =    -0.19186328527588D+03

 The electronic state is 1-A.
 Alpha  occ. eigenvalues --  -19.72798 -10.71560 -10.64914 -10.64158  -1.19924
 Alpha  occ. eigenvalues --   -0.93102  -0.75707  -0.66948  -0.56908  -0.56600
 Alpha  occ. eigenvalues --   -0.50835  -0.47128  -0.46933  -0.34680  -0.33823
 Alpha virt. eigenvalues --   -0.01659   0.05843   0.07264   0.08299   0.09791
 Alpha virt. eigenvalues --    0.12621   0.14077   0.15409   0.17457   0.19718
 Alpha virt. eigenvalues --    0.20089   0.21809   0.25581   0.26367   0.28795

 Mulliken charges:
               1
     1  C    0.155878
     2  O   -0.344807
     3  C   -0.039875
     4  C   -0.129934
     5  H    0.105264
     6  H    0.082197
     7  H    0.103405
     8  H    0.067873
 Sum of Mulliken charges =   0.00000

 Dipole moment (field-independent basis, Debye):
    X=             -3.4414    Y=              0.7553    Z=              0.0088  Tot=              3.5233
 Quadrupole moment (field-independent basis, Debye-Ang):
   XX=            -27.2680   YY=            -21.7984   ZZ=            -25.1371
   XY=              0.9645   XZ=             -0.1668   YZ=              0.0427

 Normal termination of Gaussian 09 at Wed Aug 26 19:00:13 2020.
