 Gaussian 09, Revision D.01,
 Gaussian 09:  ES64L-G09RevD.01 24-Apr-2013

 --------------------
 #p B2PLYPD3/Def2QZVP
 --------------------

 --------
 acrolein
 --------
 Symbolic Z-matrix:
 Charge =  0 Multiplicity = 1

                         Standard orientation:
 ---------------------------------------------------------------------
 Center     Atomic      Atomic             Coordinates (Angstroms)
 Number     Number       Type             X           Y           Z
 ---------------------------------------------------------------------
      1          6           0        0.656472    0.331533    0.044659
      2          8           0        1.818228   -0.102485   -0.033126
      3          6           0       -0.590378   -0.470980    0.042910
      4          6           0       -1.749731    0.142608   -0.031354
      5          1           0       -0.454684   -1.517898   -0.004501
      6          1           0       -1.869882    1.270812    0.022295
      7          1           0       -2.583921   -0.397915   -0.068970
      8          1           0        0.464486    1.445917   -0.021104
 ---------------------------------------------------------------------

 SCF Done:  E(RB2PLYPD3) =  -191.603860093     A.U. after   13 cycles
 E2(B2PLYPD3) =    -0.2485618765D+00 E(B2PLYPD3) =    -0.19185242196994D+03

 The electronic state is 1-A.
 Alpha  occ. eigenvalues --  -19.73042 -10.72301 -10.65048 -10.64401  -1.17615
 Alpha  occ. eigenvalues --   -0.93897  -0.76117  -0.66827  -0.57529  -0.55538
 Alpha  occ. eigenvalues --   -0.50442  -0.47279  -0.45785  -0.35191  -0.33756
 Alpha virt. eigenvalues --   -0.02010   0.05677   0.07181   0.07721   0.09669
 Alpha virt. eigenvalues --    0.12633   0.13882   0.15208   0.17388   0.19555
 Alpha virt. eigenvalues --    0.20006   0.22025   0.24909   0.26855   0.28460

 Mulliken charges:
               1
     1  C    0.162884
     2  O   -0.363151
     3  C   -0.041021
     4  C   -0.119530
     5  H    0.106857
     6  H    0.086067
     7  H    0.103465
     8  H    0.064428
 Sum of Mulliken charges =   0.00000

 Dipole moment (field-independent basis, Debye):
    X=             -3.7206    Y=              0.6489    Z=              0.0691  Tot=              3.7774
 Quadrupole moment (field-independent basis, Debye-Ang):
   XX=            -27.7763   YY=            -21.6826   ZZ=            -25.1793
   XY=              0.6675   XZ=              0.2870   YZ=              0.0825

 Normal termination of Gaussian 09 at Wed Aug 26 09:34:37 2020.
