 Gaussian 09, Revision D.01,
 Gaussian 09:  ES64L-G09RevD.01 24-Apr-2013

 --------------------
 #p B2PLYPD3/Def2QZVP
 --------------------

 --------
 acrolein
 --------
 Symbolic Z-matrix:
 Charge =  0 Multiplicity = 1

                         Standard orientation:
 ---------------------------------------------------------------------
 Center     Atomic      Atomic             Coordinates (Angstroms)
 Number     Number       Type             X           Y           Z
 ---------------------------------------------------------------------
      1          6           0       -0.685680    0.338048    0.045931
      2          8           0       -1.790749   -0.110572   -0.040073
      3          6           0        0.568489   -0.478477    0.009627
      4          6           0        1.750649    0.139515   -0.013619
      5          1           0        0.496214   -1.485084    0.075199
      6          1           0        1.921360    1.319030   -0.117332
      7          1           0        2.645182   -0.394771   -0.008511
      8          1           0       -0.537508    1.450883    0.119589
 ---------------------------------------------------------------------

 SCF Done:  E(RB2PLYPD3) =  -191.603888186     A.U. after   13 cycles
 E2(B2PLYPD3) =    -0.2466773462D+00 E(B2PLYPD3) =    -0.19185056553226D+03

 The electronic state is 1-A.
 Alpha  occ. eigenvalues --  -19.72858 -10.71728 -10.65953 -10.63997  -1.20451
 Alpha  occ. eigenvalues --   -0.92662  -0.74758  -0.67166  -0.56929  -0.55977
 Alpha  occ. eigenvalues --   -0.51096  -0.47090  -0.46418  -0.34720  -0.33617
 Alpha virt. eigenvalues --   -0.01313   0.05590   0.07413   0.07996   0.09513
 Alpha virt. eigenvalues --    0.12318   0.14121   0.15346   0.17930   0.19152
 Alpha virt. eigenvalues --    0.20000   0.21427   0.25061   0.26557   0.28568

 Mulliken charges:
               1
     1  C    0.160614
     2  O   -0.335293
     3  C   -0.061162
     4  C   -0.120473
     5  H    0.111761
     6  H    0.076247
     7  H    0.098173
     8  H    0.070134
 Sum of Mulliken charges =   0.00000

 Dipole moment (field-independent basis, Debye):
    X=              3.3795    Y=              0.6530    Z=              0.1489  Tot=              3.4453
 Quadrupole moment (field-independent basis, Debye-Ang):
   XX=            -27.3292   YY=            -21.7295   ZZ=            -25.2299
   XY=             -0.8292   XZ=             -0.3574   YZ=             -0.2161

 Normal termination of Gaussian 09 at Wed Aug 26 10:23:05 2020.
