 Gaussian 09, Revision D.01,
 Gaussian 09:  ES64L-G09RevD.01 24-Apr-2013

 --------------------
 #p B2PLYPD3/Def2QZVP
 --------------------

 --------
 acrolein
 --------
 Symbolic Z-matrix:
 Charge =  0 Multiplicity = 1

                         Standard orientation:
 ---------------------------------------------------------------------
 Center     Atomic      Atomic             Coordinates (Angstroms)
 Number     Number       Type             X           Y           Z
 ---------------------------------------------------------------------
      1          6           0        0.663550    0.358850    0.060086
      2          8           0        1.774912   -0.143180   -0.044544
      3          6           0       -0.558234   -0.437091    0.030609
      4          6           0       -1.734283    0.130755   -0.033032
      5          1           0       -0.514080   -1.449449    0.041426
      6          1           0       -1.767296    1.243773   -0.070155
      7          1           0       -2.699330   -0.423631   -0.008506
      8          1           0        0.555219    1.459665    0.047609
 ---------------------------------------------------------------------

 SCF Done:  E(RB2PLYPD3) =  -191.609216078     A.U. after   13 cycles
 E2(B2PLYPD3) =    -0.2472449396D+00 E(B2PLYPD3) =    -0.19185646101785D+03

 The electronic state is 1-A.
 Alpha  occ. eigenvalues --  -19.72760 -10.71750 -10.65523 -10.63201  -1.18791
 Alpha  occ. eigenvalues --   -0.93851  -0.75012  -0.67801  -0.56996  -0.56234
 Alpha  occ. eigenvalues --   -0.50383  -0.46554  -0.46474  -0.35029  -0.33968
 Alpha virt. eigenvalues --   -0.01644   0.05668   0.07214   0.08092   0.09747
 Alpha virt. eigenvalues --    0.12348   0.14042   0.15372   0.17938   0.19527
 Alpha virt. eigenvalues --    0.19867   0.21261   0.25769   0.26136   0.29445

 Mulliken charges:
               1
     1  C    0.149083
     2  O   -0.353516
     3  C   -0.036762
     4  C   -0.120287
     5  H    0.109981
     6  H    0.072717
     7  H    0.099319
     8  H    0.079464
 Sum of Mulliken charges =   0.00000

 Dipole moment (field-independent basis, Debye):
    X=             -3.4792    Y=              0.8072    Z=              0.1602  Tot=              3.5752
 Quadrupole moment (field-independent basis, Debye-Ang):
   XX=            -27.4813   YY=            -21.7365   ZZ=            -25.1184
   XY=              1.3867   XZ=              0.2929   YZ=             -0.1007

 Normal termination of Gaussian 09 at Wed Aug 26 08:54:44 2020.
