 Gaussian 09, Revision D.01,
 Gaussian 09:  ES64L-G09RevD.01 24-Apr-2013

 --------------------
 #p B2PLYPD3/Def2QZVP
 --------------------

 --------
 acrolein
 --------
 Symbolic Z-matrix:
 Charge =  0 Multiplicity = 1

                         Standard orientation:
 ---------------------------------------------------------------------
 Center     Atomic      Atomic             Coordinates (Angstroms)
 Number     Number       Type             X           Y           Z
 ---------------------------------------------------------------------
      1          6           0       -0.670653    0.354777   -0.020168
      2          8           0       -1.791661   -0.133308    0.020836
      3          6           0        0.562530   -0.440805   -0.024167
      4          6           0        1.749348    0.133454    0.006438
      5          1           0        0.467923   -1.468863    0.007492
      6          1           0        1.802030    1.202771    0.075110
      7          1           0        2.680787   -0.441605    0.026210
      8          1           0       -0.464797    1.489614   -0.048120
 ---------------------------------------------------------------------

 SCF Done:  E(RB2PLYPD3) =  -191.612302253     A.U. after   12 cycles
 E2(B2PLYPD3) =    -0.2477816816D+00 E(B2PLYPD3) =    -0.19186008393462D+03

 The electronic state is 1-A.
 Alpha  occ. eigenvalues --  -19.73152 -10.72353 -10.65275 -10.63645  -1.18948
 Alpha  occ. eigenvalues --   -0.93614  -0.75364  -0.67221  -0.56642  -0.56085
 Alpha  occ. eigenvalues --   -0.50578  -0.47214  -0.46549  -0.34934  -0.33962
 Alpha virt. eigenvalues --   -0.01848   0.05718   0.07162   0.08095   0.09818
 Alpha virt. eigenvalues --    0.12577   0.13647   0.15343   0.17664   0.19694
 Alpha virt. eigenvalues --    0.20064   0.21446   0.25572   0.26356   0.28816

 Mulliken charges:
               1
     1  C    0.156435
     2  O   -0.351540
     3  C   -0.031828
     4  C   -0.127462
     5  H    0.107642
     6  H    0.081996
     7  H    0.101550
     8  H    0.063207
 Sum of Mulliken charges =   0.00000

 Dipole moment (field-independent basis, Debye):
    X=              3.5256    Y=              0.7281    Z=              0.0097  Tot=              3.6000
 Quadrupole moment (field-independent basis, Debye-Ang):
   XX=            -27.4697   YY=            -21.8726   ZZ=            -25.1731
   XY=             -1.0323   XZ=              0.2870   YZ=              0.0340

 Normal termination of Gaussian 09 at Wed Aug 26 15:06:42 2020.
