 Gaussian 09, Revision D.01,
 Gaussian 09:  ES64L-G09RevD.01 24-Apr-2013

 --------------------
 #p B2PLYPD3/Def2QZVP
 --------------------

 --------
 acrolein
 --------
 Symbolic Z-matrix:
 Charge =  0 Multiplicity = 1

                         Standard orientation:
 ---------------------------------------------------------------------
 Center     Atomic      Atomic             Coordinates (Angstroms)
 Number     Number       Type             X           Y           Z
 ---------------------------------------------------------------------
      1          6           0       -0.661244   -0.293394   -0.074725
      2          8           0       -1.790384    0.066076    0.069770
      3          6           0        0.545744    0.450779   -0.041428
      4          6           0        1.759702   -0.155366    0.034992
      5          1           0        0.390829    1.632956   -0.023697
      6          1           0        1.953415   -1.210518    0.250257
      7          1           0        2.588183    0.397050   -0.049579
      8          1           0       -0.474562   -1.360210   -0.248172
 ---------------------------------------------------------------------

 SCF Done:  E(RB2PLYPD3) =  -191.596424033     A.U. after   14 cycles
 E2(B2PLYPD3) =    -0.2473349288D+00 E(B2PLYPD3) =    -0.19184375896137D+03

 The electronic state is 1-A.
 Alpha  occ. eigenvalues --  -19.72502 -10.70488 -10.65769 -10.65658  -1.20282
 Alpha  occ. eigenvalues --   -0.93244  -0.77514  -0.65723  -0.57529  -0.56215
 Alpha  occ. eigenvalues --   -0.51016  -0.47160  -0.46507  -0.34369  -0.33440
 Alpha virt. eigenvalues --   -0.02714   0.05794   0.06750   0.08788   0.09745
 Alpha virt. eigenvalues --    0.12730   0.14197   0.15492   0.16834   0.19180
 Alpha virt. eigenvalues --    0.20204   0.22163   0.24843   0.26652   0.28042

 Mulliken charges:
               1
     1  C    0.154582
     2  O   -0.341614
     3  C   -0.026879
     4  C   -0.123206
     5  H    0.087930
     6  H    0.093743
     7  H    0.107629
     8  H    0.047815
 Sum of Mulliken charges =   0.00000

 Dipole moment (field-independent basis, Debye):
    X=              3.6845    Y=             -0.5464    Z=             -0.1474  Tot=              3.7277
 Quadrupole moment (field-independent basis, Debye-Ang):
   XX=            -27.0720   YY=            -21.9986   ZZ=            -25.1331
   XY=              0.2054   XZ=              0.6680   YZ=             -0.3059

 Normal termination of Gaussian 09 at Wed Aug 26 14:07:28 2020.
