 Gaussian 09, Revision D.01,
 Gaussian 09:  ES64L-G09RevD.01 24-Apr-2013

 --------------------
 #p B2PLYPD3/Def2QZVP
 --------------------

 --------
 acrolein
 --------
 Symbolic Z-matrix:
 Charge =  0 Multiplicity = 1

                         Standard orientation:
 ---------------------------------------------------------------------
 Center     Atomic      Atomic             Coordinates (Angstroms)
 Number     Number       Type             X           Y           Z
 ---------------------------------------------------------------------
      1          6           0       -0.683294    0.355754    0.015592
      2          8           0       -1.782315   -0.126055   -0.020849
      3          6           0        0.542253   -0.442937    0.032648
      4          6           0        1.763637    0.133916   -0.009622
      5          1           0        0.420438   -1.517501   -0.017075
      6          1           0        1.859255    1.202527   -0.056859
      7          1           0        2.755151   -0.422003   -0.036805
      8          1           0       -0.511896    1.465011    0.045816
 ---------------------------------------------------------------------

 SCF Done:  E(RB2PLYPD3) =  -191.613467060     A.U. after   13 cycles
 E2(B2PLYPD3) =    -0.2474473670D+00 E(B2PLYPD3) =    -0.19186091442717D+03

 The electronic state is 1-A.
 Alpha  occ. eigenvalues --  -19.72879 -10.71642 -10.66243 -10.64590  -1.20240
 Alpha  occ. eigenvalues --   -0.92432  -0.75192  -0.66841  -0.56688  -0.55823
 Alpha  occ. eigenvalues --   -0.50539  -0.47217  -0.46487  -0.34380  -0.33884
 Alpha virt. eigenvalues --   -0.01914   0.05625   0.07191   0.08258   0.09707
 Alpha virt. eigenvalues --    0.12355   0.13975   0.15421   0.17579   0.19698
 Alpha virt. eigenvalues --    0.19994   0.21235   0.25429   0.26287   0.28770

 Mulliken charges:
               1
     1  C    0.157269
     2  O   -0.342034
     3  C   -0.041192
     4  C   -0.130117
     5  H    0.107667
     6  H    0.082495
     7  H    0.099031
     8  H    0.066881
 Sum of Mulliken charges =   0.00000

 Dipole moment (field-independent basis, Debye):
    X=              3.4343    Y=              0.7753    Z=             -0.0200  Tot=              3.5207
 Quadrupole moment (field-independent basis, Debye-Ang):
   XX=            -27.1228   YY=            -21.9187   ZZ=            -25.3127
   XY=             -0.8648   XZ=             -0.3030   YZ=              0.0104

 Normal termination of Gaussian 09 at Wed Aug 26 16:18:59 2020.
