 Gaussian 09, Revision D.01,
 Gaussian 09:  ES64L-G09RevD.01 24-Apr-2013

 --------------------
 #p B2PLYPD3/Def2QZVP
 --------------------

 --------
 acrolein
 --------
 Symbolic Z-matrix:
 Charge =  0 Multiplicity = 1

                         Standard orientation:
 ---------------------------------------------------------------------
 Center     Atomic      Atomic             Coordinates (Angstroms)
 Number     Number       Type             X           Y           Z
 ---------------------------------------------------------------------
      1          6           0       -0.688710    0.370984    0.037654
      2          8           0       -1.743850   -0.152487   -0.068130
      3          6           0        0.556943   -0.448860    0.107426
      4          6           0        1.749902    0.159778   -0.076185
      5          1           0        0.498205   -1.522036    0.084501
      6          1           0        1.715023    1.219281    0.045974
      7          1           0        2.689300   -0.424972   -0.141531
      8          1           0       -0.660538    1.456214    0.142724
 ---------------------------------------------------------------------

 SCF Done:  E(RB2PLYPD3) =  -191.608542750     A.U. after   13 cycles
 E2(B2PLYPD3) =    -0.2462966743D+00 E(B2PLYPD3) =    -0.19185483942439D+03

 The electronic state is 1-A.
 Alpha  occ. eigenvalues --  -19.72464 -10.71231 -10.65227 -10.64316  -1.21268
 Alpha  occ. eigenvalues --   -0.92121  -0.74103  -0.67370  -0.57437  -0.55745
 Alpha  occ. eigenvalues --   -0.50318  -0.47734  -0.46770  -0.34088  -0.33647
 Alpha virt. eigenvalues --   -0.01069   0.05931   0.07027   0.07948   0.09849
 Alpha virt. eigenvalues --    0.12281   0.14006   0.15344   0.17632   0.19724
 Alpha virt. eigenvalues --    0.20077   0.21311   0.24450   0.26060   0.28874

 Mulliken charges:
               1
     1  C    0.150936
     2  O   -0.328459
     3  C   -0.058148
     4  C   -0.132571
     5  H    0.107666
     6  H    0.083193
     7  H    0.099667
     8  H    0.077717
 Sum of Mulliken charges =   0.00000

 Dipole moment (field-independent basis, Debye):
    X=              3.1041    Y=              0.8454    Z=              0.2215  Tot=              3.2248
 Quadrupole moment (field-independent basis, Debye-Ang):
   XX=            -27.3356   YY=            -21.6008   ZZ=            -25.2500
   XY=             -1.6316   XZ=             -0.6085   YZ=              0.1428

 Normal termination of Gaussian 09 at Wed Aug 26 10:41:59 2020.
