 Gaussian 09, Revision D.01,
 Gaussian 09:  ES64L-G09RevD.01 24-Apr-2013

 --------------------
 #p B2PLYPD3/Def2QZVP
 --------------------

 --------
 acrolein
 --------
 Symbolic Z-matrix:
 Charge =  0 Multiplicity = 1

                         Standard orientation:
 ---------------------------------------------------------------------
 Center     Atomic      Atomic             Coordinates (Angstroms)
 Number     Number       Type             X           Y           Z
 ---------------------------------------------------------------------
      1          6           0       -0.673982    0.353957   -0.026646
      2          8           0       -1.790045   -0.128886    0.024805
      3          6           0        0.568540   -0.443317   -0.028782
      4          6           0        1.757192    0.149125    0.004802
      5          1           0        0.460065   -1.518294   -0.009735
      6          1           0        1.790139    1.172507    0.028789
      7          1           0        2.669267   -0.426507    0.091833
      8          1           0       -0.509615    1.444787   -0.005575
 ---------------------------------------------------------------------

 SCF Done:  E(RB2PLYPD3) =  -191.614216891     A.U. after   12 cycles
 E2(B2PLYPD3) =    -0.2470994688D+00 E(B2PLYPD3) =    -0.19186131636028D+03

 The electronic state is 1-A.
 Alpha  occ. eigenvalues --  -19.72932 -10.71764 -10.64712 -10.64253  -1.19187
 Alpha  occ. eigenvalues --   -0.93307  -0.75633  -0.67386  -0.57025  -0.56323
 Alpha  occ. eigenvalues --   -0.50567  -0.47369  -0.46592  -0.34729  -0.33927
 Alpha virt. eigenvalues --   -0.01755   0.05842   0.07179   0.08084   0.09829
 Alpha virt. eigenvalues --    0.12712   0.13932   0.15348   0.17448   0.19876
 Alpha virt. eigenvalues --    0.20144   0.21728   0.25429   0.26471   0.28835

 Mulliken charges:
               1
     1  C    0.151286
     2  O   -0.350834
     3  C   -0.031522
     4  C   -0.135798
     5  H    0.103651
     6  H    0.086938
     7  H    0.103448
     8  H    0.072832
 Sum of Mulliken charges =   0.00000

 Dipole moment (field-independent basis, Debye):
    X=              3.4734    Y=              0.7945    Z=              0.0108  Tot=              3.5631
 Quadrupole moment (field-independent basis, Debye-Ang):
   XX=            -27.5266   YY=            -21.7311   ZZ=            -25.1462
   XY=             -1.0454   XZ=              0.3907   YZ=             -0.0195

 Normal termination of Gaussian 09 at Wed Aug 26 19:47:18 2020.
