 Gaussian 09, Revision D.01,
 Gaussian 09:  ES64L-G09RevD.01 24-Apr-2013

 --------------------
 #p B2PLYPD3/Def2QZVP
 --------------------

 --------
 acrolein
 --------
 Symbolic Z-matrix:
 Charge =  0 Multiplicity = 1

                         Standard orientation:
 ---------------------------------------------------------------------
 Center     Atomic      Atomic             Coordinates (Angstroms)
 Number     Number       Type             X           Y           Z
 ---------------------------------------------------------------------
      1          6           0       -0.673688    0.344910    0.035594
      2          8           0       -1.785830   -0.101780   -0.034459
      3          6           0        0.549067   -0.473422    0.061070
      4          6           0        1.767984    0.136332   -0.034877
      5          1           0        0.431140   -1.531774   -0.038757
      6          1           0        1.918831    1.297852    0.008565
      7          1           0        2.629824   -0.384028   -0.067622
      8          1           0       -0.553328    1.385265    0.002765
 ---------------------------------------------------------------------

 SCF Done:  E(RB2PLYPD3) =  -191.603655231     A.U. after   12 cycles
 E2(B2PLYPD3) =    -0.2469774436D+00 E(B2PLYPD3) =    -0.19185063267454D+03

 The electronic state is 1-A.
 Alpha  occ. eigenvalues --  -19.72401 -10.70645 -10.66109 -10.64849  -1.19939
 Alpha  occ. eigenvalues --   -0.92215  -0.75952  -0.67705  -0.56931  -0.56187
 Alpha  occ. eigenvalues --   -0.50735  -0.46977  -0.46696  -0.34238  -0.33663
 Alpha virt. eigenvalues --   -0.01940   0.05631   0.07436   0.08027   0.09581
 Alpha virt. eigenvalues --    0.12428   0.14161   0.15451   0.17787   0.19379
 Alpha virt. eigenvalues --    0.19967   0.21810   0.24708   0.26711   0.28741

 Mulliken charges:
               1
     1  C    0.159665
     2  O   -0.347594
     3  C   -0.056455
     4  C   -0.127447
     5  H    0.110901
     6  H    0.077742
     7  H    0.104686
     8  H    0.078500
 Sum of Mulliken charges =   0.00000

 Dipole moment (field-independent basis, Debye):
    X=              3.5008    Y=              0.7385    Z=              0.0219  Tot=              3.5780
 Quadrupole moment (field-independent basis, Debye-Ang):
   XX=            -27.3237   YY=            -21.6022   ZZ=            -25.2506
   XY=             -0.7874   XZ=             -0.3655   YZ=              0.1424

 Normal termination of Gaussian 09 at Wed Aug 26 09:33:47 2020.
