 Gaussian 09, Revision D.01,
 Gaussian 09:  ES64L-G09RevD.01 24-Apr-2013

 --------------------
 #p B2PLYPD3/Def2QZVP
 --------------------

 --------
 acrolein
 --------
 Symbolic Z-matrix:
 Charge =  0 Multiplicity = 1

                         Standard orientation:
 ---------------------------------------------------------------------
 Center     Atomic      Atomic             Coordinates (Angstroms)
 Number     Number       Type             X           Y           Z
 ---------------------------------------------------------------------
      1          6           0        0.686809    0.357190   -0.012861
      2          8           0        1.774886   -0.137889    0.034147
      3          6           0       -0.594076   -0.454330   -0.061077
      4          6           0       -1.750904    0.150710    0.024341
      5          1           0       -0.455537   -1.491726   -0.093121
      6          1           0       -1.727312    1.220678   -0.126955
      7          1           0       -2.625209   -0.405668    0.248799
      8          1           0        0.558000    1.458407   -0.004310
 ---------------------------------------------------------------------

 SCF Done:  E(RB2PLYPD3) =  -191.610552326     A.U. after   14 cycles
 E2(B2PLYPD3) =    -0.2459758395D+00 E(B2PLYPD3) =    -0.19185652816544D+03

 The electronic state is 1-A.
 Alpha  occ. eigenvalues --  -19.72986 -10.71754 -10.64398 -10.63647  -1.20503
 Alpha  occ. eigenvalues --   -0.93180  -0.74467  -0.67294  -0.57282  -0.55965
 Alpha  occ. eigenvalues --   -0.51133  -0.47901  -0.46745  -0.34834  -0.33486
 Alpha virt. eigenvalues --   -0.00914   0.05958   0.07315   0.07873   0.09907
 Alpha virt. eigenvalues --    0.12490   0.13795   0.15448   0.17412   0.19451
 Alpha virt. eigenvalues --    0.20304   0.21794   0.25009   0.26592   0.28962

 Mulliken charges:
               1
     1  C    0.154692
     2  O   -0.336811
     3  C   -0.046828
     4  C   -0.139257
     5  H    0.106393
     6  H    0.086575
     7  H    0.105974
     8  H    0.069263
 Sum of Mulliken charges =   0.00000

 Dipole moment (field-independent basis, Debye):
    X=             -3.1952    Y=              0.7689    Z=             -0.0528  Tot=              3.2868
 Quadrupole moment (field-independent basis, Debye-Ang):
   XX=            -27.6375   YY=            -21.7525   ZZ=            -25.0132
   XY=              1.2419   XZ=             -0.5590   YZ=             -0.2105

 Normal termination of Gaussian 09 at Wed Aug 26 12:34:31 2020.
