 Gaussian 09, Revision D.01,
 Gaussian 09:  ES64L-G09RevD.01 24-Apr-2013

 --------------------
 #p B2PLYPD3/Def2QZVP
 --------------------

 --------
 acrolein
 --------
 Symbolic Z-matrix:
 Charge =  0 Multiplicity = 1

                         Standard orientation:
 ---------------------------------------------------------------------
 Center     Atomic      Atomic             Coordinates (Angstroms)
 Number     Number       Type             X           Y           Z
 ---------------------------------------------------------------------
      1          6           0        0.669371    0.342779    0.001689
      2          8           0        1.799429   -0.109486    0.009410
      3          6           0       -0.560341   -0.457766   -0.024628
      4          6           0       -1.758589    0.144506   -0.000596
      5          1           0       -0.432113   -1.573989    0.005489
      6          1           0       -1.849932    1.230828    0.007653
      7          1           0       -2.699326   -0.401680    0.075511
      8          1           0        0.483298    1.443613   -0.022724
 ---------------------------------------------------------------------

 SCF Done:  E(RB2PLYPD3) =  -191.614407102     A.U. after   12 cycles
 E2(B2PLYPD3) =    -0.2481319545D+00 E(B2PLYPD3) =    -0.19186253905642D+03

 The electronic state is 1-A.
 Alpha  occ. eigenvalues --  -19.72897 -10.71805 -10.65970 -10.65099  -1.19128
 Alpha  occ. eigenvalues --   -0.92828  -0.75495  -0.66432  -0.56538  -0.55919
 Alpha  occ. eigenvalues --   -0.50429  -0.46606  -0.46507  -0.34641  -0.33869
 Alpha virt. eigenvalues --   -0.02034   0.05674   0.06957   0.08105   0.09671
 Alpha virt. eigenvalues --    0.12529   0.14049   0.15315   0.17183   0.19793
 Alpha virt. eigenvalues --    0.19947   0.21544   0.25267   0.26463   0.28662

 Mulliken charges:
               1
     1  C    0.159102
     2  O   -0.350841
     3  C   -0.035277
     4  C   -0.127915
     5  H    0.101749
     6  H    0.084052
     7  H    0.102945
     8  H    0.066185
 Sum of Mulliken charges =   0.00000

 Dipole moment (field-independent basis, Debye):
    X=             -3.5800    Y=              0.7258    Z=              0.0516  Tot=              3.6532
 Quadrupole moment (field-independent basis, Debye-Ang):
   XX=            -27.4369   YY=            -21.7938   ZZ=            -25.3237
   XY=              0.7316   XZ=             -0.2624   YZ=             -0.0617

 Normal termination of Gaussian 09 at Wed Aug 26 18:33:43 2020.
