 Gaussian 09, Revision D.01,
 Gaussian 09:  ES64L-G09RevD.01 24-Apr-2013

 --------------------
 #p B2PLYPD3/Def2QZVP
 --------------------

 --------
 acrolein
 --------
 Symbolic Z-matrix:
 Charge =  0 Multiplicity = 1

                         Standard orientation:
 ---------------------------------------------------------------------
 Center     Atomic      Atomic             Coordinates (Angstroms)
 Number     Number       Type             X           Y           Z
 ---------------------------------------------------------------------
      1          6           0        0.674063    0.352842   -0.008140
      2          8           0        1.789585   -0.118281    0.007127
      3          6           0       -0.565531   -0.457377   -0.012094
      4          6           0       -1.755370    0.141551    0.007633
      5          1           0       -0.438438   -1.523095   -0.013916
      6          1           0       -1.835251    1.219066   -0.046615
      7          1           0       -2.661197   -0.399140    0.050912
      8          1           0        0.499237    1.427323    0.028206
 ---------------------------------------------------------------------

 SCF Done:  E(RB2PLYPD3) =  -191.616743703     A.U. after   12 cycles
 E2(B2PLYPD3) =    -0.2468285668D+00 E(B2PLYPD3) =    -0.19186357226983D+03

 The electronic state is 1-A.
 Alpha  occ. eigenvalues --  -19.72847 -10.71489 -10.65101 -10.64307  -1.19492
 Alpha  occ. eigenvalues --   -0.92966  -0.75571  -0.67366  -0.56717  -0.56438
 Alpha  occ. eigenvalues --   -0.50844  -0.47160  -0.46680  -0.34653  -0.33855
 Alpha virt. eigenvalues --   -0.01638   0.05796   0.07334   0.08047   0.09746
 Alpha virt. eigenvalues --    0.12664   0.14094   0.15369   0.17503   0.19743
 Alpha virt. eigenvalues --    0.20063   0.21721   0.25369   0.26626   0.28705

 Mulliken charges:
               1
     1  C    0.156683
     2  O   -0.349400
     3  C   -0.041855
     4  C   -0.132337
     5  H    0.106524
     6  H    0.082974
     7  H    0.102323
     8  H    0.075088
 Sum of Mulliken charges =   0.00000

 Dipole moment (field-independent basis, Debye):
    X=             -3.4681    Y=              0.7728    Z=             -0.0222  Tot=              3.5533
 Quadrupole moment (field-independent basis, Debye-Ang):
   XX=            -27.4540   YY=            -21.7082   ZZ=            -25.1671
   XY=              0.8607   XZ=             -0.0785   YZ=             -0.0604

 Normal termination of Gaussian 09 at Wed Aug 26 16:01:09 2020.
