 Gaussian 09, Revision D.01,
 Gaussian 09:  ES64L-G09RevD.01 24-Apr-2013

 --------------------
 #p B2PLYPD3/Def2QZVP
 --------------------

 --------
 acrolein
 --------
 Symbolic Z-matrix:
 Charge =  0 Multiplicity = 1

                         Standard orientation:
 ---------------------------------------------------------------------
 Center     Atomic      Atomic             Coordinates (Angstroms)
 Number     Number       Type             X           Y           Z
 ---------------------------------------------------------------------
      1          6           0        0.673170    0.356365   -0.026761
      2          8           0        1.761156   -0.148574    0.053670
      3          6           0       -0.494582   -0.418196   -0.079312
      4          6           0       -1.751471    0.132001    0.024194
      5          1           0       -0.448050   -1.407028   -0.053635
      6          1           0       -1.803586    1.078293    0.066659
      7          1           0       -2.931776   -0.442315    0.161402
      8          1           0        0.531458    1.538623   -0.112511
 ---------------------------------------------------------------------

 SCF Done:  E(RB2PLYPD3) =  -191.556167915     A.U. after   13 cycles
 E2(B2PLYPD3) =    -0.2491963431D+00 E(B2PLYPD3) =    -0.19180536425791D+03

 The electronic state is 1-A.
 Alpha  occ. eigenvalues --  -19.72735 -10.71886 -10.67102 -10.63712  -1.20280
 Alpha  occ. eigenvalues --   -0.93500  -0.76212  -0.68075  -0.57484  -0.55241
 Alpha  occ. eigenvalues --   -0.49379  -0.47506  -0.46559  -0.34079  -0.33921
 Alpha virt. eigenvalues --   -0.02686   0.04668   0.06930   0.08502   0.09516
 Alpha virt. eigenvalues --    0.11717   0.13887   0.15356   0.17959   0.19440
 Alpha virt. eigenvalues --    0.20079   0.21034   0.24599   0.25555   0.28394

 Mulliken charges:
               1
     1  C    0.147083
     2  O   -0.343104
     3  C   -0.026438
     4  C   -0.140414
     5  H    0.118188
     6  H    0.100090
     7  H    0.091833
     8  H    0.052760
 Sum of Mulliken charges =   0.00000

 Dipole moment (field-independent basis, Debye):
    X=             -3.5340    Y=              0.7843    Z=             -0.0261  Tot=              3.6201
 Quadrupole moment (field-independent basis, Debye-Ang):
   XX=            -26.6373   YY=            -22.2546   ZZ=            -25.2800
   XY=              1.0194   XZ=             -0.7619   YZ=             -0.0061

 Normal termination of Gaussian 09 at Wed Aug 26 14:01:43 2020.
