 Gaussian 09, Revision D.01,
 Gaussian 09:  ES64L-G09RevD.01 24-Apr-2013

 --------------------
 #p B2PLYPD3/Def2QZVP
 --------------------

 --------
 acrolein
 --------
 Symbolic Z-matrix:
 Charge =  0 Multiplicity = 1

                         Standard orientation:
 ---------------------------------------------------------------------
 Center     Atomic      Atomic             Coordinates (Angstroms)
 Number     Number       Type             X           Y           Z
 ---------------------------------------------------------------------
      1          6           0        0.677144    0.362121    0.040264
      2          8           0        1.763664   -0.158144   -0.047785
      3          6           0       -0.534482   -0.413345    0.056294
      4          6           0       -1.732298    0.123188   -0.057570
      5          1           0       -0.547465   -1.372055    0.049173
      6          1           0       -1.757797    1.123646   -0.087293
      7          1           0       -2.818354   -0.398047    0.040557
      8          1           0        0.552122    1.479822    0.145913
 ---------------------------------------------------------------------

 SCF Done:  E(RB2PLYPD3) =  -191.583301236     A.U. after   13 cycles
 E2(B2PLYPD3) =    -0.2468229469D+00 E(B2PLYPD3) =    -0.19183012418325D+03

 The electronic state is 1-A.
 Alpha  occ. eigenvalues --  -19.72870 -10.71812 -10.65271 -10.62436  -1.19916
 Alpha  occ. eigenvalues --   -0.94241  -0.75307  -0.69073  -0.57768  -0.55813
 Alpha  occ. eigenvalues --   -0.50412  -0.47107  -0.46598  -0.34882  -0.34101
 Alpha virt. eigenvalues --   -0.01805   0.05542   0.07333   0.08403   0.09697
 Alpha virt. eigenvalues --    0.12264   0.14065   0.15427   0.18307   0.19331
 Alpha virt. eigenvalues --    0.20104   0.21071   0.25561   0.25823   0.29157

 Mulliken charges:
               1
     1  C    0.138720
     2  O   -0.342284
     3  C   -0.031565
     4  C   -0.116845
     5  H    0.112148
     6  H    0.073369
     7  H    0.090094
     8  H    0.076363
 Sum of Mulliken charges =   0.00000

 Dipole moment (field-independent basis, Debye):
    X=             -3.4100    Y=              0.8750    Z=              0.2054  Tot=              3.5264
 Quadrupole moment (field-independent basis, Debye-Ang):
   XX=            -26.9151   YY=            -22.0846   ZZ=            -24.9999
   XY=              1.3491   XZ=              0.2189   YZ=             -0.0816

 Normal termination of Gaussian 09 at Wed Aug 26 14:54:37 2020.
