 Gaussian 09, Revision D.01,
 Gaussian 09:  ES64L-G09RevD.01 24-Apr-2013

 --------------------
 #p B2PLYPD3/Def2QZVP
 --------------------

 --------
 acrolein
 --------
 Symbolic Z-matrix:
 Charge =  0 Multiplicity = 1

                         Standard orientation:
 ---------------------------------------------------------------------
 Center     Atomic      Atomic             Coordinates (Angstroms)
 Number     Number       Type             X           Y           Z
 ---------------------------------------------------------------------
      1          6           0        0.660245    0.362568    0.034585
      2          8           0        1.764624   -0.146875   -0.056622
      3          6           0       -0.541417   -0.407864    0.119175
      4          6           0       -1.740045    0.114303   -0.070729
      5          1           0       -0.401739   -1.451083   -0.015163
      6          1           0       -1.841757    1.223975    0.021172
      7          1           0       -2.704309   -0.498216   -0.114184
      8          1           0        0.558113    1.486285    0.062961
 ---------------------------------------------------------------------

 SCF Done:  E(RB2PLYPD3) =  -191.606664833     A.U. after   13 cycles
 E2(B2PLYPD3) =    -0.2481763309D+00 E(B2PLYPD3) =    -0.19185484116344D+03

 The electronic state is 1-A.
 Alpha  occ. eigenvalues --  -19.72665 -10.71578 -10.66515 -10.63728  -1.19039
 Alpha  occ. eigenvalues --   -0.93690  -0.75467  -0.66774  -0.56384  -0.56129
 Alpha  occ. eigenvalues --   -0.50215  -0.46793  -0.45804  -0.34959  -0.33929
 Alpha virt. eigenvalues --   -0.02124   0.05524   0.07043   0.08101   0.09879
 Alpha virt. eigenvalues --    0.12092   0.13483   0.15122   0.17970   0.19387
 Alpha virt. eigenvalues --    0.19812   0.21419   0.24180   0.26641   0.28929

 Mulliken charges:
               1
     1  C    0.158475
     2  O   -0.355556
     3  C   -0.041460
     4  C   -0.111148
     5  H    0.110014
     6  H    0.077587
     7  H    0.098759
     8  H    0.063331
 Sum of Mulliken charges =   0.00000

 Dipole moment (field-independent basis, Debye):
    X=             -3.5443    Y=              0.8036    Z=              0.0822  Tot=              3.6352
 Quadrupole moment (field-independent basis, Debye-Ang):
   XX=            -27.2518   YY=            -21.9446   ZZ=            -25.2009
   XY=              1.2295   XZ=              0.5467   YZ=              0.2223

 Normal termination of Gaussian 09 at Wed Aug 26 14:30:44 2020.
