 Gaussian 09, Revision D.01,
 Gaussian 09:  ES64L-G09RevD.01 24-Apr-2013

 --------------------
 #p B2PLYPD3/Def2QZVP
 --------------------

 --------
 acrolein
 --------
 Symbolic Z-matrix:
 Charge =  0 Multiplicity = 1

                         Standard orientation:
 ---------------------------------------------------------------------
 Center     Atomic      Atomic             Coordinates (Angstroms)
 Number     Number       Type             X           Y           Z
 ---------------------------------------------------------------------
      1          6           0       -0.677423    0.354049    0.026393
      2          8           0       -1.774973   -0.125030   -0.024252
      3          6           0        0.551080   -0.441644    0.019450
      4          6           0        1.754636    0.134494   -0.019881
      5          1           0        0.428024   -1.519938    0.045993
      6          1           0        1.844442    1.236030    0.000174
      7          1           0        2.676437   -0.438423   -0.036372
      8          1           0       -0.518879    1.441178    0.028452
 ---------------------------------------------------------------------

 SCF Done:  E(RB2PLYPD3) =  -191.616975757     A.U. after   12 cycles
 E2(B2PLYPD3) =    -0.2466097466D+00 E(B2PLYPD3) =    -0.19186358550385D+03

 The electronic state is 1-A.
 Alpha  occ. eigenvalues --  -19.72760 -10.71266 -10.65670 -10.64239  -1.20275
 Alpha  occ. eigenvalues --   -0.92799  -0.75347  -0.66921  -0.56598  -0.56313
 Alpha  occ. eigenvalues --   -0.50796  -0.47243  -0.46531  -0.34602  -0.33850
 Alpha virt. eigenvalues --   -0.01599   0.05741   0.07194   0.08363   0.09757
 Alpha virt. eigenvalues --    0.12488   0.14012   0.15398   0.17570   0.19647
 Alpha virt. eigenvalues --    0.19935   0.21562   0.25605   0.26484   0.28779

 Mulliken charges:
               1
     1  C    0.157764
     2  O   -0.342849
     3  C   -0.040623
     4  C   -0.132985
     5  H    0.104213
     6  H    0.081536
     7  H    0.103657
     8  H    0.069286
 Sum of Mulliken charges =   0.00000

 Dipole moment (field-independent basis, Debye):
    X=              3.3957    Y=              0.7622    Z=              0.1025  Tot=              3.4817
 Quadrupole moment (field-independent basis, Debye-Ang):
   XX=            -27.3128   YY=            -21.7740   ZZ=            -25.2089
   XY=             -0.9693   XZ=             -0.1810   YZ=             -0.0235

 Normal termination of Gaussian 09 at Wed Aug 26 18:46:45 2020.
