 Gaussian 09, Revision D.01,
 Gaussian 09:  ES64L-G09RevD.01 24-Apr-2013

 --------------------
 #p B2PLYPD3/Def2QZVP
 --------------------

 --------
 acrolein
 --------
 Symbolic Z-matrix:
 Charge =  0 Multiplicity = 1

                         Standard orientation:
 ---------------------------------------------------------------------
 Center     Atomic      Atomic             Coordinates (Angstroms)
 Number     Number       Type             X           Y           Z
 ---------------------------------------------------------------------
      1          6           0       -0.683138    0.353613    0.026526
      2          8           0       -1.780646   -0.128722   -0.021390
      3          6           0        0.554677   -0.441440    0.027767
      4          6           0        1.754536    0.138174   -0.019492
      5          1           0        0.478120   -1.486281    0.006112
      6          1           0        1.819970    1.205784    0.018952
      7          1           0        2.714600   -0.409231   -0.047395
      8          1           0       -0.523968    1.417427   -0.015355
 ---------------------------------------------------------------------

 SCF Done:  E(RB2PLYPD3) =  -191.615398352     A.U. after   12 cycles
 E2(B2PLYPD3) =    -0.2462318814D+00 E(B2PLYPD3) =    -0.19186163023311D+03

 The electronic state is 1-A.
 Alpha  occ. eigenvalues --  -19.72797 -10.71226 -10.65383 -10.63827  -1.20221
 Alpha  occ. eigenvalues --   -0.92943  -0.75356  -0.67830  -0.56951  -0.56354
 Alpha  occ. eigenvalues --   -0.50869  -0.47149  -0.46859  -0.34614  -0.33929
 Alpha virt. eigenvalues --   -0.01562   0.05767   0.07415   0.08243   0.09728
 Alpha virt. eigenvalues --    0.12574   0.14175   0.15414   0.17855   0.19776
 Alpha virt. eigenvalues --    0.20013   0.21345   0.25448   0.26533   0.28855

 Mulliken charges:
               1
     1  C    0.151061
     2  O   -0.342471
     3  C   -0.039841
     4  C   -0.132776
     5  H    0.107386
     6  H    0.079562
     7  H    0.099612
     8  H    0.077467
 Sum of Mulliken charges =   0.00000

 Dipole moment (field-independent basis, Debye):
    X=              3.3955    Y=              0.8058    Z=              0.0519  Tot=              3.4902
 Quadrupole moment (field-independent basis, Debye-Ang):
   XX=            -27.2350   YY=            -21.8248   ZZ=            -25.1294
   XY=             -1.0626   XZ=             -0.1873   YZ=              0.0501

 Normal termination of Gaussian 09 at Wed Aug 26 15:04:52 2020.
