 Gaussian 09, Revision D.01,
 Gaussian 09:  ES64L-G09RevD.01 24-Apr-2013

 --------------------
 #p B2PLYPD3/Def2QZVP
 --------------------

 --------
 acrolein
 --------
 Symbolic Z-matrix:
 Charge =  0 Multiplicity = 1

                         Standard orientation:
 ---------------------------------------------------------------------
 Center     Atomic      Atomic             Coordinates (Angstroms)
 Number     Number       Type             X           Y           Z
 ---------------------------------------------------------------------
      1          6           0        0.660396    0.335509    0.025501
      2          8           0        1.806990   -0.105473   -0.022047
      3          6           0       -0.571281   -0.454543    0.011190
      4          6           0       -1.755453    0.142527   -0.025066
      5          1           0       -0.427128   -1.544019    0.033234
      6          1           0       -1.843692    1.246308   -0.045665
      7          1           0       -2.656109   -0.418376    0.042826
      8          1           0        0.469036    1.418914    0.076228
 ---------------------------------------------------------------------

 SCF Done:  E(RB2PLYPD3) =  -191.614168673     A.U. after   12 cycles
 E2(B2PLYPD3) =    -0.2481473017D+00 E(B2PLYPD3) =    -0.19186231597512D+03

 The electronic state is 1-A.
 Alpha  occ. eigenvalues --  -19.72914 -10.71702 -10.65729 -10.64661  -1.18368
 Alpha  occ. eigenvalues --   -0.93446  -0.75935  -0.66761  -0.56737  -0.56017
 Alpha  occ. eigenvalues --   -0.50526  -0.46778  -0.46206  -0.34907  -0.33888
 Alpha virt. eigenvalues --   -0.02126   0.05674   0.07048   0.08152   0.09716
 Alpha virt. eigenvalues --    0.12606   0.13912   0.15289   0.17314   0.19495
 Alpha virt. eigenvalues --    0.20037   0.21749   0.25325   0.26660   0.28658

 Mulliken charges:
               1
     1  C    0.159420
     2  O   -0.359272
     3  C   -0.031674
     4  C   -0.127417
     5  H    0.101792
     6  H    0.084853
     7  H    0.105262
     8  H    0.067037
 Sum of Mulliken charges =   0.00000

 Dipole moment (field-independent basis, Debye):
    X=             -3.6595    Y=              0.7027    Z=              0.1328  Tot=              3.7287
 Quadrupole moment (field-independent basis, Debye-Ang):
   XX=            -27.6281   YY=            -21.7648   ZZ=            -25.2316
   XY=              0.7247   XZ=              0.0517   YZ=             -0.0926

 Normal termination of Gaussian 09 at Wed Aug 26 16:18:15 2020.
