 Gaussian 09, Revision D.01,
 Gaussian 09:  ES64L-G09RevD.01 24-Apr-2013

 --------------------
 #p B2PLYPD3/Def2QZVP
 --------------------

 --------
 acrolein
 --------
 Symbolic Z-matrix:
 Charge =  0 Multiplicity = 1

                         Standard orientation:
 ---------------------------------------------------------------------
 Center     Atomic      Atomic             Coordinates (Angstroms)
 Number     Number       Type             X           Y           Z
 ---------------------------------------------------------------------
      1          6           0       -0.668990    0.370644   -0.014378
      2          8           0       -1.776395   -0.135863    0.031748
      3          6           0        0.548531   -0.435392   -0.048911
      4          6           0        1.751087    0.139812    0.012024
      5          1           0        0.397849   -1.525646   -0.057151
      6          1           0        1.800755    1.180062   -0.018990
      7          1           0        2.737027   -0.461562    0.169783
      8          1           0       -0.508236    1.443671   -0.040032
 ---------------------------------------------------------------------

 SCF Done:  E(RB2PLYPD3) =  -191.609267296     A.U. after   12 cycles
 E2(B2PLYPD3) =    -0.2478390365D+00 E(B2PLYPD3) =    -0.19185710633208D+03

 The electronic state is 1-A.
 Alpha  occ. eigenvalues --  -19.72781 -10.71471 -10.65887 -10.64416  -1.19091
 Alpha  occ. eigenvalues --   -0.93031  -0.75303  -0.67361  -0.56841  -0.55591
 Alpha  occ. eigenvalues --   -0.50218  -0.46893  -0.46272  -0.34536  -0.33961
 Alpha virt. eigenvalues --   -0.01879   0.05582   0.07026   0.08036   0.09810
 Alpha virt. eigenvalues --    0.12358   0.13842   0.15343   0.17435   0.19742
 Alpha virt. eigenvalues --    0.20040   0.21340   0.25364   0.26539   0.28936

 Mulliken charges:
               1
     1  C    0.153115
     2  O   -0.355617
     3  C   -0.034397
     4  C   -0.137011
     5  H    0.107688
     6  H    0.087489
     7  H    0.100525
     8  H    0.078208
 Sum of Mulliken charges =   0.00000

 Dipole moment (field-independent basis, Debye):
    X=              3.4547    Y=              0.8701    Z=             -0.0201  Tot=              3.5626
 Quadrupole moment (field-independent basis, Debye-Ang):
   XX=            -27.5528   YY=            -21.7018   ZZ=            -25.2422
   XY=             -1.0350   XZ=              0.5334   YZ=             -0.0877

 Normal termination of Gaussian 09 at Wed Aug 26 09:16:12 2020.
