 Gaussian 09, Revision D.01,
 Gaussian 09:  ES64L-G09RevD.01 24-Apr-2013

 --------------------
 #p B2PLYPD3/Def2QZVP
 --------------------

 --------
 acrolein
 --------
 Symbolic Z-matrix:
 Charge =  0 Multiplicity = 1

                         Standard orientation:
 ---------------------------------------------------------------------
 Center     Atomic      Atomic             Coordinates (Angstroms)
 Number     Number       Type             X           Y           Z
 ---------------------------------------------------------------------
      1          6           0       -0.687386    0.372072    0.010840
      2          8           0       -1.767197   -0.141870   -0.012342
      3          6           0        0.564796   -0.448712    0.000970
      4          6           0        1.743482    0.141105   -0.021946
      5          1           0        0.499359   -1.514196    0.025980
      6          1           0        1.809179    1.208142   -0.072387
      7          1           0        2.664631   -0.392148    0.102316
      8          1           0       -0.560949    1.446368    0.103639
 ---------------------------------------------------------------------

 SCF Done:  E(RB2PLYPD3) =  -191.615605140     A.U. after   12 cycles
 E2(B2PLYPD3) =    -0.2457180402D+00 E(B2PLYPD3) =    -0.19186132317991D+03

 The electronic state is 1-A.
 Alpha  occ. eigenvalues --  -19.72813 -10.71493 -10.64403 -10.63831  -1.20493
 Alpha  occ. eigenvalues --   -0.92827  -0.74801  -0.67530  -0.57063  -0.56440
 Alpha  occ. eigenvalues --   -0.50970  -0.47137  -0.46789  -0.34688  -0.33814
 Alpha virt. eigenvalues --   -0.01016   0.05904   0.07299   0.08039   0.09767
 Alpha virt. eigenvalues --    0.12590   0.14309   0.15490   0.17605   0.19501
 Alpha virt. eigenvalues --    0.20077   0.21732   0.25488   0.26557   0.28802

 Mulliken charges:
               1
     1  C    0.150509
     2  O   -0.336158
     3  C   -0.052105
     4  C   -0.129229
     5  H    0.107102
     6  H    0.076459
     7  H    0.097698
     8  H    0.085724
 Sum of Mulliken charges =   0.00000

 Dipole moment (field-independent basis, Debye):
    X=              3.2274    Y=              0.8730    Z=              0.1307  Tot=              3.3459
 Quadrupole moment (field-independent basis, Debye-Ang):
   XX=            -27.4030   YY=            -21.6222   ZZ=            -25.0937
   XY=             -1.1947   XZ=              0.0972   YZ=             -0.1261

 Normal termination of Gaussian 09 at Wed Aug 26 09:10:32 2020.
