 Gaussian 09, Revision D.01,
 Gaussian 09:  ES64L-G09RevD.01 24-Apr-2013

 --------------------
 #p B2PLYPD3/Def2QZVP
 --------------------

 --------
 acrolein
 --------
 Symbolic Z-matrix:
 Charge =  0 Multiplicity = 1

                         Standard orientation:
 ---------------------------------------------------------------------
 Center     Atomic      Atomic             Coordinates (Angstroms)
 Number     Number       Type             X           Y           Z
 ---------------------------------------------------------------------
      1          6           0       -0.663871    0.355518   -0.047711
      2          8           0       -1.803507   -0.110907    0.017511
      3          6           0        0.615971   -0.510375   -0.026298
      4          6           0        1.737475    0.179925    0.027613
      5          1           0        0.521312   -1.585764    0.046935
      6          1           0        1.896894    1.388456   -0.062855
      7          1           0        2.556318   -0.414074    0.022272
      8          1           0       -0.683917    1.348232    0.131944
 ---------------------------------------------------------------------

 SCF Done:  E(RB2PLYPD3) =  -191.578752237     A.U. after   13 cycles
 E2(B2PLYPD3) =    -0.2483479012D+00 E(B2PLYPD3) =    -0.19182710013811D+03

 The electronic state is 1-A.
 Alpha  occ. eigenvalues --  -19.72295 -10.70946 -10.65442 -10.65185  -1.17973
 Alpha  occ. eigenvalues --   -0.92831  -0.74512  -0.67739  -0.57090  -0.55388
 Alpha  occ. eigenvalues --   -0.50028  -0.46290  -0.45378  -0.34978  -0.33178
 Alpha virt. eigenvalues --   -0.01016   0.05424   0.06789   0.07097   0.09452
 Alpha virt. eigenvalues --    0.12244   0.14139   0.15185   0.17594   0.18920
 Alpha virt. eigenvalues --    0.19936   0.21872   0.24477   0.25940   0.28783

 Mulliken charges:
               1
     1  C    0.160579
     2  O   -0.359244
     3  C   -0.079317
     4  C   -0.119441
     5  H    0.116138
     6  H    0.091473
     7  H    0.094328
     8  H    0.095485
 Sum of Mulliken charges =   0.00000

 Dipole moment (field-independent basis, Debye):
    X=              3.4677    Y=              0.8024    Z=             -0.0259  Tot=              3.5594
 Quadrupole moment (field-independent basis, Debye-Ang):
   XX=            -28.3173   YY=            -20.9090   ZZ=            -25.2964
   XY=             -1.0703   XZ=             -0.0182   YZ=             -0.1248

 Normal termination of Gaussian 09 at Wed Aug 26 14:10:22 2020.
