 Gaussian 09, Revision D.01,
 Gaussian 09:  ES64L-G09RevD.01 24-Apr-2013

 --------------------
 #p B2PLYPD3/Def2QZVP
 --------------------

 --------
 acrolein
 --------
 Symbolic Z-matrix:
 Charge =  0 Multiplicity = 1

                         Standard orientation:
 ---------------------------------------------------------------------
 Center     Atomic      Atomic             Coordinates (Angstroms)
 Number     Number       Type             X           Y           Z
 ---------------------------------------------------------------------
      1          6           0       -0.675119    0.342104    0.025036
      2          8           0       -1.785451   -0.114178   -0.025270
      3          6           0        0.564578   -0.449551    0.005966
      4          6           0        1.769986    0.138777   -0.017782
      5          1           0        0.406916   -1.526060    0.081782
      6          1           0        1.850418    1.236832   -0.029825
      7          1           0        2.623601   -0.409626   -0.009353
      8          1           0       -0.553996    1.424302    0.080243
 ---------------------------------------------------------------------

 SCF Done:  E(RB2PLYPD3) =  -191.613558180     A.U. after   12 cycles
 E2(B2PLYPD3) =    -0.2464646186D+00 E(B2PLYPD3) =    -0.19186002279906D+03

 The electronic state is 1-A.
 Alpha  occ. eigenvalues --  -19.72682 -10.71139 -10.65118 -10.64582  -1.20021
 Alpha  occ. eigenvalues --   -0.92816  -0.76007  -0.66941  -0.57138  -0.56436
 Alpha  occ. eigenvalues --   -0.50979  -0.47346  -0.46712  -0.34574  -0.33716
 Alpha virt. eigenvalues --   -0.01745   0.05855   0.07285   0.08372   0.09745
 Alpha virt. eigenvalues --    0.12595   0.14066   0.15353   0.17472   0.19595
 Alpha virt. eigenvalues --    0.20013   0.21992   0.25371   0.26559   0.28837

 Mulliken charges:
               1
     1  C    0.158602
     2  O   -0.345234
     3  C   -0.042600
     4  C   -0.133334
     5  H    0.101985
     6  H    0.085479
     7  H    0.108139
     8  H    0.066963
 Sum of Mulliken charges =   0.00000

 Dipole moment (field-independent basis, Debye):
    X=              3.4434    Y=              0.7339    Z=              0.1512  Tot=              3.5240
 Quadrupole moment (field-independent basis, Debye-Ang):
   XX=            -27.3394   YY=            -21.7507   ZZ=            -25.1618
   XY=             -0.8761   XZ=             -0.1542   YZ=             -0.1219

 Normal termination of Gaussian 09 at Wed Aug 26 11:03:42 2020.
