 Gaussian 09, Revision D.01,
 Gaussian 09:  ES64L-G09RevD.01 24-Apr-2013

 --------------------
 #p B2PLYPD3/Def2QZVP
 --------------------

 --------
 acrolein
 --------
 Symbolic Z-matrix:
 Charge =  0 Multiplicity = 1

                         Standard orientation:
 ---------------------------------------------------------------------
 Center     Atomic      Atomic             Coordinates (Angstroms)
 Number     Number       Type             X           Y           Z
 ---------------------------------------------------------------------
      1          6           0       -0.677716    0.352416    0.016628
      2          8           0       -1.788601   -0.119197   -0.017921
      3          6           0        0.554101   -0.451270    0.014260
      4          6           0        1.763998    0.134343   -0.023298
      5          1           0        0.436251   -1.512286    0.017264
      6          1           0        1.886367    1.266603   -0.046066
      7          1           0        2.661010   -0.444799    0.048838
      8          1           0       -0.517119    1.431120    0.077785
 ---------------------------------------------------------------------

 SCF Done:  E(RB2PLYPD3) =  -191.614381152     A.U. after   13 cycles
 E2(B2PLYPD3) =    -0.2472567246D+00 E(B2PLYPD3) =    -0.19186163787710D+03

 The electronic state is 1-A.
 Alpha  occ. eigenvalues --  -19.72779 -10.71374 -10.66070 -10.64397  -1.19710
 Alpha  occ. eigenvalues --   -0.92586  -0.75400  -0.67068  -0.56488  -0.56120
 Alpha  occ. eigenvalues --   -0.50707  -0.46813  -0.46745  -0.34478  -0.33848
 Alpha virt. eigenvalues --   -0.01846   0.05648   0.07252   0.08196   0.09678
 Alpha virt. eigenvalues --    0.12417   0.13954   0.15424   0.17693   0.19222
 Alpha virt. eigenvalues --    0.19991   0.21669   0.25381   0.26542   0.28647

 Mulliken charges:
               1
     1  C    0.159470
     2  O   -0.347614
     3  C   -0.047901
     4  C   -0.129991
     5  H    0.107781
     6  H    0.081090
     7  H    0.103388
     8  H    0.073778
 Sum of Mulliken charges =   0.00000

 Dipole moment (field-independent basis, Debye):
    X=              3.4629    Y=              0.7530    Z=              0.1050  Tot=              3.5454
 Quadrupole moment (field-independent basis, Debye-Ang):
   XX=            -27.4585   YY=            -21.6895   ZZ=            -25.2700
   XY=             -0.9040   XZ=             -0.0321   YZ=             -0.0715

 Normal termination of Gaussian 09 at Wed Aug 26 16:00:12 2020.
