 Gaussian 09, Revision D.01,
 Gaussian 09:  ES64L-G09RevD.01 24-Apr-2013

 --------------------
 #p B2PLYPD3/Def2QZVP
 --------------------

 --------
 acrolein
 --------
 Symbolic Z-matrix:
 Charge =  0 Multiplicity = 1

                         Standard orientation:
 ---------------------------------------------------------------------
 Center     Atomic      Atomic             Coordinates (Angstroms)
 Number     Number       Type             X           Y           Z
 ---------------------------------------------------------------------
      1          6           0       -0.658988    0.319538    0.020027
      2          8           0       -1.796816   -0.095886   -0.019292
      3          6           0        0.554214   -0.456415    0.046632
      4          6           0        1.753805    0.150970   -0.032380
      5          1           0        0.447899   -1.608747   -0.049339
      6          1           0        1.863465    1.251362    0.027202
      7          1           0        2.650080   -0.414162   -0.017596
      8          1           0       -0.481103    1.454075   -0.011599
 ---------------------------------------------------------------------

 SCF Done:  E(RB2PLYPD3) =  -191.608683763     A.U. after   12 cycles
 E2(B2PLYPD3) =    -0.2484742039D+00 E(B2PLYPD3) =    -0.19185715796651D+03

 The electronic state is 1-A.
 Alpha  occ. eigenvalues --  -19.72755 -10.71706 -10.66166 -10.65473  -1.19353
 Alpha  occ. eigenvalues --   -0.93153  -0.76030  -0.65491  -0.56678  -0.55972
 Alpha  occ. eigenvalues --   -0.50189  -0.46917  -0.46331  -0.34755  -0.33647
 Alpha virt. eigenvalues --   -0.02337   0.05721   0.06574   0.08359   0.09685
 Alpha virt. eigenvalues --    0.12558   0.13905   0.15176   0.17072   0.19846
 Alpha virt. eigenvalues --    0.19921   0.21730   0.24894   0.26478   0.28466

 Mulliken charges:
               1
     1  C    0.157342
     2  O   -0.346224
     3  C   -0.028442
     4  C   -0.121116
     5  H    0.095772
     6  H    0.087918
     7  H    0.105660
     8  H    0.049090
 Sum of Mulliken charges =   0.00000

 Dipole moment (field-independent basis, Debye):
    X=              3.6777    Y=              0.6034    Z=              0.0207  Tot=              3.7269
 Quadrupole moment (field-independent basis, Debye-Ang):
   XX=            -27.3600   YY=            -21.8708   ZZ=            -25.3341
   XY=             -0.6544   XZ=             -0.1264   YZ=              0.1426

 Normal termination of Gaussian 09 at Wed Aug 26 09:34:15 2020.
