 Gaussian 09, Revision D.01,
 Gaussian 09:  ES64L-G09RevD.01 24-Apr-2013

 --------------------
 #p B2PLYPD3/Def2QZVP
 --------------------

 --------
 acrolein
 --------
 Symbolic Z-matrix:
 Charge =  0 Multiplicity = 1

                         Standard orientation:
 ---------------------------------------------------------------------
 Center     Atomic      Atomic             Coordinates (Angstroms)
 Number     Number       Type             X           Y           Z
 ---------------------------------------------------------------------
      1          6           0       -0.678976    0.351458    0.013304
      2          8           0       -1.776687   -0.129211   -0.016607
      3          6           0        0.543211   -0.448678    0.030262
      4          6           0        1.755899    0.151094   -0.022489
      5          1           0        0.464261   -1.522633   -0.009333
      6          1           0        1.789519    1.197403    0.001189
      7          1           0        2.760735   -0.435534   -0.010284
      8          1           0       -0.521821    1.471214    0.024824
 ---------------------------------------------------------------------

 SCF Done:  E(RB2PLYPD3) =  -191.610356992     A.U. after   13 cycles
 E2(B2PLYPD3) =    -0.2474802130D+00 E(B2PLYPD3) =    -0.19185783720482D+03

 The electronic state is 1-A.
 Alpha  occ. eigenvalues --  -19.72790 -10.71670 -10.66159 -10.64487  -1.20315
 Alpha  occ. eigenvalues --   -0.92586  -0.74891  -0.66979  -0.56741  -0.55739
 Alpha  occ. eigenvalues --   -0.50084  -0.47255  -0.46977  -0.34345  -0.33838
 Alpha virt. eigenvalues --   -0.01832   0.05640   0.07016   0.08224   0.09754
 Alpha virt. eigenvalues --    0.12370   0.13892   0.15355   0.17588   0.19865
 Alpha virt. eigenvalues --    0.20079   0.21059   0.25343   0.26174   0.29008

 Mulliken charges:
               1
     1  C    0.150105
     2  O   -0.339520
     3  C   -0.035919
     4  C   -0.134126
     5  H    0.107422
     6  H    0.087598
     7  H    0.099160
     8  H    0.065280
 Sum of Mulliken charges =   0.00000

 Dipole moment (field-independent basis, Debye):
    X=              3.4090    Y=              0.7525    Z=              0.0409  Tot=              3.4913
 Quadrupole moment (field-independent basis, Debye-Ang):
   XX=            -27.2697   YY=            -21.8283   ZZ=            -25.3241
   XY=             -1.0723   XZ=             -0.1126   YZ=              0.0477

 Normal termination of Gaussian 09 at Wed Aug 26 20:57:25 2020.
