 Gaussian 09, Revision D.01,
 Gaussian 09:  ES64L-G09RevD.01 24-Apr-2013

 --------------------
 #p B2PLYPD3/Def2QZVP
 --------------------

 --------
 acrolein
 --------
 Symbolic Z-matrix:
 Charge =  0 Multiplicity = 1

                         Standard orientation:
 ---------------------------------------------------------------------
 Center     Atomic      Atomic             Coordinates (Angstroms)
 Number     Number       Type             X           Y           Z
 ---------------------------------------------------------------------
      1          6           0        0.659971    0.373033    0.073925
      2          8           0        1.800722   -0.156314   -0.071448
      3          6           0       -0.553458   -0.416591    0.014323
      4          6           0       -1.753013    0.106429   -0.063350
      5          1           0       -0.510708   -1.445714    0.288197
      6          1           0       -1.820297    1.209578   -0.106395
      7          1           0       -2.611799   -0.499574    0.009484
      8          1           0        0.416025    1.609002    0.230907
 ---------------------------------------------------------------------

 SCF Done:  E(RB2PLYPD3) =  -191.588137474     A.U. after   13 cycles
 E2(B2PLYPD3) =    -0.2517021762D+00 E(B2PLYPD3) =    -0.19183983965058D+03

 The electronic state is 1-A.
 Alpha  occ. eigenvalues --  -19.73771 -10.74150 -10.65225 -10.63979  -1.16936
 Alpha  occ. eigenvalues --   -0.94134  -0.75918  -0.65656  -0.57178  -0.54831
 Alpha  occ. eigenvalues --   -0.50179  -0.47184  -0.44673  -0.35000  -0.34202
 Alpha virt. eigenvalues --   -0.02695   0.05410   0.06229   0.07738   0.09722
 Alpha virt. eigenvalues --    0.12343   0.13056   0.14653   0.17647   0.19220
 Alpha virt. eigenvalues --    0.20011   0.21739   0.24710   0.26666   0.28791

 Mulliken charges:
               1
     1  C    0.158515
     2  O   -0.358256
     3  C   -0.013524
     4  C   -0.120067
     5  H    0.098238
     6  H    0.075713
     7  H    0.105697
     8  H    0.053684
 Sum of Mulliken charges =   0.00000

 Dipole moment (field-independent basis, Debye):
    X=             -3.6818    Y=              0.7368    Z=              0.4909  Tot=              3.7867
 Quadrupole moment (field-independent basis, Debye-Ang):
   XX=            -27.7332   YY=            -22.0140   ZZ=            -25.2678
   XY=              1.2055   XZ=              0.2179   YZ=             -0.3823

 Normal termination of Gaussian 09 at Wed Aug 26 12:51:35 2020.
