 Gaussian 09, Revision D.01,
 Gaussian 09:  ES64L-G09RevD.01 24-Apr-2013

 --------------------
 #p B2PLYPD3/Def2QZVP
 --------------------

 --------
 acrolein
 --------
 Symbolic Z-matrix:
 Charge =  0 Multiplicity = 1

                         Standard orientation:
 ---------------------------------------------------------------------
 Center     Atomic      Atomic             Coordinates (Angstroms)
 Number     Number       Type             X           Y           Z
 ---------------------------------------------------------------------
      1          6           0        0.665202    0.330673    0.031129
      2          8           0        1.807338   -0.103568   -0.030262
      3          6           0       -0.593790   -0.464380    0.060166
      4          6           0       -1.753450    0.160968   -0.038512
      5          1           0       -0.453730   -1.570020   -0.045810
      6          1           0       -1.822532    1.199068    0.018509
      7          1           0       -2.614672   -0.365188   -0.051048
      8          1           0        0.524456    1.401119    0.003741
 ---------------------------------------------------------------------

 SCF Done:  E(RB2PLYPD3) =  -191.608490074     A.U. after   13 cycles
 E2(B2PLYPD3) =    -0.2471430281D+00 E(B2PLYPD3) =    -0.19185563310210D+03

 The electronic state is 1-A.
 Alpha  occ. eigenvalues --  -19.72811 -10.71532 -10.64952 -10.64216  -1.18652
 Alpha  occ. eigenvalues --   -0.93576  -0.76168  -0.67156  -0.57234  -0.56735
 Alpha  occ. eigenvalues --   -0.50625  -0.47311  -0.46189  -0.35064  -0.33701
 Alpha virt. eigenvalues --   -0.01755   0.05923   0.07171   0.07874   0.09738
 Alpha virt. eigenvalues --    0.12894   0.13972   0.15277   0.17258   0.19918
 Alpha virt. eigenvalues --    0.20151   0.22134   0.24789   0.26736   0.28530

 Mulliken charges:
               1
     1  C    0.154316
     2  O   -0.354879
     3  C   -0.037459
     4  C   -0.123023
     5  H    0.100714
     6  H    0.086509
     7  H    0.102238
     8  H    0.071584
 Sum of Mulliken charges =   0.00000

 Dipole moment (field-independent basis, Debye):
    X=             -3.5952    Y=              0.7435    Z=              0.0325  Tot=              3.6714
 Quadrupole moment (field-independent basis, Debye-Ang):
   XX=            -27.5998   YY=            -21.6887   ZZ=            -25.0999
   XY=              0.7435   XZ=              0.2725   YZ=              0.1529

 Normal termination of Gaussian 09 at Wed Aug 26 09:10:37 2020.
