 Gaussian 09, Revision D.01,
 Gaussian 09:  ES64L-G09RevD.01 24-Apr-2013

 --------------------
 #p B2PLYPD3/Def2QZVP
 --------------------

 --------
 acrolein
 --------
 Symbolic Z-matrix:
 Charge =  0 Multiplicity = 1

                         Standard orientation:
 ---------------------------------------------------------------------
 Center     Atomic      Atomic             Coordinates (Angstroms)
 Number     Number       Type             X           Y           Z
 ---------------------------------------------------------------------
      1          6           0        0.675515    0.364478    0.017944
      2          8           0        1.786782   -0.137254   -0.013491
      3          6           0       -0.553238   -0.445988   -0.004521
      4          6           0       -1.757251    0.135006   -0.011984
      5          1           0       -0.459342   -1.490252    0.060131
      6          1           0       -1.837284    1.218299   -0.015003
      7          1           0       -2.701550   -0.448662    0.015247
      8          1           0        0.513758    1.497673    0.038916
 ---------------------------------------------------------------------

 SCF Done:  E(RB2PLYPD3) =  -191.613668411     A.U. after   13 cycles
 E2(B2PLYPD3) =    -0.2480128740D+00 E(B2PLYPD3) =    -0.19186168128517D+03

 The electronic state is 1-A.
 Alpha  occ. eigenvalues --  -19.72976 -10.72224 -10.65787 -10.64164  -1.19115
 Alpha  occ. eigenvalues --   -0.92869  -0.75009  -0.66987  -0.56271  -0.56143
 Alpha  occ. eigenvalues --   -0.50340  -0.47047  -0.46501  -0.34559  -0.33934
 Alpha virt. eigenvalues --   -0.01862   0.05660   0.07099   0.07969   0.09750
 Alpha virt. eigenvalues --    0.12363   0.13789   0.15338   0.17678   0.19740
 Alpha virt. eigenvalues --    0.19934   0.21356   0.25428   0.26286   0.28906

 Mulliken charges:
               1
     1  C    0.155855
     2  O   -0.349591
     3  C   -0.041643
     4  C   -0.129138
     5  H    0.110648
     6  H    0.083060
     7  H    0.099992
     8  H    0.070817
 Sum of Mulliken charges =   0.00000

 Dipole moment (field-independent basis, Debye):
    X=             -3.4786    Y=              0.7897    Z=              0.1198  Tot=              3.5691
 Quadrupole moment (field-independent basis, Debye-Ang):
   XX=            -27.4663   YY=            -21.7345   ZZ=            -25.2985
   XY=              1.0725   XZ=              0.0066   YZ=             -0.0995

 Normal termination of Gaussian 09 at Wed Aug 26 11:30:14 2020.
