 Gaussian 09, Revision D.01,
 Gaussian 09:  ES64L-G09RevD.01 24-Apr-2013

 --------------------
 #p B2PLYPD3/Def2QZVP
 --------------------

 --------
 acrolein
 --------
 Symbolic Z-matrix:
 Charge =  0 Multiplicity = 1

                         Standard orientation:
 ---------------------------------------------------------------------
 Center     Atomic      Atomic             Coordinates (Angstroms)
 Number     Number       Type             X           Y           Z
 ---------------------------------------------------------------------
      1          6           0       -0.685242    0.359688    0.007773
      2          8           0       -1.778394   -0.132099   -0.017139
      3          6           0        0.548631   -0.441805    0.026014
      4          6           0        1.764857    0.139319   -0.022968
      5          1           0        0.450957   -1.519156    0.031005
      6          1           0        1.801370    1.197832    0.012270
      7          1           0        2.722807   -0.419297   -0.023275
      8          1           0       -0.517460    1.454200    0.052203
 ---------------------------------------------------------------------

 SCF Done:  E(RB2PLYPD3) =  -191.615235423     A.U. after   12 cycles
 E2(B2PLYPD3) =    -0.2469894066D+00 E(B2PLYPD3) =    -0.19186222482941D+03

 The electronic state is 1-A.
 Alpha  occ. eigenvalues --  -19.72891 -10.71593 -10.65578 -10.64397  -1.20347
 Alpha  occ. eigenvalues --   -0.92507  -0.75213  -0.67091  -0.56611  -0.56233
 Alpha  occ. eigenvalues --   -0.50706  -0.47262  -0.46766  -0.34340  -0.33937
 Alpha virt. eigenvalues --   -0.01733   0.05774   0.07191   0.08224   0.09776
 Alpha virt. eigenvalues --    0.12497   0.14023   0.15419   0.17556   0.19862
 Alpha virt. eigenvalues --    0.19963   0.21376   0.25466   0.26322   0.28916

 Mulliken charges:
               1
     1  C    0.153521
     2  O   -0.339769
     3  C   -0.039783
     4  C   -0.135810
     5  H    0.104925
     6  H    0.081987
     7  H    0.103360
     8  H    0.071569
 Sum of Mulliken charges =   0.00000

 Dipole moment (field-independent basis, Debye):
    X=              3.3706    Y=              0.7946    Z=              0.0795  Tot=              3.4639
 Quadrupole moment (field-independent basis, Debye-Ang):
   XX=            -27.2281   YY=            -21.8327   ZZ=            -25.2598
   XY=             -1.0818   XZ=             -0.1122   YZ=              0.0229

 Normal termination of Gaussian 09 at Wed Aug 26 13:11:57 2020.
