 Gaussian 09, Revision D.01,
 Gaussian 09:  ES64L-G09RevD.01 24-Apr-2013

 --------------------
 #p B2PLYPD3/Def2QZVP
 --------------------

 --------
 acrolein
 --------
 Symbolic Z-matrix:
 Charge =  0 Multiplicity = 1

                         Standard orientation:
 ---------------------------------------------------------------------
 Center     Atomic      Atomic             Coordinates (Angstroms)
 Number     Number       Type             X           Y           Z
 ---------------------------------------------------------------------
      1          6           0       -0.680915    0.349747    0.015594
      2          8           0       -1.789276   -0.120265   -0.018162
      3          6           0        0.560459   -0.448633    0.001053
      4          6           0        1.766079    0.137666   -0.015986
      5          1           0        0.421249   -1.548928    0.082219
      6          1           0        1.842823    1.236467   -0.013459
      7          1           0        2.664524   -0.431466   -0.001529
      8          1           0       -0.488127    1.473363    0.074099
 ---------------------------------------------------------------------

 SCF Done:  E(RB2PLYPD3) =  -191.614688877     A.U. after   12 cycles
 E2(B2PLYPD3) =    -0.2475613868D+00 E(B2PLYPD3) =    -0.19186225026355D+03

 The electronic state is 1-A.
 Alpha  occ. eigenvalues --  -19.73067 -10.71978 -10.65602 -10.64799  -1.20045
 Alpha  occ. eigenvalues --   -0.92618  -0.75356  -0.66092  -0.56660  -0.55919
 Alpha  occ. eigenvalues --   -0.50825  -0.47194  -0.46449  -0.34611  -0.33811
 Alpha virt. eigenvalues --   -0.01776   0.05768   0.06983   0.08232   0.09750
 Alpha virt. eigenvalues --    0.12509   0.13846   0.15329   0.17285   0.19645
 Alpha virt. eigenvalues --    0.19969   0.21684   0.25355   0.26522   0.28667

 Mulliken charges:
               1
     1  C    0.161905
     2  O   -0.340916
     3  C   -0.039196
     4  C   -0.132996
     5  H    0.100549
     6  H    0.083733
     7  H    0.107188
     8  H    0.059733
 Sum of Mulliken charges =   0.00000

 Dipole moment (field-independent basis, Debye):
    X=              3.4268    Y=              0.7085    Z=              0.1414  Tot=              3.5021
 Quadrupole moment (field-independent basis, Debye-Ang):
   XX=            -27.3621   YY=            -21.8500   ZZ=            -25.3067
   XY=             -0.8520   XZ=             -0.0646   YZ=             -0.1082

 Normal termination of Gaussian 09 at Wed Aug 26 16:11:01 2020.
