 Gaussian 09, Revision D.01,
 Gaussian 09:  ES64L-G09RevD.01 24-Apr-2013

 --------------------
 #p B2PLYPD3/Def2QZVP
 --------------------

 --------
 acrolein
 --------
 Symbolic Z-matrix:
 Charge =  0 Multiplicity = 1

                         Standard orientation:
 ---------------------------------------------------------------------
 Center     Atomic      Atomic             Coordinates (Angstroms)
 Number     Number       Type             X           Y           Z
 ---------------------------------------------------------------------
      1          6           0       -0.678879    0.350903    0.013485
      2          8           0       -1.789797   -0.119130   -0.013857
      3          6           0        0.561071   -0.465623    0.001519
      4          6           0        1.758740    0.147238   -0.015557
      5          1           0        0.457997   -1.506696    0.049861
      6          1           0        1.852861    1.251370   -0.022048
      7          1           0        2.669960   -0.433118    0.024371
      8          1           0       -0.508030    1.446372    0.061989
 ---------------------------------------------------------------------

 SCF Done:  E(RB2PLYPD3) =  -191.615442378     A.U. after   12 cycles
 E2(B2PLYPD3) =    -0.2471868781D+00 E(B2PLYPD3) =    -0.19186262925604D+03

 The electronic state is 1-A.
 Alpha  occ. eigenvalues --  -19.72843 -10.71661 -10.65793 -10.64287  -1.19772
 Alpha  occ. eigenvalues --   -0.92556  -0.75016  -0.67275  -0.56381  -0.56192
 Alpha  occ. eigenvalues --   -0.50614  -0.47346  -0.46769  -0.34456  -0.33774
 Alpha virt. eigenvalues --   -0.01653   0.05717   0.07257   0.08023   0.09702
 Alpha virt. eigenvalues --    0.12516   0.13908   0.15383   0.17736   0.19530
 Alpha virt. eigenvalues --    0.20001   0.21491   0.25291   0.26527   0.28673

 Mulliken charges:
               1
     1  C    0.156667
     2  O   -0.345105
     3  C   -0.048108
     4  C   -0.132139
     5  H    0.110255
     6  H    0.085582
     7  H    0.100314
     8  H    0.072533
 Sum of Mulliken charges =   0.00000

 Dipole moment (field-independent basis, Debye):
    X=              3.4322    Y=              0.7425    Z=              0.1166  Tot=              3.5136
 Quadrupole moment (field-independent basis, Debye-Ang):
   XX=            -27.5284   YY=            -21.6490   ZZ=            -25.2710
   XY=             -0.8975   XZ=             -0.0108   YZ=             -0.0896

 Normal termination of Gaussian 09 at Wed Aug 26 13:34:22 2020.
