 Gaussian 09, Revision D.01,
 Gaussian 09:  ES64L-G09RevD.01 24-Apr-2013

 --------------------
 #p B2PLYPD3/Def2QZVP
 --------------------

 --------
 acrolein
 --------
 Symbolic Z-matrix:
 Charge =  0 Multiplicity = 1

                         Standard orientation:
 ---------------------------------------------------------------------
 Center     Atomic      Atomic             Coordinates (Angstroms)
 Number     Number       Type             X           Y           Z
 ---------------------------------------------------------------------
      1          6           0        0.666228    0.343154    0.016095
      2          8           0        1.801506   -0.114892   -0.015086
      3          6           0       -0.568722   -0.463526   -0.004067
      4          6           0       -1.755221    0.141999   -0.017326
      5          1           0       -0.487615   -1.531181    0.070518
      6          1           0       -1.843342    1.268545   -0.021403
      7          1           0       -2.625266   -0.408772    0.031780
      8          1           0        0.490457    1.460787    0.071580
 ---------------------------------------------------------------------

 SCF Done:  E(RB2PLYPD3) =  -191.612058134     A.U. after   12 cycles
 E2(B2PLYPD3) =    -0.2480641655D+00 E(B2PLYPD3) =    -0.19186012229948D+03

 The electronic state is 1-A.
 Alpha  occ. eigenvalues --  -19.72935 -10.72119 -10.65457 -10.64512  -1.18695
 Alpha  occ. eigenvalues --   -0.93187  -0.75576  -0.66635  -0.56932  -0.55836
 Alpha  occ. eigenvalues --   -0.50465  -0.47119  -0.46245  -0.34763  -0.33863
 Alpha virt. eigenvalues --   -0.01910   0.05710   0.07019   0.07995   0.09669
 Alpha virt. eigenvalues --    0.12533   0.14007   0.15273   0.17437   0.19533
 Alpha virt. eigenvalues --    0.20017   0.21732   0.25224   0.26509   0.28742

 Mulliken charges:
               1
     1  C    0.157678
     2  O   -0.352170
     3  C   -0.039665
     4  C   -0.125621
     5  H    0.104521
     6  H    0.082027
     7  H    0.104478
     8  H    0.068752
 Sum of Mulliken charges =   0.00000

 Dipole moment (field-independent basis, Debye):
    X=             -3.5885    Y=              0.6974    Z=              0.1522  Tot=              3.6588
 Quadrupole moment (field-independent basis, Debye-Ang):
   XX=            -27.6323   YY=            -21.6720   ZZ=            -25.2604
   XY=              0.9126   XZ=             -0.0216   YZ=             -0.1196

 Normal termination of Gaussian 09 at Wed Aug 26 11:55:59 2020.
