 Gaussian 09, Revision D.01,
 Gaussian 09:  ES64L-G09RevD.01 24-Apr-2013

 --------------------
 #p B2PLYPD3/Def2QZVP
 --------------------

 --------
 acrolein
 --------
 Symbolic Z-matrix:
 Charge =  0 Multiplicity = 1

                         Standard orientation:
 ---------------------------------------------------------------------
 Center     Atomic      Atomic             Coordinates (Angstroms)
 Number     Number       Type             X           Y           Z
 ---------------------------------------------------------------------
      1          6           0        0.645726    0.308490    0.090792
      2          8           0        1.819618   -0.099947   -0.072530
      3          6           0       -0.580716   -0.464411    0.098897
      4          6           0       -1.724994    0.146931   -0.066548
      5          1           0       -0.517187   -1.495756   -0.007628
      6          1           0       -1.876886    1.294926    0.056078
      7          1           0       -2.715664   -0.396050   -0.175734
      8          1           0        0.512691    1.450399   -0.031323
 ---------------------------------------------------------------------

 SCF Done:  E(RB2PLYPD3) =  -191.596465542     A.U. after   13 cycles
 E2(B2PLYPD3) =    -0.2501814516D+00 E(B2PLYPD3) =    -0.19184664699391D+03

 The electronic state is 1-A.
 Alpha  occ. eigenvalues --  -19.72861 -10.72480 -10.67038 -10.64399  -1.16960
 Alpha  occ. eigenvalues --   -0.94365  -0.75233  -0.66740  -0.56546  -0.55704
 Alpha  occ. eigenvalues --   -0.49686  -0.45924  -0.45743  -0.35394  -0.33632
 Alpha virt. eigenvalues --   -0.02411   0.05366   0.06879   0.07399   0.09528
 Alpha virt. eigenvalues --    0.12223   0.13838   0.15108   0.17742   0.19501
 Alpha virt. eigenvalues --    0.19797   0.21174   0.23790   0.27012   0.28690

 Mulliken charges:
               1
     1  C    0.157034
     2  O   -0.366327
     3  C   -0.034383
     4  C   -0.102758
     5  H    0.112895
     6  H    0.082714
     7  H    0.092143
     8  H    0.058682
 Sum of Mulliken charges =   0.00000

 Dipole moment (field-independent basis, Debye):
    X=             -3.8823    Y=              0.5996    Z=              0.1402  Tot=              3.9308
 Quadrupole moment (field-independent basis, Debye-Ang):
   XX=            -27.6109   YY=            -21.9401   ZZ=            -25.2637
   XY=              0.7620   XZ=              0.6553   YZ=              0.1678

 Normal termination of Gaussian 09 at Wed Aug 26 13:09:19 2020.
