 Gaussian 09, Revision D.01,
 Gaussian 09:  ES64L-G09RevD.01 24-Apr-2013

 --------------------
 #p B2PLYPD3/Def2QZVP
 --------------------

 --------
 acrolein
 --------
 Symbolic Z-matrix:
 Charge =  0 Multiplicity = 1

                         Standard orientation:
 ---------------------------------------------------------------------
 Center     Atomic      Atomic             Coordinates (Angstroms)
 Number     Number       Type             X           Y           Z
 ---------------------------------------------------------------------
      1          6           0        0.670520    0.347455   -0.014004
      2          8           0        1.782596   -0.123766    0.017541
      3          6           0       -0.549180   -0.443906   -0.016265
      4          6           0       -1.759281    0.132982   -0.000198
      5          1           0       -0.431818   -1.510072   -0.033114
      6          1           0       -1.825081    1.216096    0.019710
      7          1           0       -2.677400   -0.422150    0.080484
      8          1           0        0.501177    1.487070   -0.024612
 ---------------------------------------------------------------------

 SCF Done:  E(RB2PLYPD3) =  -191.615360855     A.U. after   12 cycles
 E2(B2PLYPD3) =    -0.2475077632D+00 E(B2PLYPD3) =    -0.19186286861843D+03

 The electronic state is 1-A.
 Alpha  occ. eigenvalues --  -19.72896 -10.71879 -10.65659 -10.64339  -1.19754
 Alpha  occ. eigenvalues --   -0.93045  -0.75610  -0.66548  -0.56703  -0.56202
 Alpha  occ. eigenvalues --   -0.50583  -0.47133  -0.46862  -0.34604  -0.33833
 Alpha virt. eigenvalues --   -0.01980   0.05755   0.07107   0.08335   0.09790
 Alpha virt. eigenvalues --    0.12503   0.13903   0.15350   0.17435   0.19833
 Alpha virt. eigenvalues --    0.19877   0.21595   0.25500   0.26308   0.28876

 Mulliken charges:
               1
     1  C    0.157787
     2  O   -0.345406
     3  C   -0.033988
     4  C   -0.128986
     5  H    0.105358
     6  H    0.082863
     7  H    0.104866
     8  H    0.057505
 Sum of Mulliken charges =   0.00000

 Dipole moment (field-independent basis, Debye):
    X=             -3.5053    Y=              0.6906    Z=             -0.0036  Tot=              3.5727
 Quadrupole moment (field-independent basis, Debye-Ang):
   XX=            -27.2612   YY=            -21.8980   ZZ=            -25.2354
   XY=              0.9315   XZ=             -0.3041   YZ=              0.0127

 Normal termination of Gaussian 09 at Wed Aug 26 15:41:35 2020.
