 Gaussian 09, Revision D.01,
 Gaussian 09:  ES64L-G09RevD.01 24-Apr-2013

 --------------------
 #p B2PLYPD3/Def2QZVP
 --------------------

 --------
 acrolein
 --------
 Symbolic Z-matrix:
 Charge =  0 Multiplicity = 1

                         Standard orientation:
 ---------------------------------------------------------------------
 Center     Atomic      Atomic             Coordinates (Angstroms)
 Number     Number       Type             X           Y           Z
 ---------------------------------------------------------------------
      1          6           0        0.708732    0.386996   -0.037184
      2          8           0        1.750334   -0.162500    0.057663
      3          6           0       -0.551374   -0.412580   -0.078296
      4          6           0       -1.776001    0.122757    0.044690
      5          1           0       -0.392131   -1.490043   -0.153351
      6          1           0       -1.781164    1.192591   -0.115991
      7          1           0       -2.681737   -0.474593    0.255761
      8          1           0        0.564219    1.489005   -0.022982
 ---------------------------------------------------------------------

 SCF Done:  E(RB2PLYPD3) =  -191.608831025     A.U. after   14 cycles
 E2(B2PLYPD3) =    -0.2465277365D+00 E(B2PLYPD3) =    -0.19185535876165D+03

 The electronic state is 1-A.
 Alpha  occ. eigenvalues --  -19.73070 -10.71657 -10.65302 -10.64121  -1.21658
 Alpha  occ. eigenvalues --   -0.91998  -0.74643  -0.66681  -0.56476  -0.56189
 Alpha  occ. eigenvalues --   -0.51308  -0.48096  -0.46029  -0.34183  -0.33597
 Alpha virt. eigenvalues --   -0.01256   0.05838   0.07211   0.08054   0.09941
 Alpha virt. eigenvalues --    0.12187   0.13723   0.15478   0.17463   0.19480
 Alpha virt. eigenvalues --    0.20153   0.21559   0.25104   0.26549   0.28901

 Mulliken charges:
               1
     1  C    0.160811
     2  O   -0.327177
     3  C   -0.049484
     4  C   -0.149970
     5  H    0.102040
     6  H    0.082093
     7  H    0.111692
     8  H    0.069995
 Sum of Mulliken charges =   0.00000

 Dipole moment (field-independent basis, Debye):
    X=             -3.0447    Y=              0.8753    Z=             -0.1674  Tot=              3.1725
 Quadrupole moment (field-independent basis, Debye-Ang):
   XX=            -27.2061   YY=            -21.9126   ZZ=            -25.1819
   XY=              1.4169   XZ=             -0.6931   YZ=             -0.1684

 Normal termination of Gaussian 09 at Wed Aug 26 15:01:37 2020.
