 Gaussian 09, Revision D.01,
 Gaussian 09:  ES64L-G09RevD.01 24-Apr-2013

 --------------------
 #p B2PLYPD3/Def2QZVP
 --------------------

 --------
 acrolein
 --------
 Symbolic Z-matrix:
 Charge =  0 Multiplicity = 1

                         Standard orientation:
 ---------------------------------------------------------------------
 Center     Atomic      Atomic             Coordinates (Angstroms)
 Number     Number       Type             X           Y           Z
 ---------------------------------------------------------------------
      1          6           0        0.667454    0.339656    0.003136
      2          8           0        1.801372   -0.111668   -0.010957
      3          6           0       -0.571998   -0.468290    0.008244
      4          6           0       -1.752326    0.153898   -0.002077
      5          1           0       -0.450164   -1.533249    0.028469
      6          1           0       -1.827676    1.257176   -0.039522
      7          1           0       -2.703814   -0.418692   -0.021899
      8          1           0        0.511897    1.436520    0.064788
 ---------------------------------------------------------------------

 SCF Done:  E(RB2PLYPD3) =  -191.614911806     A.U. after   12 cycles
 E2(B2PLYPD3) =    -0.2479378743D+00 E(B2PLYPD3) =    -0.19186284968035D+03

 The electronic state is 1-A.
 Alpha  occ. eigenvalues --  -19.72822 -10.71773 -10.66145 -10.64619  -1.18881
 Alpha  occ. eigenvalues --   -0.92949  -0.74978  -0.67013  -0.56151  -0.56131
 Alpha  occ. eigenvalues --   -0.50382  -0.46917  -0.46373  -0.34759  -0.33769
 Alpha virt. eigenvalues --   -0.01808   0.05627   0.07090   0.07948   0.09670
 Alpha virt. eigenvalues --    0.12458   0.13899   0.15299   0.17514   0.19581
 Alpha virt. eigenvalues --    0.20024   0.21324   0.25253   0.26501   0.28794

 Mulliken charges:
               1
     1  C    0.156945
     2  O   -0.353576
     3  C   -0.041584
     4  C   -0.127275
     5  H    0.108714
     6  H    0.087120
     7  H    0.099813
     8  H    0.069841
 Sum of Mulliken charges =   0.00000

 Dipole moment (field-independent basis, Debye):
    X=             -3.5561    Y=              0.7186    Z=              0.0238  Tot=              3.6280
 Quadrupole moment (field-independent basis, Debye-Ang):
   XX=            -27.6458   YY=            -21.6741   ZZ=            -25.3064
   XY=              0.8431   XZ=              0.1649   YZ=             -0.0504

 Normal termination of Gaussian 09 at Wed Aug 26 12:27:04 2020.
