 Gaussian 09, Revision D.01,
 Gaussian 09:  ES64L-G09RevD.01 24-Apr-2013

 --------------------
 #p B2PLYPD3/Def2QZVP
 --------------------

 --------
 acrolein
 --------
 Symbolic Z-matrix:
 Charge =  0 Multiplicity = 1

                         Standard orientation:
 ---------------------------------------------------------------------
 Center     Atomic      Atomic             Coordinates (Angstroms)
 Number     Number       Type             X           Y           Z
 ---------------------------------------------------------------------
      1          6           0        0.661333    0.348763    0.049294
      2          8           0        1.785963   -0.124513   -0.046125
      3          6           0       -0.533786   -0.430381    0.014404
      4          6           0       -1.744768    0.123441   -0.033109
      5          1           0       -0.455077   -1.487362    0.135430
      6          1           0       -1.822247    1.192005   -0.073191
      7          1           0       -2.752087   -0.419498   -0.011377
      8          1           0        0.445026    1.460023    0.134605
 ---------------------------------------------------------------------

 SCF Done:  E(RB2PLYPD3) =  -191.609154792     A.U. after   13 cycles
 E2(B2PLYPD3) =    -0.2484364284D+00 E(B2PLYPD3) =    -0.19185759122048D+03

 The electronic state is 1-A.
 Alpha  occ. eigenvalues --  -19.72946 -10.71851 -10.66236 -10.64007  -1.18853
 Alpha  occ. eigenvalues --   -0.93660  -0.75868  -0.67027  -0.56690  -0.55963
 Alpha  occ. eigenvalues --   -0.50395  -0.46942  -0.45985  -0.34714  -0.34092
 Alpha virt. eigenvalues --   -0.02334   0.05557   0.06966   0.08336   0.09693
 Alpha virt. eigenvalues --    0.12451   0.13963   0.15172   0.17706   0.19651
 Alpha virt. eigenvalues --    0.20078   0.21135   0.25315   0.26506   0.29068

 Mulliken charges:
               1
     1  C    0.150134
     2  O   -0.353465
     3  C   -0.018976
     4  C   -0.125608
     5  H    0.105052
     6  H    0.077994
     7  H    0.099882
     8  H    0.064988
 Sum of Mulliken charges =   0.00000

 Dipole moment (field-independent basis, Debye):
    X=             -3.6556    Y=              0.7424    Z=              0.2533  Tot=              3.7388
 Quadrupole moment (field-independent basis, Debye-Ang):
   XX=            -27.1794   YY=            -22.0467   ZZ=            -25.2025
   XY=              0.8886   XZ=              0.2704   YZ=             -0.2061

 Normal termination of Gaussian 09 at Wed Aug 26 10:09:02 2020.
