 Gaussian 09, Revision D.01,
 Gaussian 09:  ES64L-G09RevD.01 24-Apr-2013

 --------------------
 #p B2PLYPD3/Def2QZVP
 --------------------

 --------
 acrolein
 --------
 Symbolic Z-matrix:
 Charge =  0 Multiplicity = 1

                         Standard orientation:
 ---------------------------------------------------------------------
 Center     Atomic      Atomic             Coordinates (Angstroms)
 Number     Number       Type             X           Y           Z
 ---------------------------------------------------------------------
      1          6           0        0.693768    0.361215   -0.030208
      2          8           0        1.775697   -0.139711    0.021954
      3          6           0       -0.542241   -0.434192   -0.021352
      4          6           0       -1.750018    0.142362   -0.004001
      5          1           0       -0.476030   -1.497953    0.010090
      6          1           0       -1.819470    1.190875    0.046340
      7          1           0       -2.808261   -0.462096    0.078256
      8          1           0        0.489127    1.470552    0.023047
 ---------------------------------------------------------------------

 SCF Done:  E(RB2PLYPD3) =  -191.603298016     A.U. after   13 cycles
 E2(B2PLYPD3) =    -0.2473576902D+00 E(B2PLYPD3) =    -0.19185065570618D+03

 The electronic state is 1-A.
 Alpha  occ. eigenvalues --  -19.73109 -10.71886 -10.66321 -10.64069  -1.20855
 Alpha  occ. eigenvalues --   -0.92632  -0.74560  -0.67115  -0.56798  -0.55548
 Alpha  occ. eigenvalues --   -0.50245  -0.47575  -0.46079  -0.34575  -0.33943
 Alpha virt. eigenvalues --   -0.01585   0.05403   0.07034   0.08219   0.09710
 Alpha virt. eigenvalues --    0.12231   0.13863   0.15414   0.17838   0.19769
 Alpha virt. eigenvalues --    0.19913   0.20888   0.25568   0.26141   0.28630

 Mulliken charges:
               1
     1  C    0.154114
     2  O   -0.333656
     3  C   -0.037113
     4  C   -0.133605
     5  H    0.107509
     6  H    0.083811
     7  H    0.091675
     8  H    0.067265
 Sum of Mulliken charges =   0.00000

 Dipole moment (field-independent basis, Debye):
    X=             -3.2812    Y=              0.8036    Z=              0.0399  Tot=              3.3784
 Quadrupole moment (field-independent basis, Debye-Ang):
   XX=            -27.2391   YY=            -21.9497   ZZ=            -25.3058
   XY=              1.0496   XZ=             -0.3804   YZ=             -0.0002

 Normal termination of Gaussian 09 at Wed Aug 26 21:04:19 2020.
