 Gaussian 09, Revision D.01,
 Gaussian 09:  ES64L-G09RevD.01 24-Apr-2013

 --------------------
 #p B2PLYPD3/Def2QZVP
 --------------------

 --------
 acrolein
 --------
 Symbolic Z-matrix:
 Charge =  0 Multiplicity = 1

                         Standard orientation:
 ---------------------------------------------------------------------
 Center     Atomic      Atomic             Coordinates (Angstroms)
 Number     Number       Type             X           Y           Z
 ---------------------------------------------------------------------
      1          6           0        0.651620    0.304253   -0.048343
      2          8           0        1.791900   -0.094819    0.042364
      3          6           0       -0.562501   -0.456863   -0.018340
      4          6           0       -1.752694    0.161659    0.008432
      5          1           0       -0.496756   -1.518582    0.017462
      6          1           0       -1.839138    1.157014    0.284125
      7          1           0       -2.592345   -0.343895   -0.096906
      8          1           0        0.574488    1.409723   -0.194088
 ---------------------------------------------------------------------

 SCF Done:  E(RB2PLYPD3) =  -191.601193423     A.U. after   14 cycles
 E2(B2PLYPD3) =    -0.2467319499D+00 E(B2PLYPD3) =    -0.19184792537322D+03

 The electronic state is 1-A.
 Alpha  occ. eigenvalues --  -19.72333 -10.71028 -10.64505 -10.64383  -1.19179
 Alpha  occ. eigenvalues --   -0.93966  -0.77194  -0.67104  -0.57675  -0.57194
 Alpha  occ. eigenvalues --   -0.50515  -0.48600  -0.46501  -0.34385  -0.33378
 Alpha virt. eigenvalues --   -0.02540   0.05921   0.07307   0.08315   0.09768
 Alpha virt. eigenvalues --    0.12923   0.14340   0.15517   0.17065   0.19442
 Alpha virt. eigenvalues --    0.20721   0.22113   0.24691   0.26362   0.28475

 Mulliken charges:
               1
     1  C    0.144469
     2  O   -0.349152
     3  C   -0.032994
     4  C   -0.118974
     5  H    0.102932
     6  H    0.092165
     7  H    0.102045
     8  H    0.059508
 Sum of Mulliken charges =   0.00000

 Dipole moment (field-independent basis, Debye):
    X=             -3.7153    Y=              0.5855    Z=             -0.0277  Tot=              3.7612
 Quadrupole moment (field-independent basis, Debye-Ang):
   XX=            -27.2534   YY=            -21.9147   ZZ=            -24.8998
   XY=              0.8259   XZ=             -0.4637   YZ=              0.2900

 Normal termination of Gaussian 09 at Wed Aug 26 11:00:21 2020.
