 Gaussian 09, Revision D.01,
 Gaussian 09:  ES64L-G09RevD.01 24-Apr-2013

 --------------------
 #p B2PLYPD3/Def2QZVP
 --------------------

 --------
 acrolein
 --------
 Symbolic Z-matrix:
 Charge =  0 Multiplicity = 1

                         Standard orientation:
 ---------------------------------------------------------------------
 Center     Atomic      Atomic             Coordinates (Angstroms)
 Number     Number       Type             X           Y           Z
 ---------------------------------------------------------------------
      1          6           0        0.678711    0.333201   -0.055304
      2          8           0        1.784468   -0.112459    0.045980
      3          6           0       -0.565521   -0.468578   -0.045045
      4          6           0       -1.758445    0.159087    0.023968
      5          1           0       -0.435385   -1.530135   -0.021168
      6          1           0       -1.808030    1.214601    0.037846
      7          1           0       -2.667173   -0.417076    0.097459
      8          1           0        0.506374    1.490029   -0.023689
 ---------------------------------------------------------------------

 SCF Done:  E(RB2PLYPD3) =  -191.613288863     A.U. after   12 cycles
 E2(B2PLYPD3) =    -0.2472358641D+00 E(B2PLYPD3) =    -0.19186052472684D+03

 The electronic state is 1-A.
 Alpha  occ. eigenvalues --  -19.72976 -10.72011 -10.65443 -10.64653  -1.20477
 Alpha  occ. eigenvalues --   -0.92657  -0.75147  -0.66455  -0.56567  -0.56195
 Alpha  occ. eigenvalues --   -0.50478  -0.47843  -0.47248  -0.34526  -0.33526
 Alpha virt. eigenvalues --   -0.01686   0.05860   0.07091   0.08135   0.09801
 Alpha virt. eigenvalues --    0.12589   0.13804   0.15372   0.17365   0.19899
 Alpha virt. eigenvalues --    0.20022   0.21526   0.25106   0.26451   0.28754

 Mulliken charges:
               1
     1  C    0.160667
     2  O   -0.336247
     3  C   -0.039422
     4  C   -0.133481
     5  H    0.105802
     6  H    0.092946
     7  H    0.103342
     8  H    0.046393
 Sum of Mulliken charges =   0.00000

 Dipole moment (field-independent basis, Debye):
    X=             -3.3986    Y=              0.6128    Z=             -0.0667  Tot=              3.4541
 Quadrupole moment (field-independent basis, Debye-Ang):
   XX=            -27.3365   YY=            -21.8537   ZZ=            -25.2745
   XY=              0.7880   XZ=             -0.5110   YZ=              0.0109

 Normal termination of Gaussian 09 at Wed Aug 26 10:20:56 2020.
