 Gaussian 09, Revision D.01,
 Gaussian 09:  ES64L-G09RevD.01 24-Apr-2013

 --------------------
 #p B2PLYPD3/Def2QZVP
 --------------------

 --------
 acrolein
 --------
 Symbolic Z-matrix:
 Charge =  0 Multiplicity = 1

                         Standard orientation:
 ---------------------------------------------------------------------
 Center     Atomic      Atomic             Coordinates (Angstroms)
 Number     Number       Type             X           Y           Z
 ---------------------------------------------------------------------
      1          6           0       -0.662186    0.337292   -0.044185
      2          8           0       -1.804095   -0.103596    0.035736
      3          6           0        0.570770   -0.462042   -0.040067
      4          6           0        1.759095    0.138535    0.035258
      5          1           0        0.472092   -1.546272   -0.034636
      6          1           0        1.931108    1.283566   -0.039696
      7          1           0        2.580020   -0.389678    0.077845
      8          1           0       -0.556538    1.398445    0.004564
 ---------------------------------------------------------------------

 SCF Done:  E(RB2PLYPD3) =  -191.601624562     A.U. after   13 cycles
 E2(B2PLYPD3) =    -0.2475911718D+00 E(B2PLYPD3) =    -0.19184921573378D+03

 The electronic state is 1-A.
 Alpha  occ. eigenvalues --  -19.72564 -10.71229 -10.65294 -10.64835  -1.18392
 Alpha  occ. eigenvalues --   -0.93261  -0.76466  -0.67180  -0.57329  -0.56249
 Alpha  occ. eigenvalues --   -0.50431  -0.46872  -0.46090  -0.34730  -0.33775
 Alpha virt. eigenvalues --   -0.02018   0.05660   0.07196   0.07989   0.09550
 Alpha virt. eigenvalues --    0.12513   0.14361   0.15296   0.17453   0.19522
 Alpha virt. eigenvalues --    0.20043   0.22151   0.24909   0.26525   0.28539

 Mulliken charges:
               1
     1  C    0.157186
     2  O   -0.358544
     3  C   -0.046000
     4  C   -0.123153
     5  H    0.104186
     6  H    0.081666
     7  H    0.105308
     8  H    0.079352
 Sum of Mulliken charges =   0.00000

 Dipole moment (field-independent basis, Debye):
    X=              3.6644    Y=              0.7215    Z=             -0.1229  Tot=              3.7367
 Quadrupole moment (field-independent basis, Debye-Ang):
   XX=            -27.5561   YY=            -21.5646   ZZ=            -25.1789
   XY=             -0.8270   XZ=              0.2753   YZ=             -0.0575

 Normal termination of Gaussian 09 at Wed Aug 26 08:41:32 2020.
