 Gaussian 09, Revision D.01,
 Gaussian 09:  ES64L-G09RevD.01 24-Apr-2013

 --------------------
 #p B2PLYPD3/Def2QZVP
 --------------------

 --------
 acrolein
 --------
 Symbolic Z-matrix:
 Charge =  0 Multiplicity = 1

                         Standard orientation:
 ---------------------------------------------------------------------
 Center     Atomic      Atomic             Coordinates (Angstroms)
 Number     Number       Type             X           Y           Z
 ---------------------------------------------------------------------
      1          6           0       -0.666043   -0.298177   -0.051635
      2          8           0       -1.801538    0.073835    0.074558
      3          6           0        0.549079    0.460767   -0.088668
      4          6           0        1.751946   -0.163541    0.017461
      5          1           0        0.397362    1.654428   -0.111031
      6          1           0        1.923113   -1.259791   -0.017251
      7          1           0        2.763782    0.421165    0.364682
      8          1           0       -0.481842   -1.400782   -0.095815
 ---------------------------------------------------------------------

 SCF Done:  E(RB2PLYPD3) =  -191.588784776     A.U. after   14 cycles
 E2(B2PLYPD3) =    -0.2495259603D+00 E(B2PLYPD3) =    -0.19183831073647D+03

 The electronic state is 1-A.
 Alpha  occ. eigenvalues --  -19.72638 -10.71221 -10.68281 -10.66319  -1.19910
 Alpha  occ. eigenvalues --   -0.92756  -0.75299  -0.65423  -0.56867  -0.54881
 Alpha  occ. eigenvalues --   -0.49459  -0.47334  -0.45201  -0.34525  -0.33426
 Alpha virt. eigenvalues --   -0.02615   0.05126   0.06224   0.08568   0.09483
 Alpha virt. eigenvalues --    0.11971   0.14072   0.15173   0.16940   0.19206
 Alpha virt. eigenvalues --    0.19830   0.21310   0.24455   0.26593   0.28033

 Mulliken charges:
               1
     1  C    0.160119
     2  O   -0.343909
     3  C   -0.020765
     4  C   -0.120752
     5  H    0.093669
     6  H    0.095163
     7  H    0.094097
     8  H    0.042377
 Sum of Mulliken charges =   0.00000

 Dipole moment (field-independent basis, Debye):
    X=              3.6649    Y=             -0.6019    Z=             -0.0663  Tot=              3.7146
 Quadrupole moment (field-independent basis, Debye-Ang):
   XX=            -27.4007   YY=            -22.0500   ZZ=            -25.3932
   XY=              0.1928   XZ=              1.1687   YZ=              0.0831

 Normal termination of Gaussian 09 at Wed Aug 26 12:58:01 2020.
