 Gaussian 09, Revision D.01,
 Gaussian 09:  ES64L-G09RevD.01 24-Apr-2013

 --------------------
 #p B2PLYPD3/Def2QZVP
 --------------------

 --------
 acrolein
 --------
 Symbolic Z-matrix:
 Charge =  0 Multiplicity = 1

                         Standard orientation:
 ---------------------------------------------------------------------
 Center     Atomic      Atomic             Coordinates (Angstroms)
 Number     Number       Type             X           Y           Z
 ---------------------------------------------------------------------
      1          6           0        0.666052    0.355081    0.011100
      2          8           0        1.781464   -0.127780   -0.014186
      3          6           0       -0.558480   -0.445403    0.031098
      4          6           0       -1.749161    0.139532   -0.017607
      5          1           0       -0.447008   -1.497861   -0.018873
      6          1           0       -1.832957    1.217705    0.007112
      7          1           0       -2.664376   -0.433604   -0.029289
      8          1           0        0.542168    1.440744    0.006989
 ---------------------------------------------------------------------

 SCF Done:  E(RB2PLYPD3) =  -191.616747449     A.U. after   12 cycles
 E2(B2PLYPD3) =    -0.2468977540D+00 E(B2PLYPD3) =    -0.19186364520299D+03

 The electronic state is 1-A.
 Alpha  occ. eigenvalues --  -19.72645 -10.71365 -10.65327 -10.64018  -1.19154
 Alpha  occ. eigenvalues --   -0.93272  -0.75513  -0.67472  -0.56807  -0.56457
 Alpha  occ. eigenvalues --   -0.50457  -0.47127  -0.46603  -0.34732  -0.33849
 Alpha virt. eigenvalues --   -0.01720   0.05758   0.07257   0.08155   0.09772
 Alpha virt. eigenvalues --    0.12544   0.13974   0.15331   0.17671   0.19791
 Alpha virt. eigenvalues --    0.19943   0.21632   0.25439   0.26447   0.28914

 Mulliken charges:
               1
     1  C    0.152472
     2  O   -0.353464
     3  C   -0.040286
     4  C   -0.128946
     5  H    0.109224
     6  H    0.084331
     7  H    0.100901
     8  H    0.075768
 Sum of Mulliken charges =   0.00000

 Dipole moment (field-independent basis, Debye):
    X=             -3.5065    Y=              0.7963    Z=              0.0085  Tot=              3.5957
 Quadrupole moment (field-independent basis, Debye-Ang):
   XX=            -27.4811   YY=            -21.6646   ZZ=            -25.1522
   XY=              1.0383   XZ=              0.1453   YZ=              0.0739

 Normal termination of Gaussian 09 at Wed Aug 26 11:42:05 2020.
