 Gaussian 09, Revision D.01,
 Gaussian 09:  ES64L-G09RevD.01 24-Apr-2013

 --------------------
 #p B2PLYPD3/Def2QZVP
 --------------------

 --------
 acrolein
 --------
 Symbolic Z-matrix:
 Charge =  0 Multiplicity = 1

                         Standard orientation:
 ---------------------------------------------------------------------
 Center     Atomic      Atomic             Coordinates (Angstroms)
 Number     Number       Type             X           Y           Z
 ---------------------------------------------------------------------
      1          6           0       -0.655527    0.329144   -0.017124
      2          8           0       -1.797028   -0.099917    0.012575
      3          6           0        0.560933   -0.454628   -0.010805
      4          6           0        1.751391    0.132341   -0.004422
      5          1           0        0.437999   -1.572034    0.032249
      6          1           0        1.836152    1.270736    0.088736
      7          1           0        2.599221   -0.389566    0.002359
      8          1           0       -0.437927    1.449053   -0.029839
 ---------------------------------------------------------------------

 SCF Done:  E(RB2PLYPD3) =  -191.605759334     A.U. after   13 cycles
 E2(B2PLYPD3) =    -0.2481204880D+00 E(B2PLYPD3) =    -0.19185387982176D+03

 The electronic state is 1-A.
 Alpha  occ. eigenvalues --  -19.72942 -10.71847 -10.65444 -10.64794  -1.18966
 Alpha  occ. eigenvalues --   -0.93664  -0.76508  -0.65865  -0.57630  -0.55523
 Alpha  occ. eigenvalues --   -0.50742  -0.46799  -0.46262  -0.34952  -0.33842
 Alpha virt. eigenvalues --   -0.02160   0.05671   0.06876   0.08363   0.09727
 Alpha virt. eigenvalues --    0.12613   0.14042   0.15270   0.17006   0.19607
 Alpha virt. eigenvalues --    0.20042   0.22017   0.25357   0.26508   0.28653

 Mulliken charges:
               1
     1  C    0.163025
     2  O   -0.351798
     3  C   -0.027771
     4  C   -0.122656
     5  H    0.095653
     6  H    0.079975
     7  H    0.109599
     8  H    0.053973
 Sum of Mulliken charges =   0.00000

 Dipole moment (field-independent basis, Debye):
    X=              3.6589    Y=              0.6016    Z=              0.0482  Tot=              3.7083
 Quadrupole moment (field-independent basis, Debye-Ang):
   XX=            -27.4611   YY=            -21.8756   ZZ=            -25.2085
   XY=             -0.7066   XZ=              0.2224   YZ=              0.0489

 Normal termination of Gaussian 09 at Wed Aug 26 08:35:22 2020.
