 Gaussian 09, Revision D.01,
 Gaussian 09:  ES64L-G09RevD.01 24-Apr-2013

 --------------------
 #p B2PLYPD3/Def2QZVP
 --------------------

 --------
 acrolein
 --------
 Symbolic Z-matrix:
 Charge =  0 Multiplicity = 1

                         Standard orientation:
 ---------------------------------------------------------------------
 Center     Atomic      Atomic             Coordinates (Angstroms)
 Number     Number       Type             X           Y           Z
 ---------------------------------------------------------------------
      1          6           0        0.685421    0.356658   -0.055668
      2          8           0        1.782356   -0.139052    0.068223
      3          6           0       -0.551070   -0.429158   -0.058623
      4          6           0       -1.757623    0.119642    0.007611
      5          1           0       -0.410960   -1.476751   -0.154858
      6          1           0       -1.901367    1.157197    0.069206
      7          1           0       -2.699296   -0.434324    0.275114
      8          1           0        0.492406    1.583440   -0.095159
 ---------------------------------------------------------------------

 SCF Done:  E(RB2PLYPD3) =  -191.601395986     A.U. after   12 cycles
 E2(B2PLYPD3) =    -0.2485504995D+00 E(B2PLYPD3) =    -0.19184994648579D+03

 The electronic state is 1-A.
 Alpha  occ. eigenvalues --  -19.73495 -10.73046 -10.65542 -10.64418  -1.20052
 Alpha  occ. eigenvalues --   -0.93122  -0.75428  -0.65999  -0.56804  -0.55774
 Alpha  occ. eigenvalues --   -0.50453  -0.47529  -0.46249  -0.34872  -0.33719
 Alpha virt. eigenvalues --   -0.02055   0.05614   0.06944   0.08085   0.09752
 Alpha virt. eigenvalues --    0.12210   0.13607   0.15044   0.17611   0.19172
 Alpha virt. eigenvalues --    0.20071   0.22004   0.25158   0.26217   0.28343

 Mulliken charges:
               1
     1  C    0.164496
     2  O   -0.337530
     3  C   -0.032305
     4  C   -0.116467
     5  H    0.108279
     6  H    0.079950
     7  H    0.093500
     8  H    0.040077
 Sum of Mulliken charges =   0.00000

 Dipole moment (field-independent basis, Debye):
    X=             -3.4025    Y=              0.6578    Z=             -0.0757  Tot=              3.4663
 Quadrupole moment (field-independent basis, Debye-Ang):
   XX=            -27.1148   YY=            -22.2410   ZZ=            -25.2009
   XY=              0.7053   XZ=             -1.0258   YZ=              0.1112

 Normal termination of Gaussian 09 at Wed Aug 26 11:05:43 2020.
