 Gaussian 09, Revision D.01,
 Gaussian 09:  ES64L-G09RevD.01 24-Apr-2013

 --------------------
 #p B2PLYPD3/Def2QZVP
 --------------------

 --------
 acrolein
 --------
 Symbolic Z-matrix:
 Charge =  0 Multiplicity = 1

                         Standard orientation:
 ---------------------------------------------------------------------
 Center     Atomic      Atomic             Coordinates (Angstroms)
 Number     Number       Type             X           Y           Z
 ---------------------------------------------------------------------
      1          6           0       -0.667737    0.344316    0.020488
      2          8           0       -1.785349   -0.113520   -0.018910
      3          6           0        0.568986   -0.466625    0.012308
      4          6           0        1.747317    0.157151   -0.021096
      5          1           0        0.459317   -1.551650    0.019317
      6          1           0        1.847241    1.254728   -0.043332
      7          1           0        2.650229   -0.416211    0.037859
      8          1           0       -0.565395    1.412243    0.067237
 ---------------------------------------------------------------------

 SCF Done:  E(RB2PLYPD3) =  -191.615522320     A.U. after   12 cycles
 E2(B2PLYPD3) =    -0.2467467469D+00 E(B2PLYPD3) =    -0.19186226906667D+03

 The electronic state is 1-A.
 Alpha  occ. eigenvalues --  -19.72501 -10.71086 -10.65485 -10.64622  -1.19486
 Alpha  occ. eigenvalues --   -0.92853  -0.75171  -0.67257  -0.56758  -0.56250
 Alpha  occ. eigenvalues --   -0.50397  -0.47075  -0.46627  -0.34659  -0.33660
 Alpha virt. eigenvalues --   -0.01516   0.05761   0.07137   0.08107   0.09684
 Alpha virt. eigenvalues --    0.12552   0.14134   0.15369   0.17481   0.19527
 Alpha virt. eigenvalues --    0.20052   0.21667   0.25386   0.26394   0.28796

 Mulliken charges:
               1
     1  C    0.153188
     2  O   -0.349315
     3  C   -0.045899
     4  C   -0.129683
     5  H    0.107093
     6  H    0.087729
     7  H    0.099982
     8  H    0.076905
 Sum of Mulliken charges =   0.00000

 Dipole moment (field-independent basis, Debye):
    X=              3.4679    Y=              0.7649    Z=              0.1034  Tot=              3.5527
 Quadrupole moment (field-independent basis, Debye-Ang):
   XX=            -27.6257   YY=            -21.5083   ZZ=            -25.2159
   XY=             -0.9189   XZ=             -0.0634   YZ=             -0.0720

 Normal termination of Gaussian 09 at Wed Aug 26 20:15:27 2020.
