 Gaussian 09, Revision D.01,
 Gaussian 09:  ES64L-G09RevD.01 24-Apr-2013

 --------------------
 #p B2PLYPD3/Def2QZVP
 --------------------

 --------
 acrolein
 --------
 Symbolic Z-matrix:
 Charge =  0 Multiplicity = 1

                         Standard orientation:
 ---------------------------------------------------------------------
 Center     Atomic      Atomic             Coordinates (Angstroms)
 Number     Number       Type             X           Y           Z
 ---------------------------------------------------------------------
      1          6           0       -0.676625    0.361764   -0.019374
      2          8           0       -1.786145   -0.129389    0.022502
      3          6           0        0.556077   -0.448064   -0.028073
      4          6           0        1.758987    0.135418    0.007881
      5          1           0        0.445441   -1.529856    0.009475
      6          1           0        1.808097    1.231306    0.079593
      7          1           0        2.689903   -0.426950    0.028309
      8          1           0       -0.484917    1.465904   -0.059999
 ---------------------------------------------------------------------

 SCF Done:  E(RB2PLYPD3) =  -191.615403129     A.U. after   12 cycles
 E2(B2PLYPD3) =    -0.2478076328D+00 E(B2PLYPD3) =    -0.19186321076151D+03

 The electronic state is 1-A.
 Alpha  occ. eigenvalues --  -19.73009 -10.71972 -10.65691 -10.64452  -1.19442
 Alpha  occ. eigenvalues --   -0.92759  -0.75179  -0.66717  -0.56416  -0.56036
 Alpha  occ. eigenvalues --   -0.50635  -0.46806  -0.46549  -0.34560  -0.33966
 Alpha virt. eigenvalues --   -0.01802   0.05703   0.07095   0.08008   0.09771
 Alpha virt. eigenvalues --    0.12490   0.13855   0.15388   0.17440   0.19573
 Alpha virt. eigenvalues --    0.20041   0.21456   0.25426   0.26412   0.28853

 Mulliken charges:
               1
     1  C    0.157953
     2  O   -0.347460
     3  C   -0.040530
     4  C   -0.130708
     5  H    0.105049
     6  H    0.079358
     7  H    0.104781
     8  H    0.071558
 Sum of Mulliken charges =   0.00000

 Dipole moment (field-independent basis, Debye):
    X=              3.4484    Y=              0.7737    Z=              0.0102  Tot=              3.5342
 Quadrupole moment (field-independent basis, Debye-Ang):
   XX=            -27.4668   YY=            -21.7629   ZZ=            -25.2948
   XY=             -1.0290   XZ=              0.3151   YZ=              0.0263

 Normal termination of Gaussian 09 at Wed Aug 26 19:42:57 2020.
