 Gaussian 09, Revision D.01,
 Gaussian 09:  ES64L-G09RevD.01 24-Apr-2013

 --------------------
 #p B2PLYPD3/Def2QZVP
 --------------------

 --------
 acrolein
 --------
 Symbolic Z-matrix:
 Charge =  0 Multiplicity = 1

                         Standard orientation:
 ---------------------------------------------------------------------
 Center     Atomic      Atomic             Coordinates (Angstroms)
 Number     Number       Type             X           Y           Z
 ---------------------------------------------------------------------
      1          6           0       -0.672650    0.344029    0.023058
      2          8           0       -1.788057   -0.110879   -0.025297
      3          6           0        0.561823   -0.458899    0.011392
      4          6           0        1.759955    0.143356   -0.022663
      5          1           0        0.441149   -1.530158    0.082394
      6          1           0        1.876130    1.270584   -0.005370
      7          1           0        2.631974   -0.424648   -0.020394
      8          1           0       -0.539565    1.400341    0.075027
 ---------------------------------------------------------------------

 SCF Done:  E(RB2PLYPD3) =  -191.613390306     A.U. after   12 cycles
 E2(B2PLYPD3) =    -0.2467156394D+00 E(B2PLYPD3) =    -0.19186010594513D+03

 The electronic state is 1-A.
 Alpha  occ. eigenvalues --  -19.72592 -10.70962 -10.65654 -10.64512  -1.19698
 Alpha  occ. eigenvalues --   -0.92739  -0.75671  -0.67300  -0.56665  -0.56394
 Alpha  occ. eigenvalues --   -0.50725  -0.47183  -0.46553  -0.34541  -0.33757
 Alpha virt. eigenvalues --   -0.01695   0.05724   0.07233   0.08250   0.09655
 Alpha virt. eigenvalues --    0.12531   0.14101   0.15348   0.17642   0.19423
 Alpha virt. eigenvalues --    0.20011   0.21791   0.25354   0.26601   0.28707

 Mulliken charges:
               1
     1  C    0.157597
     2  O   -0.348564
     3  C   -0.046683
     4  C   -0.131771
     5  H    0.105344
     6  H    0.084114
     7  H    0.104386
     8  H    0.075577
 Sum of Mulliken charges =   0.00000

 Dipole moment (field-independent basis, Debye):
    X=              3.4787    Y=              0.7483    Z=              0.1628  Tot=              3.5620
 Quadrupole moment (field-independent basis, Debye-Ang):
   XX=            -27.5041   YY=            -21.6086   ZZ=            -25.2025
   XY=             -0.8726   XZ=             -0.1404   YZ=             -0.0814

 Normal termination of Gaussian 09 at Wed Aug 26 15:26:55 2020.
