 Gaussian 09, Revision D.01,
 Gaussian 09:  ES64L-G09RevD.01 24-Apr-2013

 --------------------
 #p B2PLYPD3/Def2QZVP
 --------------------

 --------
 acrolein
 --------
 Symbolic Z-matrix:
 Charge =  0 Multiplicity = 1

                         Standard orientation:
 ---------------------------------------------------------------------
 Center     Atomic      Atomic             Coordinates (Angstroms)
 Number     Number       Type             X           Y           Z
 ---------------------------------------------------------------------
      1          6           0        0.658306    0.327890   -0.024268
      2          8           0        1.789547   -0.098267    0.029772
      3          6           0       -0.558057   -0.452943   -0.030648
      4          6           0       -1.749318    0.152893    0.006131
      5          1           0       -0.449866   -1.568972    0.012664
      6          1           0       -1.869535    1.262677    0.125153
      7          1           0       -2.666050   -0.412816    0.025404
      8          1           0        0.563491    1.338200   -0.108683
 ---------------------------------------------------------------------

 SCF Done:  E(RB2PLYPD3) =  -191.608256622     A.U. after   13 cycles
 E2(B2PLYPD3) =    -0.2468386326D+00 E(B2PLYPD3) =    -0.19185509525483D+03

 The electronic state is 1-A.
 Alpha  occ. eigenvalues --  -19.72252 -10.70151 -10.66132 -10.64840  -1.19266
 Alpha  occ. eigenvalues --   -0.93175  -0.76064  -0.67593  -0.57032  -0.56233
 Alpha  occ. eigenvalues --   -0.50345  -0.46725  -0.46404  -0.34663  -0.33740
 Alpha virt. eigenvalues --   -0.01979   0.05627   0.07070   0.08416   0.09612
 Alpha virt. eigenvalues --    0.12618   0.14204   0.15364   0.17477   0.19307
 Alpha virt. eigenvalues --    0.20146   0.21578   0.25294   0.26589   0.28742

 Mulliken charges:
               1
     1  C    0.156285
     2  O   -0.355817
     3  C   -0.037809
     4  C   -0.125448
     5  H    0.100726
     6  H    0.085191
     7  H    0.102029
     8  H    0.074843
 Sum of Mulliken charges =   0.00000

 Dipole moment (field-independent basis, Debye):
    X=             -3.6238    Y=              0.7434    Z=              0.0038  Tot=              3.6993
 Quadrupole moment (field-independent basis, Debye-Ang):
   XX=            -27.4921   YY=            -21.6329   ZZ=            -25.1525
   XY=              0.8287   XZ=             -0.4480   YZ=              0.0718

 Normal termination of Gaussian 09 at Wed Aug 26 09:30:31 2020.
