 Gaussian 09, Revision D.01,
 Gaussian 09:  ES64L-G09RevD.01 24-Apr-2013

 --------------------
 #p B2PLYPD3/Def2QZVP
 --------------------

 --------
 acrolein
 --------
 Symbolic Z-matrix:
 Charge =  0 Multiplicity = 1

                         Standard orientation:
 ---------------------------------------------------------------------
 Center     Atomic      Atomic             Coordinates (Angstroms)
 Number     Number       Type             X           Y           Z
 ---------------------------------------------------------------------
      1          6           0        0.676837    0.343457   -0.010969
      2          8           0        1.786795   -0.117139    0.023040
      3          6           0       -0.557894   -0.464736   -0.037706
      4          6           0       -1.757387    0.141526    0.010244
      5          1           0       -0.471938   -1.479613   -0.020296
      6          1           0       -1.867413    1.248704    0.003992
      7          1           0       -2.665966   -0.399997    0.105688
      8          1           0        0.541622    1.446533   -0.043125
 ---------------------------------------------------------------------

 SCF Done:  E(RB2PLYPD3) =  -191.613283317     A.U. after   13 cycles
 E2(B2PLYPD3) =    -0.2466582813D+00 E(B2PLYPD3) =    -0.19185994159812D+03

 The electronic state is 1-A.
 Alpha  occ. eigenvalues --  -19.72688 -10.71483 -10.65689 -10.64018  -1.19979
 Alpha  occ. eigenvalues --   -0.92771  -0.75268  -0.67587  -0.56691  -0.56494
 Alpha  occ. eigenvalues --   -0.50723  -0.47429  -0.46924  -0.34492  -0.33704
 Alpha virt. eigenvalues --   -0.01676   0.05743   0.07437   0.08158   0.09656
 Alpha virt. eigenvalues --    0.12506   0.14107   0.15408   0.17859   0.19650
 Alpha virt. eigenvalues --    0.19912   0.21496   0.25269   0.26349   0.28762

 Mulliken charges:
               1
     1  C    0.154804
     2  O   -0.343720
     3  C   -0.049448
     4  C   -0.126547
     5  H    0.112780
     6  H    0.082179
     7  H    0.099137
     8  H    0.070816
 Sum of Mulliken charges =   0.00000

 Dipole moment (field-independent basis, Debye):
    X=             -3.4640    Y=              0.7190    Z=              0.0029  Tot=              3.5378
 Quadrupole moment (field-independent basis, Debye-Ang):
   XX=            -27.3131   YY=            -21.7402   ZZ=            -25.1846
   XY=              0.9022   XZ=             -0.3860   YZ=             -0.0566

 Normal termination of Gaussian 09 at Wed Aug 26 16:29:49 2020.
