 Gaussian 09, Revision D.01,
 Gaussian 09:  ES64L-G09RevD.01 24-Apr-2013

 --------------------
 #p B2PLYPD3/Def2QZVP
 --------------------

 --------
 acrolein
 --------
 Symbolic Z-matrix:
 Charge =  0 Multiplicity = 1

                         Standard orientation:
 ---------------------------------------------------------------------
 Center     Atomic      Atomic             Coordinates (Angstroms)
 Number     Number       Type             X           Y           Z
 ---------------------------------------------------------------------
      1          6           0        0.681155    0.360164    0.025737
      2          8           0        1.787050   -0.141945   -0.022386
      3          6           0       -0.555288   -0.423312    0.002914
      4          6           0       -1.747064    0.119301   -0.032392
      5          1           0       -0.504226   -1.466629    0.083637
      6          1           0       -1.804159    1.178857   -0.027251
      7          1           0       -2.707342   -0.412120    0.059227
      8          1           0        0.446511    1.498535    0.085916
 ---------------------------------------------------------------------

 SCF Done:  E(RB2PLYPD3) =  -191.609799798     A.U. after   12 cycles
 E2(B2PLYPD3) =    -0.2475131102D+00 E(B2PLYPD3) =    -0.19185731290844D+03

 The electronic state is 1-A.
 Alpha  occ. eigenvalues --  -19.73385 -10.72563 -10.64918 -10.63497  -1.19604
 Alpha  occ. eigenvalues --   -0.93712  -0.75436  -0.67008  -0.56765  -0.56225
 Alpha  occ. eigenvalues --   -0.50994  -0.47051  -0.46206  -0.35066  -0.34122
 Alpha virt. eigenvalues --   -0.01783   0.05747   0.07106   0.08299   0.09794
 Alpha virt. eigenvalues --    0.12574   0.13906   0.15354   0.17681   0.19708
 Alpha virt. eigenvalues --    0.19930   0.21497   0.25574   0.26447   0.28733

 Mulliken charges:
               1
     1  C    0.152603
     2  O   -0.341730
     3  C   -0.023375
     4  C   -0.123943
     5  H    0.101782
     6  H    0.071975
     7  H    0.099825
     8  H    0.062862
 Sum of Mulliken charges =   0.00000

 Dipole moment (field-independent basis, Debye):
    X=             -3.4546    Y=              0.7564    Z=              0.2108  Tot=              3.5428
 Quadrupole moment (field-independent basis, Debye-Ang):
   XX=            -27.1889   YY=            -22.0902   ZZ=            -25.1224
   XY=              1.0771   XZ=             -0.0746   YZ=             -0.1337

 Normal termination of Gaussian 09 at Wed Aug 26 09:04:03 2020.
