 Gaussian 09, Revision D.01,
 Gaussian 09:  ES64L-G09RevD.01 24-Apr-2013

 --------------------
 #p B2PLYPD3/Def2QZVP
 --------------------

 --------
 acrolein
 --------
 Symbolic Z-matrix:
 Charge =  0 Multiplicity = 1

                         Standard orientation:
 ---------------------------------------------------------------------
 Center     Atomic      Atomic             Coordinates (Angstroms)
 Number     Number       Type             X           Y           Z
 ---------------------------------------------------------------------
      1          6           0       -0.674931    0.354965   -0.018344
      2          8           0       -1.790999   -0.128304    0.020621
      3          6           0        0.564840   -0.452343   -0.030498
      4          6           0        1.758465    0.140917    0.008028
      5          1           0        0.444581   -1.511282    0.017053
      6          1           0        1.824381    1.222362    0.054706
      7          1           0        2.674205   -0.434031    0.042949
      8          1           0       -0.505415    1.488153   -0.034796
 ---------------------------------------------------------------------

 SCF Done:  E(RB2PLYPD3) =  -191.615251894     A.U. after   12 cycles
 E2(B2PLYPD3) =    -0.2477699277D+00 E(B2PLYPD3) =    -0.19186302182124D+03

 The electronic state is 1-A.
 Alpha  occ. eigenvalues --  -19.73018 -10.72193 -10.65477 -10.64356  -1.19261
 Alpha  occ. eigenvalues --   -0.92942  -0.75150  -0.66733  -0.56500  -0.56076
 Alpha  occ. eigenvalues --   -0.50503  -0.47167  -0.46595  -0.34689  -0.33839
 Alpha virt. eigenvalues --   -0.01776   0.05737   0.07113   0.08001   0.09781
 Alpha virt. eigenvalues --    0.12491   0.13759   0.15360   0.17470   0.19716
 Alpha virt. eigenvalues --    0.19990   0.21545   0.25389   0.26352   0.28798

 Mulliken charges:
               1
     1  C    0.158389
     2  O   -0.348603
     3  C   -0.041193
     4  C   -0.129248
     5  H    0.107736
     6  H    0.084917
     7  H    0.102913
     8  H    0.065091
 Sum of Mulliken charges =   0.00000

 Dipole moment (field-independent basis, Debye):
    X=              3.4750    Y=              0.7403    Z=              0.0241  Tot=              3.5531
 Quadrupole moment (field-independent basis, Debye-Ang):
   XX=            -27.4989   YY=            -21.7559   ZZ=            -25.2739
   XY=             -0.9720   XZ=              0.3087   YZ=             -0.0106

 Normal termination of Gaussian 09 at Wed Aug 26 19:47:34 2020.
