 Gaussian 09, Revision D.01,
 Gaussian 09:  ES64L-G09RevD.01 24-Apr-2013

 --------------------
 #p B2PLYPD3/Def2QZVP
 --------------------

 --------
 acrolein
 --------
 Symbolic Z-matrix:
 Charge =  0 Multiplicity = 1

                         Standard orientation:
 ---------------------------------------------------------------------
 Center     Atomic      Atomic             Coordinates (Angstroms)
 Number     Number       Type             X           Y           Z
 ---------------------------------------------------------------------
      1          6           0        0.673547    0.364027    0.013475
      2          8           0        1.781529   -0.132730   -0.019648
      3          6           0       -0.563701   -0.448342    0.009786
      4          6           0       -1.745790    0.141382   -0.005815
      5          1           0       -0.481244   -1.513175    0.054185
      6          1           0       -1.790178    1.185183   -0.061616
      7          1           0       -2.658665   -0.400253   -0.026632
      8          1           0        0.493515    1.447683    0.086566
 ---------------------------------------------------------------------

 SCF Done:  E(RB2PLYPD3) =  -191.615532416     A.U. after   12 cycles
 E2(B2PLYPD3) =    -0.2467300790D+00 E(B2PLYPD3) =    -0.19186226249476D+03

 The electronic state is 1-A.
 Alpha  occ. eigenvalues --  -19.72938 -10.71790 -10.64420 -10.63928  -1.19355
 Alpha  occ. eigenvalues --   -0.93333  -0.75489  -0.67513  -0.56922  -0.56532
 Alpha  occ. eigenvalues --   -0.50774  -0.47237  -0.46612  -0.34774  -0.33957
 Alpha virt. eigenvalues --   -0.01501   0.05869   0.07239   0.07994   0.09802
 Alpha virt. eigenvalues --    0.12748   0.14113   0.15333   0.17520   0.19743
 Alpha virt. eigenvalues --    0.20221   0.21693   0.25488   0.26561   0.28818

 Mulliken charges:
               1
     1  C    0.150382
     2  O   -0.348067
     3  C   -0.036687
     4  C   -0.131981
     5  H    0.105474
     6  H    0.080298
     7  H    0.100731
     8  H    0.079851
 Sum of Mulliken charges =   0.00000

 Dipole moment (field-independent basis, Debye):
    X=             -3.4287    Y=              0.8207    Z=              0.0627  Tot=              3.5261
 Quadrupole moment (field-independent basis, Debye-Ang):
   XX=            -27.4840   YY=            -21.6895   ZZ=            -25.1054
   XY=              1.0661   XZ=              0.2294   YZ=             -0.0928

 Normal termination of Gaussian 09 at Wed Aug 26 10:21:05 2020.
