 Gaussian 09, Revision D.01,
 Gaussian 09:  ES64L-G09RevD.01 24-Apr-2013

 --------------------
 #p B2PLYPD3/Def2QZVP
 --------------------

 --------
 acrolein
 --------
 Symbolic Z-matrix:
 Charge =  0 Multiplicity = 1

                         Standard orientation:
 ---------------------------------------------------------------------
 Center     Atomic      Atomic             Coordinates (Angstroms)
 Number     Number       Type             X           Y           Z
 ---------------------------------------------------------------------
      1          6           0        0.676282    0.343580   -0.029489
      2          8           0        1.792625   -0.114049    0.025817
      3          6           0       -0.556247   -0.457602   -0.027576
      4          6           0       -1.762195    0.138921    0.008067
      5          1           0       -0.455846   -1.537325   -0.008651
      6          1           0       -1.892686    1.262350    0.027076
      7          1           0       -2.649143   -0.425004    0.077626
      8          1           0        0.509633    1.462979   -0.008598
 ---------------------------------------------------------------------

 SCF Done:  E(RB2PLYPD3) =  -191.613948995     A.U. after   12 cycles
 E2(B2PLYPD3) =    -0.2476101048D+00 E(B2PLYPD3) =    -0.19186155910004D+03

 The electronic state is 1-A.
 Alpha  occ. eigenvalues --  -19.72853 -10.71793 -10.65917 -10.64735  -1.19707
 Alpha  occ. eigenvalues --   -0.92637  -0.75437  -0.66424  -0.56655  -0.55972
 Alpha  occ. eigenvalues --   -0.50557  -0.46865  -0.46816  -0.34534  -0.33776
 Alpha virt. eigenvalues --   -0.01889   0.05688   0.07102   0.08189   0.09646
 Alpha virt. eigenvalues --    0.12450   0.14015   0.15374   0.17470   0.19541
 Alpha virt. eigenvalues --    0.19945   0.21673   0.25265   0.26419   0.28562

 Mulliken charges:
               1
     1  C    0.160702
     2  O   -0.344588
     3  C   -0.044141
     4  C   -0.127954
     5  H    0.105116
     6  H    0.083057
     7  H    0.103770
     8  H    0.064038
 Sum of Mulliken charges =   0.00000

 Dipole moment (field-independent basis, Debye):
    X=             -3.5090    Y=              0.6899    Z=             -0.0087  Tot=              3.5762
 Quadrupole moment (field-independent basis, Debye-Ang):
   XX=            -27.3852   YY=            -21.7477   ZZ=            -25.3057
   XY=              0.8250   XZ=             -0.3599   YZ=             -0.0093

 Normal termination of Gaussian 09 at Wed Aug 26 12:30:42 2020.
