 Gaussian 09, Revision D.01,
 Gaussian 09:  ES64L-G09RevD.01 24-Apr-2013

 --------------------
 #p B2PLYPD3/Def2QZVP
 --------------------

 --------
 acrolein
 --------
 Symbolic Z-matrix:
 Charge =  0 Multiplicity = 1

                         Standard orientation:
 ---------------------------------------------------------------------
 Center     Atomic      Atomic             Coordinates (Angstroms)
 Number     Number       Type             X           Y           Z
 ---------------------------------------------------------------------
      1          6           0       -0.681220    0.341627    0.000956
      2          8           0       -1.792781   -0.100887   -0.001297
      3          6           0        0.568807   -0.477493    0.027672
      4          6           0        1.769525    0.160776   -0.015417
      5          1           0        0.386952   -1.577143   -0.019389
      6          1           0        1.852363    1.217150    0.131529
      7          1           0        2.724361   -0.364381   -0.086272
      8          1           0       -0.564102    1.382009   -0.094760
 ---------------------------------------------------------------------

 SCF Done:  E(RB2PLYPD3) =  -191.610652336     A.U. after   14 cycles
 E2(B2PLYPD3) =    -0.2468807097D+00 E(B2PLYPD3) =    -0.19185753304560D+03

 The electronic state is 1-A.
 Alpha  occ. eigenvalues --  -19.72570 -10.70825 -10.65875 -10.65404  -1.20264
 Alpha  occ. eigenvalues --   -0.91965  -0.75229  -0.67478  -0.56782  -0.55918
 Alpha  occ. eigenvalues --   -0.50736  -0.47045  -0.46882  -0.34205  -0.33623
 Alpha virt. eigenvalues --   -0.01718   0.05781   0.07350   0.07884   0.09647
 Alpha virt. eigenvalues --    0.12595   0.14242   0.15355   0.17300   0.19634
 Alpha virt. eigenvalues --    0.20222   0.21535   0.24560   0.26825   0.28610

 Mulliken charges:
               1
     1  C    0.159774
     2  O   -0.343765
     3  C   -0.053121
     4  C   -0.133698
     5  H    0.106911
     6  H    0.089847
     7  H    0.099378
     8  H    0.074674
 Sum of Mulliken charges =   0.00000

 Dipole moment (field-independent basis, Debye):
    X=              3.4011    Y=              0.7727    Z=             -0.0117  Tot=              3.4878
 Quadrupole moment (field-independent basis, Debye-Ang):
   XX=            -27.3694   YY=            -21.6935   ZZ=            -25.2705
   XY=             -0.6626   XZ=             -0.0066   YZ=              0.2206

 Normal termination of Gaussian 09 at Wed Aug 26 11:06:53 2020.
