 Gaussian 09, Revision D.01,
 Gaussian 09:  ES64L-G09RevD.01 24-Apr-2013

 --------------------
 #p B2PLYPD3/Def2QZVP
 --------------------

 --------
 acrolein
 --------
 Symbolic Z-matrix:
 Charge =  0 Multiplicity = 1

                         Standard orientation:
 ---------------------------------------------------------------------
 Center     Atomic      Atomic             Coordinates (Angstroms)
 Number     Number       Type             X           Y           Z
 ---------------------------------------------------------------------
      1          6           0        0.676570    0.370877    0.025379
      2          8           0        1.787777   -0.135467   -0.025029
      3          6           0       -0.551862   -0.444322    0.047698
      4          6           0       -1.759802    0.128594   -0.029611
      5          1           0       -0.397308   -1.515087   -0.012351
      6          1           0       -1.899102    1.195593    0.041830
      7          1           0       -2.714235   -0.442456   -0.068507
      8          1           0        0.518996    1.514789   -0.021541
 ---------------------------------------------------------------------

 SCF Done:  E(RB2PLYPD3) =  -191.612317469     A.U. after   12 cycles
 E2(B2PLYPD3) =    -0.2484752162D+00 E(B2PLYPD3) =    -0.19186079268535D+03

 The electronic state is 1-A.
 Alpha  occ. eigenvalues --  -19.73013 -10.72351 -10.65883 -10.64721  -1.18998
 Alpha  occ. eigenvalues --   -0.92625  -0.75144  -0.66491  -0.56488  -0.55765
 Alpha  occ. eigenvalues --   -0.50333  -0.46535  -0.46492  -0.34568  -0.33885
 Alpha virt. eigenvalues --   -0.01968   0.05625   0.07090   0.07804   0.09742
 Alpha virt. eigenvalues --    0.12282   0.13824   0.15307   0.17402   0.19807
 Alpha virt. eigenvalues --    0.19997   0.21494   0.24902   0.26503   0.28603

 Mulliken charges:
               1
     1  C    0.160878
     2  O   -0.351644
     3  C   -0.046296
     4  C   -0.125547
     5  H    0.112268
     6  H    0.084704
     7  H    0.096886
     8  H    0.068750
 Sum of Mulliken charges =   0.00000

 Dipole moment (field-independent basis, Debye):
    X=             -3.4919    Y=              0.8112    Z=              0.0396  Tot=              3.5851
 Quadrupole moment (field-independent basis, Debye-Ang):
   XX=            -27.3514   YY=            -21.7857   ZZ=            -25.3525
   XY=              0.8480   XZ=              0.2237   YZ=              0.1218

 Normal termination of Gaussian 09 at Wed Aug 26 08:35:28 2020.
