 Gaussian 09, Revision D.01,
 Gaussian 09:  ES64L-G09RevD.01 24-Apr-2013

 --------------------
 #p B2PLYPD3/Def2QZVP
 --------------------

 --------
 acrolein
 --------
 Symbolic Z-matrix:
 Charge =  0 Multiplicity = 1

                         Standard orientation:
 ---------------------------------------------------------------------
 Center     Atomic      Atomic             Coordinates (Angstroms)
 Number     Number       Type             X           Y           Z
 ---------------------------------------------------------------------
      1          6           0        0.677827    0.344407   -0.015394
      2          8           0        1.790488   -0.117717    0.022800
      3          6           0       -0.532975   -0.439207   -0.051380
      4          6           0       -1.764138    0.128852    0.001581
      5          1           0       -0.455168   -1.500636    0.061293
      6          1           0       -1.871022    1.205456    0.050763
      7          1           0       -2.755458   -0.411383    0.103583
      8          1           0        0.473465    1.443986   -0.006885
 ---------------------------------------------------------------------

 SCF Done:  E(RB2PLYPD3) =  -191.611054788     A.U. after   13 cycles
 E2(B2PLYPD3) =    -0.2479014577D+00 E(B2PLYPD3) =    -0.19185895624583D+03

 The electronic state is 1-A.
 Alpha  occ. eigenvalues --  -19.72860 -10.71544 -10.66601 -10.64475  -1.19898
 Alpha  occ. eigenvalues --   -0.92771  -0.75688  -0.67016  -0.56800  -0.55866
 Alpha  occ. eigenvalues --   -0.50484  -0.47213  -0.46318  -0.34400  -0.33949
 Alpha virt. eigenvalues --   -0.02327   0.05561   0.07194   0.08373   0.09644
 Alpha virt. eigenvalues --    0.12428   0.14008   0.15339   0.17802   0.19691
 Alpha virt. eigenvalues --    0.19905   0.21232   0.25149   0.26388   0.28697

 Mulliken charges:
               1
     1  C    0.153901
     2  O   -0.344913
     3  C   -0.031609
     4  C   -0.125261
     5  H    0.106283
     6  H    0.078332
     7  H    0.098804
     8  H    0.064463
 Sum of Mulliken charges =   0.00000

 Dipole moment (field-independent basis, Debye):
    X=             -3.5794    Y=              0.7374    Z=              0.1217  Tot=              3.6566
 Quadrupole moment (field-independent basis, Debye-Ang):
   XX=            -27.0361   YY=            -22.0632   ZZ=            -25.2677
   XY=              0.8104   XZ=             -0.5067   YZ=             -0.1107

 Normal termination of Gaussian 09 at Wed Aug 26 21:21:06 2020.
