 Gaussian 09, Revision D.01,
 Gaussian 09:  ES64L-G09RevD.01 24-Apr-2013

 --------------------
 #p B2PLYPD3/Def2QZVP
 --------------------

 --------
 acrolein
 --------
 Symbolic Z-matrix:
 Charge =  0 Multiplicity = 1

                         Standard orientation:
 ---------------------------------------------------------------------
 Center     Atomic      Atomic             Coordinates (Angstroms)
 Number     Number       Type             X           Y           Z
 ---------------------------------------------------------------------
      1          6           0       -0.686926   -0.319544   -0.099538
      2          8           0       -1.804161    0.077351    0.073053
      3          6           0        0.564571    0.491081   -0.028999
      4          6           0        1.767379   -0.153988    0.007791
      5          1           0        0.373387    1.714833   -0.028906
      6          1           0        1.984503   -1.351433    0.209640
      7          1           0        2.743326    0.373418    0.070897
      8          1           0       -0.538067   -1.460917   -0.111577
 ---------------------------------------------------------------------

 SCF Done:  E(RB2PLYPD3) =  -191.579573432     A.U. after   13 cycles
 E2(B2PLYPD3) =    -0.2502304609D+00 E(B2PLYPD3) =    -0.19182980389274D+03

 The electronic state is 1-A.
 Alpha  occ. eigenvalues --  -19.72981 -10.72038 -10.67969 -10.67169  -1.20371
 Alpha  occ. eigenvalues --   -0.91301  -0.74235  -0.64421  -0.56429  -0.54152
 Alpha  occ. eigenvalues --   -0.50027  -0.47076  -0.44395  -0.34436  -0.33417
 Alpha virt. eigenvalues --   -0.02125   0.04938   0.06164   0.07850   0.09328
 Alpha virt. eigenvalues --    0.11809   0.14183   0.15240   0.16566   0.19242
 Alpha virt. eigenvalues --    0.19895   0.21285   0.24422   0.25953   0.28026

 Mulliken charges:
               1
     1  C    0.174670
     2  O   -0.331916
     3  C   -0.056823
     4  C   -0.115888
     5  H    0.097330
     6  H    0.081787
     7  H    0.099253
     8  H    0.051586
 Sum of Mulliken charges =   0.00000

 Dipole moment (field-independent basis, Debye):
    X=              3.4354    Y=             -0.5709    Z=             -0.0935  Tot=              3.4837
 Quadrupole moment (field-independent basis, Debye-Ang):
   XX=            -27.2528   YY=            -21.8203   ZZ=            -25.7111
   XY=              0.2582   XZ=              0.8869   YZ=             -0.2763

 Normal termination of Gaussian 09 at Wed Aug 26 11:35:25 2020.
