 Gaussian 09, Revision D.01,
 Gaussian 09:  ES64L-G09RevD.01 24-Apr-2013

 --------------------
 #p B2PLYPD3/Def2QZVP
 --------------------

 --------
 acrolein
 --------
 Symbolic Z-matrix:
 Charge =  0 Multiplicity = 1

                         Standard orientation:
 ---------------------------------------------------------------------
 Center     Atomic      Atomic             Coordinates (Angstroms)
 Number     Number       Type             X           Y           Z
 ---------------------------------------------------------------------
      1          6           0        0.656291    0.334774    0.022323
      2          8           0        1.799755   -0.105781   -0.023889
      3          6           0       -0.563657   -0.460003    0.006851
      4          6           0       -1.753326    0.150929   -0.005986
      5          1           0       -0.438716   -1.538715    0.068455
      6          1           0       -1.821906    1.231689   -0.053400
      7          1           0       -2.649560   -0.425469   -0.042039
      8          1           0        0.476294    1.424541    0.078967
 ---------------------------------------------------------------------

 SCF Done:  E(RB2PLYPD3) =  -191.615283006     A.U. after   12 cycles
 E2(B2PLYPD3) =    -0.2480200688D+00 E(B2PLYPD3) =    -0.19186330307451D+03

 The electronic state is 1-A.
 Alpha  occ. eigenvalues --  -19.72754 -10.71568 -10.65672 -10.64607  -1.18479
 Alpha  occ. eigenvalues --   -0.93401  -0.75930  -0.66976  -0.56588  -0.56293
 Alpha  occ. eigenvalues --   -0.50262  -0.47416  -0.46232  -0.34716  -0.33822
 Alpha virt. eigenvalues --   -0.02145   0.05730   0.07050   0.08109   0.09735
 Alpha virt. eigenvalues --    0.12684   0.13868   0.15209   0.17412   0.19729
 Alpha virt. eigenvalues --    0.20059   0.21677   0.25222   0.26617   0.28763

 Mulliken charges:
               1
     1  C    0.154771
     2  O   -0.358781
     3  C   -0.030031
     4  C   -0.130542
     5  H    0.104175
     6  H    0.089146
     7  H    0.104482
     8  H    0.066780
 Sum of Mulliken charges =   0.00000

 Dipole moment (field-independent basis, Debye):
    X=             -3.6634    Y=              0.6925    Z=              0.0862  Tot=              3.7292
 Quadrupole moment (field-independent basis, Debye-Ang):
   XX=            -27.6499   YY=            -21.6982   ZZ=            -25.2202
   XY=              0.7847   XZ=              0.2696   YZ=             -0.1127

 Normal termination of Gaussian 09 at Wed Aug 26 19:01:14 2020.
