 Gaussian 09, Revision D.01,
 Gaussian 09:  ES64L-G09RevD.01 24-Apr-2013

 --------------------
 #p B2PLYPD3/Def2QZVP
 --------------------

 --------
 acrolein
 --------
 Symbolic Z-matrix:
 Charge =  0 Multiplicity = 1

                         Standard orientation:
 ---------------------------------------------------------------------
 Center     Atomic      Atomic             Coordinates (Angstroms)
 Number     Number       Type             X           Y           Z
 ---------------------------------------------------------------------
      1          6           0       -0.671902    0.365099   -0.031698
      2          8           0       -1.773947   -0.132854    0.030915
      3          6           0        0.548920   -0.430539   -0.040960
      4          6           0        1.750475    0.145781   -0.001078
      5          1           0        0.424049   -1.563190   -0.011531
      6          1           0        1.808333    1.152295    0.008447
      7          1           0        2.742391   -0.426659    0.168788
      8          1           0       -0.548160    1.418336    0.029390
 ---------------------------------------------------------------------

 SCF Done:  E(RB2PLYPD3) =  -191.604939951     A.U. after   12 cycles
 E2(B2PLYPD3) =    -0.2472102309D+00 E(B2PLYPD3) =    -0.19185215018200D+03

 The electronic state is 1-A.
 Alpha  occ. eigenvalues --  -19.72645 -10.71091 -10.65376 -10.64780  -1.19507
 Alpha  occ. eigenvalues --   -0.93077  -0.75639  -0.67465  -0.57542  -0.55568
 Alpha  occ. eigenvalues --   -0.50220  -0.46828  -0.46197  -0.34562  -0.34012
 Alpha virt. eigenvalues --   -0.01821   0.05651   0.06985   0.08157   0.09759
 Alpha virt. eigenvalues --    0.12471   0.14221   0.15344   0.17278   0.19639
 Alpha virt. eigenvalues --    0.20150   0.21618   0.25353   0.26590   0.28960

 Mulliken charges:
               1
     1  C    0.149915
     2  O   -0.350917
     3  C   -0.032893
     4  C   -0.133166
     5  H    0.102308
     6  H    0.086734
     7  H    0.097681
     8  H    0.080337
 Sum of Mulliken charges =   0.00000

 Dipole moment (field-independent basis, Debye):
    X=              3.4286    Y=              0.9015    Z=              0.0481  Tot=              3.5454
 Quadrupole moment (field-independent basis, Debye-Ang):
   XX=            -27.4129   YY=            -21.7170   ZZ=            -25.1821
   XY=             -1.0321   XZ=              0.5764   YZ=             -0.0713

 Normal termination of Gaussian 09 at Wed Aug 26 09:52:53 2020.
