 Gaussian 09, Revision D.01,
 Gaussian 09:  ES64L-G09RevD.01 24-Apr-2013

 --------------------
 #p B2PLYPD3/Def2QZVP
 --------------------

 --------
 acrolein
 --------
 Symbolic Z-matrix:
 Charge =  0 Multiplicity = 1

                         Standard orientation:
 ---------------------------------------------------------------------
 Center     Atomic      Atomic             Coordinates (Angstroms)
 Number     Number       Type             X           Y           Z
 ---------------------------------------------------------------------
      1          6           0        0.673605    0.357256    0.016981
      2          8           0        1.790650   -0.133631   -0.013655
      3          6           0       -0.557136   -0.443021    0.005360
      4          6           0       -1.755735    0.142710   -0.016269
      5          1           0       -0.447902   -1.508057    0.020055
      6          1           0       -1.806932    1.168421   -0.043462
      7          1           0       -2.731475   -0.433256    0.044551
      8          1           0        0.496708    1.500270    0.051664
 ---------------------------------------------------------------------

 SCF Done:  E(RB2PLYPD3) =  -191.610393115     A.U. after   12 cycles
 E2(B2PLYPD3) =    -0.2481011267D+00 E(B2PLYPD3) =    -0.19185849424180D+03

 The electronic state is 1-A.
 Alpha  occ. eigenvalues --  -19.73068 -10.72346 -10.65471 -10.64354  -1.19097
 Alpha  occ. eigenvalues --   -0.93154  -0.75280  -0.66934  -0.56494  -0.56041
 Alpha  occ. eigenvalues --   -0.50265  -0.47128  -0.46605  -0.34671  -0.33926
 Alpha virt. eigenvalues --   -0.01964   0.05684   0.07005   0.08057   0.09801
 Alpha virt. eigenvalues --    0.12435   0.13798   0.15352   0.17381   0.19826
 Alpha virt. eigenvalues --    0.20183   0.21390   0.25445   0.26241   0.28897

 Mulliken charges:
               1
     1  C    0.153769
     2  O   -0.349805
     3  C   -0.031581
     4  C   -0.132175
     5  H    0.107739
     6  H    0.088007
     7  H    0.100058
     8  H    0.063988
 Sum of Mulliken charges =   0.00000

 Dipole moment (field-independent basis, Debye):
    X=             -3.5082    Y=              0.7665    Z=              0.0849  Tot=              3.5919
 Quadrupole moment (field-independent basis, Debye-Ang):
   XX=            -27.3976   YY=            -21.8483   ZZ=            -25.2724
   XY=              0.9829   XZ=              0.0054   YZ=             -0.0815

 Normal termination of Gaussian 09 at Wed Aug 26 09:08:07 2020.
