 Gaussian 09, Revision D.01,
 Gaussian 09:  ES64L-G09RevD.01 24-Apr-2013

 --------------------
 #p B2PLYPD3/Def2QZVP
 --------------------

 --------
 acrolein
 --------
 Symbolic Z-matrix:
 Charge =  0 Multiplicity = 1

                         Standard orientation:
 ---------------------------------------------------------------------
 Center     Atomic      Atomic             Coordinates (Angstroms)
 Number     Number       Type             X           Y           Z
 ---------------------------------------------------------------------
      1          6           0       -0.668880    0.350638   -0.008618
      2          8           0       -1.783614   -0.127974    0.022510
      3          6           0        0.559267   -0.429118   -0.035088
      4          6           0        1.757748    0.138732    0.010024
      5          1           0        0.417765   -1.523035   -0.029280
      6          1           0        1.788536    1.174099    0.022031
      7          1           0        2.675018   -0.440414    0.090084
      8          1           0       -0.501210    1.451626   -0.060824
 ---------------------------------------------------------------------

 SCF Done:  E(RB2PLYPD3) =  -191.614294848     A.U. after   12 cycles
 E2(B2PLYPD3) =    -0.2471915776D+00 E(B2PLYPD3) =    -0.19186148642513D+03

 The electronic state is 1-A.
 Alpha  occ. eigenvalues --  -19.72905 -10.71621 -10.65049 -10.64298  -1.19412
 Alpha  occ. eigenvalues --   -0.93482  -0.75915  -0.66859  -0.56800  -0.56535
 Alpha  occ. eigenvalues --   -0.50704  -0.46982  -0.46644  -0.34809  -0.33926
 Alpha virt. eigenvalues --   -0.01911   0.05818   0.07067   0.08366   0.09865
 Alpha virt. eigenvalues --    0.12638   0.13852   0.15341   0.17301   0.19791
 Alpha virt. eigenvalues --    0.20142   0.21707   0.25586   0.26430   0.28865

 Mulliken charges:
               1
     1  C    0.154818
     2  O   -0.350592
     3  C   -0.026241
     4  C   -0.135267
     5  H    0.099551
     6  H    0.086349
     7  H    0.107495
     8  H    0.063887
 Sum of Mulliken charges =   0.00000

 Dipole moment (field-independent basis, Debye):
    X=              3.5037    Y=              0.7634    Z=             -0.0047  Tot=              3.5859
 Quadrupole moment (field-independent basis, Debye-Ang):
   XX=            -27.3703   YY=            -21.8763   ZZ=            -25.1477
   XY=             -1.0072   XZ=              0.3681   YZ=             -0.0296

 Normal termination of Gaussian 09 at Wed Aug 26 15:01:45 2020.
