 Gaussian 09, Revision D.01,
 Gaussian 09:  ES64L-G09RevD.01 24-Apr-2013

 --------------------
 #p B2PLYPD3/Def2QZVP
 --------------------

 --------
 acrolein
 --------
 Symbolic Z-matrix:
 Charge =  0 Multiplicity = 1

                         Standard orientation:
 ---------------------------------------------------------------------
 Center     Atomic      Atomic             Coordinates (Angstroms)
 Number     Number       Type             X           Y           Z
 ---------------------------------------------------------------------
      1          6           0       -0.679841    0.353751    0.017188
      2          8           0       -1.775701   -0.131841   -0.018245
      3          6           0        0.556163   -0.439778    0.013710
      4          6           0        1.756445    0.141200   -0.017764
      5          1           0        0.460733   -1.498948    0.059599
      6          1           0        1.794121    1.193117    0.028335
      7          1           0        2.665589   -0.432442   -0.042974
      8          1           0       -0.511440    1.461970    0.022194
 ---------------------------------------------------------------------

 SCF Done:  E(RB2PLYPD3) =  -191.616238195     A.U. after   12 cycles
 E2(B2PLYPD3) =    -0.2464351318D+00 E(B2PLYPD3) =    -0.19186267332709D+03

 The electronic state is 1-A.
 Alpha  occ. eigenvalues --  -19.72894 -10.71610 -10.64925 -10.63945  -1.20312
 Alpha  occ. eigenvalues --   -0.93058  -0.75431  -0.67135  -0.56885  -0.56455
 Alpha  occ. eigenvalues --   -0.50814  -0.47526  -0.46983  -0.34596  -0.33851
 Alpha virt. eigenvalues --   -0.01573   0.05873   0.07216   0.08320   0.09843
 Alpha virt. eigenvalues --    0.12642   0.13920   0.15393   0.17589   0.19885
 Alpha virt. eigenvalues --    0.20043   0.21619   0.25618   0.26374   0.28877

 Mulliken charges:
               1
     1  C    0.152682
     2  O   -0.340214
     3  C   -0.034430
     4  C   -0.136974
     5  H    0.103685
     6  H    0.084649
     7  H    0.104603
     8  H    0.065998
 Sum of Mulliken charges =   0.00000

 Dipole moment (field-independent basis, Debye):
    X=              3.3769    Y=              0.7516    Z=              0.1068  Tot=              3.4611
 Quadrupole moment (field-independent basis, Debye-Ang):
   XX=            -27.3088   YY=            -21.8218   ZZ=            -25.1411
   XY=             -1.0907   XZ=             -0.1152   YZ=             -0.0084

 Normal termination of Gaussian 09 at Wed Aug 26 15:37:25 2020.
