 Gaussian 09, Revision D.01,
 Gaussian 09:  ES64L-G09RevD.01 24-Apr-2013

 --------------------
 #p B2PLYPD3/Def2QZVP
 --------------------

 --------
 acrolein
 --------
 Symbolic Z-matrix:
 Charge =  0 Multiplicity = 1

                         Standard orientation:
 ---------------------------------------------------------------------
 Center     Atomic      Atomic             Coordinates (Angstroms)
 Number     Number       Type             X           Y           Z
 ---------------------------------------------------------------------
      1          6           0       -0.628597   -0.327813    0.039627
      2          8           0       -1.800465    0.082018   -0.045856
      3          6           0        0.577489    0.475315    0.089751
      4          6           0        1.740725   -0.172973   -0.067322
      5          1           0        0.329931    1.630849   -0.066044
      6          1           0        1.869346   -1.291332   -0.000990
      7          1           0        2.661519    0.454268   -0.018005
      8          1           0       -0.594778   -1.297103    0.079554
 ---------------------------------------------------------------------

 SCF Done:  E(RB2PLYPD3) =  -191.582084870     A.U. after   13 cycles
 E2(B2PLYPD3) =    -0.2496177483D+00 E(B2PLYPD3) =    -0.19183170261784D+03

 The electronic state is 1-A.
 Alpha  occ. eigenvalues --  -19.72003 -10.69819 -10.67074 -10.66020  -1.17168
 Alpha  occ. eigenvalues --   -0.93336  -0.75997  -0.67933  -0.56822  -0.55388
 Alpha  occ. eigenvalues --   -0.49216  -0.46111  -0.45364  -0.34786  -0.33524
 Alpha virt. eigenvalues --   -0.02473   0.05436   0.06594   0.07618   0.09600
 Alpha virt. eigenvalues --    0.12364   0.13385   0.15259   0.17255   0.19059
 Alpha virt. eigenvalues --    0.20017   0.21481   0.24167   0.27159   0.28665

 Mulliken charges:
               1
     1  C    0.166998
     2  O   -0.380624
     3  C   -0.042526
     4  C   -0.115739
     5  H    0.108687
     6  H    0.094680
     7  H    0.096762
     8  H    0.071762
 Sum of Mulliken charges =   0.00000

 Dipole moment (field-independent basis, Debye):
    X=              3.7956    Y=             -0.7862    Z=              0.1119  Tot=              3.8778
 Quadrupole moment (field-independent basis, Debye-Ang):
   XX=            -28.1163   YY=            -21.3252   ZZ=            -25.3310
   XY=              0.5282   XZ=             -0.3122   YZ=             -0.1953

 Normal termination of Gaussian 09 at Wed Aug 26 13:42:12 2020.
