 Gaussian 09, Revision D.01,
 Gaussian 09:  ES64L-G09RevD.01 24-Apr-2013

 --------------------
 #p B2PLYPD3/Def2QZVP
 --------------------

 --------
 acrolein
 --------
 Symbolic Z-matrix:
 Charge =  0 Multiplicity = 1

                         Standard orientation:
 ---------------------------------------------------------------------
 Center     Atomic      Atomic             Coordinates (Angstroms)
 Number     Number       Type             X           Y           Z
 ---------------------------------------------------------------------
      1          6           0       -0.666756    0.349972   -0.030621
      2          8           0       -1.792767   -0.134264    0.023435
      3          6           0        0.552264   -0.419894   -0.030455
      4          6           0        1.761039    0.134344   -0.005285
      5          1           0        0.458171   -1.496762    0.009835
      6          1           0        1.790444    1.169492    0.016231
      7          1           0        2.695757   -0.463661    0.133982
      8          1           0       -0.481518    1.478508    0.050634
 ---------------------------------------------------------------------

 SCF Done:  E(RB2PLYPD3) =  -191.609586360     A.U. after   12 cycles
 E2(B2PLYPD3) =    -0.2484292593D+00 E(B2PLYPD3) =    -0.19185801561898D+03

 The electronic state is 1-A.
 Alpha  occ. eigenvalues --  -19.73062 -10.72140 -10.65519 -10.64187  -1.18714
 Alpha  occ. eigenvalues --   -0.93699  -0.75984  -0.66808  -0.56598  -0.56251
 Alpha  occ. eigenvalues --   -0.50360  -0.46841  -0.46500  -0.34790  -0.34046
 Alpha virt. eigenvalues --   -0.02364   0.05687   0.06914   0.08300   0.09856
 Alpha virt. eigenvalues --    0.12544   0.13733   0.15303   0.17472   0.19668
 Alpha virt. eigenvalues --    0.20103   0.21589   0.25325   0.26479   0.28893

 Mulliken charges:
               1
     1  C    0.153796
     2  O   -0.354100
     3  C   -0.019924
     4  C   -0.130345
     5  H    0.101101
     6  H    0.084989
     7  H    0.105713
     8  H    0.058771
 Sum of Mulliken charges =   0.00000

 Dipole moment (field-independent basis, Debye):
    X=              3.6057    Y=              0.7386    Z=              0.0706  Tot=              3.6813
 Quadrupole moment (field-independent basis, Debye-Ang):
   XX=            -27.4128   YY=            -21.9654   ZZ=            -25.1918
   XY=             -1.1134   XZ=              0.4788   YZ=             -0.0647

 Normal termination of Gaussian 09 at Wed Aug 26 09:02:27 2020.
