 Gaussian 09, Revision D.01,
 Gaussian 09:  ES64L-G09RevD.01 24-Apr-2013

 --------------------
 #p B2PLYPD3/Def2QZVP
 --------------------

 --------
 acrolein
 --------
 Symbolic Z-matrix:
 Charge =  0 Multiplicity = 1

                         Standard orientation:
 ---------------------------------------------------------------------
 Center     Atomic      Atomic             Coordinates (Angstroms)
 Number     Number       Type             X           Y           Z
 ---------------------------------------------------------------------
      1          6           0        0.679958    0.362604    0.027147
      2          8           0        1.789257   -0.137103   -0.021930
      3          6           0       -0.562259   -0.444552    0.006220
      4          6           0       -1.751790    0.136136   -0.015857
      5          1           0       -0.483004   -1.504867    0.049866
      6          1           0       -1.788400    1.210784   -0.048447
      7          1           0       -2.709546   -0.424524    0.011819
      8          1           0        0.471437    1.490306    0.057134
 ---------------------------------------------------------------------

 SCF Done:  E(RB2PLYPD3) =  -191.613473448     A.U. after   12 cycles
 E2(B2PLYPD3) =    -0.2478526125D+00 E(B2PLYPD3) =    -0.19186132606093D+03

 The electronic state is 1-A.
 Alpha  occ. eigenvalues --  -19.73223 -10.72455 -10.65364 -10.64041  -1.19351
 Alpha  occ. eigenvalues --   -0.93104  -0.74907  -0.66872  -0.56369  -0.56050
 Alpha  occ. eigenvalues --   -0.50633  -0.46801  -0.46603  -0.34794  -0.34011
 Alpha virt. eigenvalues --   -0.01671   0.05713   0.07059   0.07983   0.09781
 Alpha virt. eigenvalues --    0.12495   0.13798   0.15350   0.17542   0.19766
 Alpha virt. eigenvalues --    0.19995   0.21306   0.25512   0.26383   0.28862

 Mulliken charges:
               1
     1  C    0.155508
     2  O   -0.345241
     3  C   -0.035095
     4  C   -0.130418
     5  H    0.105374
     6  H    0.079182
     7  H    0.101932
     8  H    0.068757
 Sum of Mulliken charges =   0.00000

 Dipole moment (field-independent basis, Debye):
    X=             -3.4331    Y=              0.7740    Z=              0.1139  Tot=              3.5211
 Quadrupole moment (field-independent basis, Debye-Ang):
   XX=            -27.4474   YY=            -21.8365   ZZ=            -25.2614
   XY=              1.0941   XZ=              0.1088   YZ=             -0.1072

 Normal termination of Gaussian 09 at Wed Aug 26 20:33:36 2020.
