 Gaussian 09, Revision D.01,
 Gaussian 09:  ES64L-G09RevD.01 24-Apr-2013

 --------------------
 #p B2PLYPD3/Def2QZVP
 --------------------

 --------
 acrolein
 --------
 Symbolic Z-matrix:
 Charge =  0 Multiplicity = 1

                         Standard orientation:
 ---------------------------------------------------------------------
 Center     Atomic      Atomic             Coordinates (Angstroms)
 Number     Number       Type             X           Y           Z
 ---------------------------------------------------------------------
      1          6           0        0.641545    0.367458    0.105275
      2          8           0        1.777932   -0.160738   -0.072391
      3          6           0       -0.546045   -0.408447    0.032691
      4          6           0       -1.731962    0.155965   -0.066214
      5          1           0       -0.514210   -1.502612    0.115383
      6          1           0       -1.618513    1.048272   -0.135162
      7          1           0       -2.818600   -0.446977    0.061820
      8          1           0        0.546632    1.497359    0.106574
 ---------------------------------------------------------------------

 SCF Done:  E(RB2PLYPD3) =  -191.552243942     A.U. after   13 cycles
 E2(B2PLYPD3) =    -0.2508266564D+00 E(B2PLYPD3) =    -0.19180307059812D+03

 The electronic state is 1-A.
 Alpha  occ. eigenvalues --  -19.72896 -10.72440 -10.64930 -10.64092  -1.16568
 Alpha  occ. eigenvalues --   -0.95282  -0.76266  -0.67994  -0.57782  -0.54699
 Alpha  occ. eigenvalues --   -0.49067  -0.46648  -0.45556  -0.34839  -0.34054
 Alpha virt. eigenvalues --   -0.02895   0.05222   0.06460   0.07830   0.09847
 Alpha virt. eigenvalues --    0.11998   0.13949   0.15159   0.17088   0.19378
 Alpha virt. eigenvalues --    0.20818   0.21270   0.25404   0.25706   0.29017

 Mulliken charges:
               1
     1  C    0.130988
     2  O   -0.370968
     3  C    0.005539
     4  C   -0.164230
     5  H    0.100455
     6  H    0.108166
     7  H    0.112318
     8  H    0.077732
 Sum of Mulliken charges =   0.00000

 Dipole moment (field-independent basis, Debye):
    X=             -3.6982    Y=              0.8983    Z=              0.3609  Tot=              3.8228
 Quadrupole moment (field-independent basis, Debye-Ang):
   XX=            -27.4998   YY=            -21.8194   ZZ=            -25.1782
   XY=              1.7353   XZ=              0.2328   YZ=             -0.2644

 Normal termination of Gaussian 09 at Wed Aug 26 11:54:00 2020.
