 Gaussian 09, Revision D.01,
 Gaussian 09:  ES64L-G09RevD.01 24-Apr-2013

 --------------------
 #p B2PLYPD3/Def2QZVP
 --------------------

 --------
 acrolein
 --------
 Symbolic Z-matrix:
 Charge =  0 Multiplicity = 1

                         Standard orientation:
 ---------------------------------------------------------------------
 Center     Atomic      Atomic             Coordinates (Angstroms)
 Number     Number       Type             X           Y           Z
 ---------------------------------------------------------------------
      1          6           0       -0.662927    0.358606   -0.020671
      2          8           0       -1.781338   -0.126971    0.027071
      3          6           0        0.554616   -0.426245   -0.018211
      4          6           0        1.757146    0.139876    0.006677
      5          1           0        0.369103   -1.563422   -0.028121
      6          1           0        1.754800    1.115017    0.150734
      7          1           0        2.720645   -0.410624   -0.009794
      8          1           0       -0.486852    1.441377   -0.136161
 ---------------------------------------------------------------------

 SCF Done:  E(RB2PLYPD3) =  -191.603007673     A.U. after   13 cycles
 E2(B2PLYPD3) =    -0.2478040261D+00 E(B2PLYPD3) =    -0.19185081169862D+03

 The electronic state is 1-A.
 Alpha  occ. eigenvalues --  -19.72912 -10.71574 -10.64886 -10.64754  -1.19037
 Alpha  occ. eigenvalues --   -0.93679  -0.76266  -0.66821  -0.57063  -0.56390
 Alpha  occ. eigenvalues --   -0.50695  -0.46629  -0.46243  -0.34696  -0.34055
 Alpha virt. eigenvalues --   -0.02145   0.05813   0.06938   0.08164   0.09877
 Alpha virt. eigenvalues --    0.12675   0.13959   0.15318   0.16822   0.19555
 Alpha virt. eigenvalues --    0.20529   0.21820   0.25186   0.26676   0.29006

 Mulliken charges:
               1
     1  C    0.154020
     2  O   -0.355094
     3  C   -0.024922
     4  C   -0.135718
     5  H    0.096515
     6  H    0.087956
     7  H    0.107774
     8  H    0.069469
 Sum of Mulliken charges =   0.00000

 Dipole moment (field-independent basis, Debye):
    X=              3.5310    Y=              0.8162    Z=             -0.0298  Tot=              3.6243
 Quadrupole moment (field-independent basis, Debye-Ang):
   XX=            -27.3040   YY=            -21.9384   ZZ=            -25.1452
   XY=             -0.9344   XZ=              0.3318   YZ=              0.1538

 Normal termination of Gaussian 09 at Wed Aug 26 09:37:06 2020.
