 Gaussian 09, Revision D.01,
 Gaussian 09:  ES64L-G09RevD.01 24-Apr-2013

 --------------------
 #p B2PLYPD3/Def2QZVP
 --------------------

 --------
 acrolein
 --------
 Symbolic Z-matrix:
 Charge =  0 Multiplicity = 1

                         Standard orientation:
 ---------------------------------------------------------------------
 Center     Atomic      Atomic             Coordinates (Angstroms)
 Number     Number       Type             X           Y           Z
 ---------------------------------------------------------------------
      1          6           0        0.679737    0.344068   -0.038591
      2          8           0        1.795821   -0.105052    0.021662
      3          6           0       -0.553684   -0.456751   -0.032513
      4          6           0       -1.767922    0.148340    0.016716
      5          1           0       -0.436612   -1.581794    0.034756
      6          1           0       -1.857353    1.225858   -0.037847
      7          1           0       -2.716996   -0.392658    0.067552
      8          1           0        0.495610    1.375065    0.088571
 ---------------------------------------------------------------------

 SCF Done:  E(RB2PLYPD3) =  -191.610949187     A.U. after   12 cycles
 E2(B2PLYPD3) =    -0.2475028858D+00 E(B2PLYPD3) =    -0.19185845207304D+03

 The electronic state is 1-A.
 Alpha  occ. eigenvalues --  -19.72773 -10.71026 -10.66047 -10.65247  -1.19853
 Alpha  occ. eigenvalues --   -0.92336  -0.75741  -0.67126  -0.56738  -0.55921
 Alpha  occ. eigenvalues --   -0.50669  -0.46935  -0.46395  -0.34410  -0.33807
 Alpha virt. eigenvalues --   -0.02031   0.05721   0.07111   0.07986   0.09643
 Alpha virt. eigenvalues --    0.12604   0.14257   0.15339   0.17416   0.19569
 Alpha virt. eigenvalues --    0.20116   0.21517   0.24844   0.27006   0.28619

 Mulliken charges:
               1
     1  C    0.160817
     2  O   -0.346374
     3  C   -0.043361
     4  C   -0.134100
     5  H    0.101390
     6  H    0.083320
     7  H    0.103250
     8  H    0.075059
 Sum of Mulliken charges =   0.00000

 Dipole moment (field-independent basis, Debye):
    X=             -3.5024    Y=              0.7775    Z=             -0.0018  Tot=              3.5877
 Quadrupole moment (field-independent basis, Debye-Ang):
   XX=            -27.3196   YY=            -21.7913   ZZ=            -25.2873
   XY=              0.7437   XZ=             -0.2253   YZ=             -0.1220

 Normal termination of Gaussian 09 at Wed Aug 26 08:52:56 2020.
