 Gaussian 09, Revision D.01,
 Gaussian 09:  ES64L-G09RevD.01 24-Apr-2013

 --------------------
 #p B2PLYPD3/Def2QZVP
 --------------------

 --------
 acrolein
 --------
 Symbolic Z-matrix:
 Charge =  0 Multiplicity = 1

                         Standard orientation:
 ---------------------------------------------------------------------
 Center     Atomic      Atomic             Coordinates (Angstroms)
 Number     Number       Type             X           Y           Z
 ---------------------------------------------------------------------
      1          6           0        0.677698    0.345027   -0.013311
      2          8           0        1.775818   -0.128728    0.035234
      3          6           0       -0.544093   -0.414548   -0.052859
      4          6           0       -1.771782    0.134476    0.017622
      5          1           0       -0.403301   -1.507217   -0.062100
      6          1           0       -1.824363    1.156289    0.007652
      7          1           0       -2.705289   -0.445672    0.146658
      8          1           0        0.555473    1.436702   -0.082786
 ---------------------------------------------------------------------

 SCF Done:  E(RB2PLYPD3) =  -191.611688053     A.U. after   12 cycles
 E2(B2PLYPD3) =    -0.2466407254D+00 E(B2PLYPD3) =    -0.19185832877841D+03

 The electronic state is 1-A.
 Alpha  occ. eigenvalues --  -19.72678 -10.71049 -10.65484 -10.64424  -1.20367
 Alpha  occ. eigenvalues --   -0.93060  -0.76218  -0.66983  -0.57187  -0.56406
 Alpha  occ. eigenvalues --   -0.50833  -0.47510  -0.46552  -0.34489  -0.33813
 Alpha virt. eigenvalues --   -0.02101   0.05783   0.07196   0.08703   0.09828
 Alpha virt. eigenvalues --    0.12507   0.14010   0.15408   0.17459   0.19688
 Alpha virt. eigenvalues --    0.20122   0.21581   0.25485   0.26407   0.28836

 Mulliken charges:
               1
     1  C    0.153478
     2  O   -0.343512
     3  C   -0.028852
     4  C   -0.137174
     5  H    0.099055
     6  H    0.088375
     7  H    0.107693
     8  H    0.060937
 Sum of Mulliken charges =   0.00000

 Dipole moment (field-independent basis, Debye):
    X=             -3.4703    Y=              0.7708    Z=             -0.0321  Tot=              3.5550
 Quadrupole moment (field-independent basis, Debye-Ang):
   XX=            -27.0291   YY=            -22.0087   ZZ=            -25.1298
   XY=              1.0243   XZ=             -0.5486   YZ=             -0.0482

 Normal termination of Gaussian 09 at Wed Aug 26 08:48:30 2020.
