 Gaussian 09, Revision D.01,
 Gaussian 09:  ES64L-G09RevD.01 24-Apr-2013

 --------------------
 #p B2PLYPD3/Def2QZVP
 --------------------

 --------
 acrolein
 --------
 Symbolic Z-matrix:
 Charge =  0 Multiplicity = 1

                         Standard orientation:
 ---------------------------------------------------------------------
 Center     Atomic      Atomic             Coordinates (Angstroms)
 Number     Number       Type             X           Y           Z
 ---------------------------------------------------------------------
      1          6           0       -0.680613    0.362115    0.013513
      2          8           0       -1.781636   -0.131759   -0.010373
      3          6           0        0.553734   -0.453829   -0.009328
      4          6           0        1.755654    0.137760   -0.010962
      5          1           0        0.458851   -1.500487    0.064990
      6          1           0        1.828803    1.205796   -0.012924
      7          1           0        2.705485   -0.406859    0.026199
      8          1           0       -0.512702    1.479345    0.045376
 ---------------------------------------------------------------------

 SCF Done:  E(RB2PLYPD3) =  -191.615424953     A.U. after   12 cycles
 E2(B2PLYPD3) =    -0.2471569492D+00 E(B2PLYPD3) =    -0.19186258190240D+03

 The electronic state is 1-A.
 Alpha  occ. eigenvalues --  -19.72936 -10.71952 -10.65398 -10.64181  -1.19863
 Alpha  occ. eigenvalues --   -0.92689  -0.75031  -0.67190  -0.56462  -0.56335
 Alpha  occ. eigenvalues --   -0.50659  -0.47204  -0.46779  -0.34494  -0.33875
 Alpha virt. eigenvalues --   -0.01629   0.05760   0.07234   0.08017   0.09743
 Alpha virt. eigenvalues --    0.12498   0.14004   0.15363   0.17659   0.19859
 Alpha virt. eigenvalues --    0.19960   0.21408   0.25396   0.26381   0.28878

 Mulliken charges:
               1
     1  C    0.154302
     2  O   -0.342915
     3  C   -0.043758
     4  C   -0.130453
     5  H    0.110127
     6  H    0.081314
     7  H    0.099033
     8  H    0.072350
 Sum of Mulliken charges =   0.00000

 Dipole moment (field-independent basis, Debye):
    X=              3.4037    Y=              0.7901    Z=              0.1265  Tot=              3.4964
 Quadrupole moment (field-independent basis, Debye-Ang):
   XX=            -27.3181   YY=            -21.7736   ZZ=            -25.2407
   XY=             -0.9855   XZ=              0.0410   YZ=             -0.1093

 Normal termination of Gaussian 09 at Wed Aug 26 15:25:22 2020.
