 Gaussian 09, Revision D.01,
 Gaussian 09:  ES64L-G09RevD.01 24-Apr-2013

 --------------------
 #p B2PLYPD3/Def2QZVP
 --------------------

 --------
 acrolein
 --------
 Symbolic Z-matrix:
 Charge =  0 Multiplicity = 1

                         Standard orientation:
 ---------------------------------------------------------------------
 Center     Atomic      Atomic             Coordinates (Angstroms)
 Number     Number       Type             X           Y           Z
 ---------------------------------------------------------------------
      1          6           0        0.672549    0.369669    0.046801
      2          8           0        1.783343   -0.145860   -0.041624
      3          6           0       -0.559846   -0.437776    0.013866
      4          6           0       -1.747442    0.131185   -0.034199
      5          1           0       -0.538897   -1.448014    0.120278
      6          1           0       -1.778382    1.186065   -0.063368
      7          1           0       -2.666867   -0.398020    0.005185
      8          1           0        0.525839    1.448377    0.112091
 ---------------------------------------------------------------------

 SCF Done:  E(RB2PLYPD3) =  -191.610072245     A.U. after   12 cycles
 E2(B2PLYPD3) =    -0.2470454984D+00 E(B2PLYPD3) =    -0.19185711774340D+03

 The electronic state is 1-A.
 Alpha  occ. eigenvalues --  -19.72931 -10.71935 -10.64403 -10.63307  -1.18619
 Alpha  occ. eigenvalues --   -0.93661  -0.75620  -0.68289  -0.57395  -0.56483
 Alpha  occ. eigenvalues --   -0.50660  -0.47348  -0.46121  -0.34745  -0.34141
 Alpha virt. eigenvalues --   -0.01711   0.05844   0.07283   0.07970   0.09761
 Alpha virt. eigenvalues --    0.12631   0.14234   0.15288   0.17946   0.19716
 Alpha virt. eigenvalues --    0.20092   0.21466   0.25430   0.26467   0.29207

 Mulliken charges:
               1
     1  C    0.144927
     2  O   -0.352730
     3  C   -0.033971
     4  C   -0.127175
     5  H    0.106555
     6  H    0.073777
     7  H    0.099462
     8  H    0.089156
 Sum of Mulliken charges =   0.00000

 Dipole moment (field-independent basis, Debye):
    X=             -3.4792    Y=              0.8850    Z=              0.2549  Tot=              3.5991
 Quadrupole moment (field-independent basis, Debye-Ang):
   XX=            -27.4637   YY=            -21.7073   ZZ=            -25.0454
   XY=              1.3334   XZ=              0.1895   YZ=             -0.1721

 Normal termination of Gaussian 09 at Wed Aug 26 11:13:48 2020.
