 Gaussian 09, Revision D.01,
 Gaussian 09:  ES64L-G09RevD.01 24-Apr-2013

 --------------------
 #p B2PLYPD3/Def2QZVP
 --------------------

 --------
 acrolein
 --------
 Symbolic Z-matrix:
 Charge =  0 Multiplicity = 1

                         Standard orientation:
 ---------------------------------------------------------------------
 Center     Atomic      Atomic             Coordinates (Angstroms)
 Number     Number       Type             X           Y           Z
 ---------------------------------------------------------------------
      1          6           0       -0.664596    0.362775   -0.022469
      2          8           0       -1.786937   -0.135924    0.028244
      3          6           0        0.554921   -0.434403   -0.030213
      4          6           0        1.751578    0.137220    0.011558
      5          1           0        0.423963   -1.545531   -0.003930
      6          1           0        1.721170    1.177990    0.132867
      7          1           0        2.756257   -0.429163    0.005230
      8          1           0       -0.457313    1.490542   -0.113375
 ---------------------------------------------------------------------

 SCF Done:  E(RB2PLYPD3) =  -191.605884543     A.U. after   13 cycles
 E2(B2PLYPD3) =    -0.2491007261D+00 E(B2PLYPD3) =    -0.19185498526879D+03

 The electronic state is 1-A.
 Alpha  occ. eigenvalues --  -19.73151 -10.72405 -10.65841 -10.64580  -1.18642
 Alpha  occ. eigenvalues --   -0.93465  -0.75227  -0.66362  -0.56082  -0.55935
 Alpha  occ. eigenvalues --   -0.50271  -0.46505  -0.46135  -0.34753  -0.34103
 Alpha virt. eigenvalues --   -0.02120   0.05611   0.06729   0.07946   0.09846
 Alpha virt. eigenvalues --    0.12442   0.13613   0.15315   0.17060   0.19510
 Alpha virt. eigenvalues --    0.20385   0.21168   0.25335   0.26346   0.29130

 Mulliken charges:
               1
     1  C    0.155704
     2  O   -0.354285
     3  C   -0.027594
     4  C   -0.129017
     5  H    0.101298
     6  H    0.082021
     7  H    0.107348
     8  H    0.064525
 Sum of Mulliken charges =   0.00000

 Dipole moment (field-independent basis, Debye):
    X=              3.5447    Y=              0.7689    Z=             -0.0106  Tot=              3.6271
 Quadrupole moment (field-independent basis, Debye-Ang):
   XX=            -27.4493   YY=            -21.9384   ZZ=            -25.3179
   XY=             -1.1261   XZ=              0.3421   YZ=              0.0909

 Normal termination of Gaussian 09 at Wed Aug 26 09:51:45 2020.
