 Gaussian 09, Revision D.01,
 Gaussian 09:  ES64L-G09RevD.01 24-Apr-2013

 --------------------
 #p B2PLYPD3/Def2QZVP
 --------------------

 --------
 acrolein
 --------
 Symbolic Z-matrix:
 Charge =  0 Multiplicity = 1

                         Standard orientation:
 ---------------------------------------------------------------------
 Center     Atomic      Atomic             Coordinates (Angstroms)
 Number     Number       Type             X           Y           Z
 ---------------------------------------------------------------------
      1          6           0       -0.671585   -0.337838   -0.035829
      2          8           0       -1.779414    0.087273    0.029143
      3          6           0        0.574015    0.486865   -0.081323
      4          6           0        1.762134   -0.176785    0.028437
      5          1           0        0.444504    1.693455    0.112868
      6          1           0        1.809999   -1.297137   -0.047592
      7          1           0        2.497456    0.400030    0.134522
      8          1           0       -0.504035   -1.327987    0.099348
 ---------------------------------------------------------------------

 SCF Done:  E(RB2PLYPD3) =  -191.574294136     A.U. after   14 cycles
 E2(B2PLYPD3) =    -0.2471435921D+00 E(B2PLYPD3) =    -0.19182143772774D+03

 The electronic state is 1-A.
 Alpha  occ. eigenvalues --  -19.72465 -10.70310 -10.66019 -10.64687  -1.20640
 Alpha  occ. eigenvalues --   -0.92428  -0.76434  -0.66771  -0.57322  -0.56075
 Alpha  occ. eigenvalues --   -0.50650  -0.47304  -0.46222  -0.34290  -0.33486
 Alpha virt. eigenvalues --   -0.01505   0.05887   0.06490   0.07764   0.09652
 Alpha virt. eigenvalues --    0.12659   0.13963   0.15293   0.17255   0.19483
 Alpha virt. eigenvalues --    0.20134   0.22456   0.24027   0.27109   0.28413

 Mulliken charges:
               1
     1  C    0.162962
     2  O   -0.338238
     3  C   -0.055194
     4  C   -0.148419
     5  H    0.090869
     6  H    0.097465
     7  H    0.115769
     8  H    0.074787
 Sum of Mulliken charges =   0.00000

 Dipole moment (field-independent basis, Debye):
    X=              3.3358    Y=             -0.7802    Z=              0.1177  Tot=              3.4279
 Quadrupole moment (field-independent basis, Debye-Ang):
   XX=            -27.9179   YY=            -21.2962   ZZ=            -25.2277
   XY=              0.6886   XZ=              0.4674   YZ=              0.3532

 Normal termination of Gaussian 09 at Wed Aug 26 13:46:23 2020.
