 Gaussian 09, Revision D.01,
 Gaussian 09:  ES64L-G09RevD.01 24-Apr-2013

 --------------------
 #p B2PLYPD3/Def2QZVP
 --------------------

 --------
 acrolein
 --------
 Symbolic Z-matrix:
 Charge =  0 Multiplicity = 1

                         Standard orientation:
 ---------------------------------------------------------------------
 Center     Atomic      Atomic             Coordinates (Angstroms)
 Number     Number       Type             X           Y           Z
 ---------------------------------------------------------------------
      1          6           0       -0.642107    0.293656   -0.063403
      2          8           0       -1.828057   -0.089536    0.058143
      3          6           0        0.599610   -0.475062   -0.047090
      4          6           0        1.740484    0.161097    0.037164
      5          1           0        0.441683   -1.498146   -0.000377
      6          1           0        1.751172    1.232922    0.234583
      7          1           0        2.659184   -0.387089   -0.042618
      8          1           0       -0.415499    1.490456   -0.216760
 ---------------------------------------------------------------------

 SCF Done:  E(RB2PLYPD3) =  -191.597348480     A.U. after   14 cycles
 E2(B2PLYPD3) =    -0.2502164373D+00 E(B2PLYPD3) =    -0.19184756491726D+03

 The electronic state is 1-A.
 Alpha  occ. eigenvalues --  -19.73357 -10.73135 -10.65822 -10.64312  -1.17206
 Alpha  occ. eigenvalues --   -0.94632  -0.75970  -0.66448  -0.57139  -0.55254
 Alpha  occ. eigenvalues --   -0.49962  -0.47949  -0.45591  -0.35295  -0.33527
 Alpha virt. eigenvalues --   -0.02599   0.05661   0.06829   0.07795   0.09765
 Alpha virt. eigenvalues --    0.12467   0.13505   0.15219   0.16902   0.18871
 Alpha virt. eigenvalues --    0.20477   0.21582   0.24678   0.26556   0.28948

 Mulliken charges:
               1
     1  C    0.167463
     2  O   -0.362822
     3  C   -0.027489
     4  C   -0.108914
     5  H    0.103262
     6  H    0.093975
     7  H    0.104839
     8  H    0.029687
 Sum of Mulliken charges =   0.00000

 Dipole moment (field-independent basis, Debye):
    X=              3.8480    Y=              0.4227    Z=             -0.0923  Tot=              3.8722
 Quadrupole moment (field-independent basis, Debye-Ang):
   XX=            -27.7536   YY=            -22.1170   ZZ=            -25.1879
   XY=             -0.5447   XZ=              0.5036   YZ=              0.2523

 Normal termination of Gaussian 09 at Wed Aug 26 11:19:23 2020.
