 Gaussian 09, Revision D.01,
 Gaussian 09:  ES64L-G09RevD.01 24-Apr-2013

 --------------------
 #p B2PLYPD3/Def2QZVP
 --------------------

 --------
 acrolein
 --------
 Symbolic Z-matrix:
 Charge =  0 Multiplicity = 1

                         Standard orientation:
 ---------------------------------------------------------------------
 Center     Atomic      Atomic             Coordinates (Angstroms)
 Number     Number       Type             X           Y           Z
 ---------------------------------------------------------------------
      1          6           0        0.678793    0.350774    0.030707
      2          8           0        1.787587   -0.134278   -0.035037
      3          6           0       -0.555697   -0.425050    0.039418
      4          6           0       -1.749628    0.143410   -0.034568
      5          1           0       -0.501477   -1.454527    0.030457
      6          1           0       -1.804555    1.138817   -0.056789
      7          1           0       -2.744196   -0.433312   -0.003036
      8          1           0        0.508716    1.408446    0.096321
 ---------------------------------------------------------------------

 SCF Done:  E(RB2PLYPD3) =  -191.605527563     A.U. after   12 cycles
 E2(B2PLYPD3) =    -0.2464848831D+00 E(B2PLYPD3) =    -0.19185201244616D+03

 The electronic state is 1-A.
 Alpha  occ. eigenvalues --  -19.72878 -10.71329 -10.65005 -10.63436  -1.19495
 Alpha  occ. eigenvalues --   -0.93689  -0.75917  -0.68531  -0.57556  -0.56019
 Alpha  occ. eigenvalues --   -0.50637  -0.47222  -0.46817  -0.34797  -0.34054
 Alpha virt. eigenvalues --   -0.01827   0.05685   0.07370   0.08364   0.09751
 Alpha virt. eigenvalues --    0.12640   0.14018   0.15402   0.17958   0.19717
 Alpha virt. eigenvalues --    0.20233   0.21346   0.25651   0.26277   0.28834

 Mulliken charges:
               1
     1  C    0.141988
     2  O   -0.349206
     3  C   -0.025967
     4  C   -0.133228
     5  H    0.106573
     6  H    0.084447
     7  H    0.096075
     8  H    0.079319
 Sum of Mulliken charges =   0.00000

 Dipole moment (field-independent basis, Debye):
    X=             -3.4889    Y=              0.8399    Z=              0.1223  Tot=              3.5907
 Quadrupole moment (field-independent basis, Debye-Ang):
   XX=            -27.2691   YY=            -21.8872   ZZ=            -25.0381
   XY=              1.0957   XZ=              0.2510   YZ=             -0.0450

 Normal termination of Gaussian 09 at Wed Aug 26 09:32:48 2020.
