 Gaussian 09, Revision D.01,
 Gaussian 09:  ES64L-G09RevD.01 24-Apr-2013

 --------------------
 #p B2PLYPD3/Def2QZVP
 --------------------

 --------
 acrolein
 --------
 Symbolic Z-matrix:
 Charge =  0 Multiplicity = 1

                         Standard orientation:
 ---------------------------------------------------------------------
 Center     Atomic      Atomic             Coordinates (Angstroms)
 Number     Number       Type             X           Y           Z
 ---------------------------------------------------------------------
      1          6           0        0.673233    0.341526   -0.008588
      2          8           0        1.791854   -0.115368    0.023158
      3          6           0       -0.553908   -0.465148   -0.032741
      4          6           0       -1.759347    0.152394    0.011563
      5          1           0       -0.473834   -1.519505   -0.039512
      6          1           0       -1.856846    1.249162    0.012641
      7          1           0       -2.702089   -0.428168    0.089545
      8          1           0        0.538073    1.448823   -0.069342
 ---------------------------------------------------------------------

 SCF Done:  E(RB2PLYPD3) =  -191.614428410     A.U. after   13 cycles
 E2(B2PLYPD3) =    -0.2476652420D+00 E(B2PLYPD3) =    -0.19186209365181D+03

 The electronic state is 1-A.
 Alpha  occ. eigenvalues --  -19.72664 -10.71598 -10.66349 -10.64617  -1.19558
 Alpha  occ. eigenvalues --   -0.92533  -0.75019  -0.67096  -0.56455  -0.56038
 Alpha  occ. eigenvalues --   -0.50206  -0.47301  -0.46693  -0.34368  -0.33716
 Alpha virt. eigenvalues --   -0.01933   0.05647   0.07138   0.08100   0.09638
 Alpha virt. eigenvalues --    0.12405   0.14002   0.15366   0.17688   0.19647
 Alpha virt. eigenvalues --    0.19942   0.21272   0.25214   0.26236   0.28787

 Mulliken charges:
               1
     1  C    0.153978
     2  O   -0.346900
     3  C   -0.044244
     4  C   -0.129466
     5  H    0.110583
     6  H    0.087726
     7  H    0.098759
     8  H    0.069564
 Sum of Mulliken charges =   0.00000

 Dipole moment (field-independent basis, Debye):
    X=             -3.5229    Y=              0.7200    Z=             -0.0300  Tot=              3.5959
 Quadrupole moment (field-independent basis, Debye-Ang):
   XX=            -27.4557   YY=            -21.6847   ZZ=            -25.3228
   XY=              0.9139   XZ=             -0.3499   YZ=             -0.0200

 Normal termination of Gaussian 09 at Wed Aug 26 19:52:14 2020.
