 Gaussian 09, Revision D.01,
 Gaussian 09:  ES64L-G09RevD.01 24-Apr-2013

 --------------------
 #p B2PLYPD3/Def2QZVP
 --------------------

 --------
 acrolein
 --------
 Symbolic Z-matrix:
 Charge =  0 Multiplicity = 1

                         Standard orientation:
 ---------------------------------------------------------------------
 Center     Atomic      Atomic             Coordinates (Angstroms)
 Number     Number       Type             X           Y           Z
 ---------------------------------------------------------------------
      1          6           0        0.678809    0.339729   -0.024645
      2          8           0        1.790458   -0.107739    0.024268
      3          6           0       -0.558479   -0.472170   -0.025243
      4          6           0       -1.755248    0.145005    0.007335
      5          1           0       -0.461890   -1.512043   -0.021794
      6          1           0       -1.879957    1.259118    0.015151
      7          1           0       -2.669822   -0.396562    0.085212
      8          1           0        0.497512    1.436013   -0.017396
 ---------------------------------------------------------------------

 SCF Done:  E(RB2PLYPD3) =  -191.614623134     A.U. after   12 cycles
 E2(B2PLYPD3) =    -0.2468481504D+00 E(B2PLYPD3) =    -0.19186147128435D+03

 The electronic state is 1-A.
 Alpha  occ. eigenvalues --  -19.72795 -10.71497 -10.65857 -10.64336  -1.20176
 Alpha  occ. eigenvalues --   -0.92589  -0.75206  -0.67245  -0.56644  -0.56166
 Alpha  occ. eigenvalues --   -0.50811  -0.47195  -0.47013  -0.34492  -0.33710
 Alpha virt. eigenvalues --   -0.01649   0.05710   0.07370   0.08145   0.09634
 Alpha virt. eigenvalues --    0.12554   0.14098   0.15392   0.17736   0.19612
 Alpha virt. eigenvalues --    0.19947   0.21480   0.25268   0.26531   0.28564

 Mulliken charges:
               1
     1  C    0.158095
     2  O   -0.341692
     3  C   -0.047316
     4  C   -0.128295
     5  H    0.109818
     6  H    0.082352
     7  H    0.099213
     8  H    0.067826
 Sum of Mulliken charges =   0.00000

 Dipole moment (field-independent basis, Debye):
    X=             -3.4583    Y=              0.6876    Z=             -0.0191  Tot=              3.5261
 Quadrupole moment (field-independent basis, Debye-Ang):
   XX=            -27.3363   YY=            -21.7508   ZZ=            -25.2352
   XY=              0.7328   XZ=             -0.3461   YZ=             -0.0086

 Normal termination of Gaussian 09 at Wed Aug 26 17:39:17 2020.
