 Gaussian 09, Revision D.01,
 Gaussian 09:  ES64L-G09RevD.01 24-Apr-2013

 --------------------
 #p B2PLYPD3/Def2QZVP
 --------------------

 --------
 acrolein
 --------
 Symbolic Z-matrix:
 Charge =  0 Multiplicity = 1

                         Standard orientation:
 ---------------------------------------------------------------------
 Center     Atomic      Atomic             Coordinates (Angstroms)
 Number     Number       Type             X           Y           Z
 ---------------------------------------------------------------------
      1          6           0        0.653602    0.334612    0.025573
      2          8           0        1.803454   -0.112889   -0.035385
      3          6           0       -0.585399   -0.456214    0.008065
      4          6           0       -1.738008    0.169758   -0.007932
      5          1           0       -0.512218   -1.577770    0.126133
      6          1           0       -1.783430    1.188807   -0.088103
      7          1           0       -2.638441   -0.401234   -0.068157
      8          1           0        0.525288    1.404374    0.158972
 ---------------------------------------------------------------------

 SCF Done:  E(RB2PLYPD3) =  -191.609257425     A.U. after   13 cycles
 E2(B2PLYPD3) =    -0.2477282723D+00 E(B2PLYPD3) =    -0.19185698569714D+03

 The electronic state is 1-A.
 Alpha  occ. eigenvalues --  -19.72740 -10.71670 -10.64802 -10.64435  -1.17936
 Alpha  occ. eigenvalues --   -0.94014  -0.75891  -0.67162  -0.57387  -0.56258
 Alpha  occ. eigenvalues --   -0.50082  -0.47301  -0.45751  -0.35142  -0.33813
 Alpha virt. eigenvalues --   -0.01832   0.05867   0.06743   0.07906   0.09712
 Alpha virt. eigenvalues --    0.12869   0.14107   0.15050   0.17225   0.19639
 Alpha virt. eigenvalues --    0.20445   0.21786   0.25001   0.26686   0.28682

 Mulliken charges:
               1
     1  C    0.145716
     2  O   -0.360002
     3  C   -0.025928
     4  C   -0.125633
     5  H    0.098875
     6  H    0.088019
     7  H    0.100154
     8  H    0.078799
 Sum of Mulliken charges =   0.00000

 Dipole moment (field-independent basis, Debye):
    X=             -3.6502    Y=              0.7654    Z=              0.1450  Tot=              3.7324
 Quadrupole moment (field-independent basis, Debye-Ang):
   XX=            -27.8398   YY=            -21.5951   ZZ=            -25.1015
   XY=              0.9749   XZ=              0.4230   YZ=             -0.1883

 Normal termination of Gaussian 09 at Wed Aug 26 08:36:15 2020.
