 Gaussian 09, Revision D.01,
 Gaussian 09:  ES64L-G09RevD.01 24-Apr-2013

 --------------------
 #p B2PLYPD3/Def2QZVP
 --------------------

 --------
 acrolein
 --------
 Symbolic Z-matrix:
 Charge =  0 Multiplicity = 1

                         Standard orientation:
 ---------------------------------------------------------------------
 Center     Atomic      Atomic             Coordinates (Angstroms)
 Number     Number       Type             X           Y           Z
 ---------------------------------------------------------------------
      1          6           0        0.690940    0.373620   -0.054281
      2          8           0        1.744581   -0.153023    0.066604
      3          6           0       -0.513972   -0.412865   -0.046042
      4          6           0       -1.748265    0.118030    0.015109
      5          1           0       -0.447969   -1.388054   -0.195484
      6          1           0       -1.837502    1.162356    0.044635
      7          1           0       -2.799828   -0.453471    0.228091
      8          1           0        0.556437    1.430636   -0.098788
 ---------------------------------------------------------------------

 SCF Done:  E(RB2PLYPD3) =  -191.592350712     A.U. after   13 cycles
 E2(B2PLYPD3) =    -0.2460806980D+00 E(B2PLYPD3) =    -0.19183843140981D+03

 The electronic state is 1-A.
 Alpha  occ. eigenvalues --  -19.72607 -10.70673 -10.66203 -10.62935  -1.21315
 Alpha  occ. eigenvalues --   -0.92919  -0.75233  -0.68861  -0.57869  -0.55642
 Alpha  occ. eigenvalues --   -0.50694  -0.48014  -0.46073  -0.34289  -0.33860
 Alpha virt. eigenvalues --   -0.01645   0.05438   0.07492   0.08384   0.09693
 Alpha virt. eigenvalues --    0.12142   0.14005   0.15220   0.18648   0.19316
 Alpha virt. eigenvalues --    0.19836   0.21129   0.25624   0.26217   0.29267

 Mulliken charges:
               1
     1  C    0.147237
     2  O   -0.336162
     3  C   -0.042469
     4  C   -0.131419
     5  H    0.115654
     6  H    0.073890
     7  H    0.091845
     8  H    0.081424
 Sum of Mulliken charges =   0.00000

 Dipole moment (field-independent basis, Debye):
    X=             -3.2235    Y=              0.9234    Z=             -0.1855  Tot=              3.3582
 Quadrupole moment (field-independent basis, Debye-Ang):
   XX=            -26.9317   YY=            -21.9982   ZZ=            -25.0128
   XY=              1.1913   XZ=             -0.8650   YZ=              0.1291

 Normal termination of Gaussian 09 at Wed Aug 26 12:06:51 2020.
