 Gaussian 09, Revision D.01,
 Gaussian 09:  ES64L-G09RevD.01 24-Apr-2013

 --------------------
 #p B2PLYPD3/Def2QZVP
 --------------------

 --------
 acrolein
 --------
 Symbolic Z-matrix:
 Charge =  0 Multiplicity = 1

                         Standard orientation:
 ---------------------------------------------------------------------
 Center     Atomic      Atomic             Coordinates (Angstroms)
 Number     Number       Type             X           Y           Z
 ---------------------------------------------------------------------
      1          6           0        0.662152    0.346756    0.027221
      2          8           0        1.788062   -0.114007   -0.015880
      3          6           0       -0.561784   -0.458231   -0.001764
      4          6           0       -1.748947    0.144696   -0.012302
      5          1           0       -0.455099   -1.509088    0.018584
      6          1           0       -1.840587    1.256721   -0.053177
      7          1           0       -2.637806   -0.427773    0.047017
      8          1           0        0.520470    1.392875    0.035681
 ---------------------------------------------------------------------

 SCF Done:  E(RB2PLYPD3) =  -191.614034928     A.U. after   12 cycles
 E2(B2PLYPD3) =    -0.2468941892D+00 E(B2PLYPD3) =    -0.19186092911730D+03

 The electronic state is 1-A.
 Alpha  occ. eigenvalues --  -19.72560 -10.70952 -10.65556 -10.64071  -1.18962
 Alpha  occ. eigenvalues --   -0.93243  -0.75729  -0.67833  -0.56777  -0.56441
 Alpha  occ. eigenvalues --   -0.50507  -0.47232  -0.46455  -0.34672  -0.33827
 Alpha virt. eigenvalues --   -0.01776   0.05704   0.07308   0.08112   0.09713
 Alpha virt. eigenvalues --    0.12606   0.14067   0.15334   0.17714   0.19485
 Alpha virt. eigenvalues --    0.20026   0.21743   0.25434   0.26603   0.28852

 Mulliken charges:
               1
     1  C    0.154283
     2  O   -0.356610
     3  C   -0.041376
     4  C   -0.131140
     5  H    0.108202
     6  H    0.084621
     7  H    0.102199
     8  H    0.079821
 Sum of Mulliken charges =   0.00000

 Dipole moment (field-independent basis, Debye):
    X=             -3.5489    Y=              0.7703    Z=              0.0950  Tot=              3.6328
 Quadrupole moment (field-independent basis, Debye-Ang):
   XX=            -27.6490   YY=            -21.5613   ZZ=            -25.1411
   XY=              0.9390   XZ=              0.0268   YZ=             -0.1087

 Normal termination of Gaussian 09 at Wed Aug 26 19:03:32 2020.
