 Gaussian 09, Revision D.01,
 Gaussian 09:  ES64L-G09RevD.01 24-Apr-2013

 --------------------
 #p B2PLYPD3/Def2QZVP
 --------------------

 --------
 acrolein
 --------
 Symbolic Z-matrix:
 Charge =  0 Multiplicity = 1

                         Standard orientation:
 ---------------------------------------------------------------------
 Center     Atomic      Atomic             Coordinates (Angstroms)
 Number     Number       Type             X           Y           Z
 ---------------------------------------------------------------------
      1          6           0        0.676493    0.371289    0.038980
      2          8           0        1.774855   -0.146071   -0.023900
      3          6           0       -0.557717   -0.426294    0.019940
      4          6           0       -1.749493    0.117075   -0.015561
      5          1           0       -0.460084   -1.470958    0.003031
      6          1           0       -1.854585    1.221527   -0.014360
      7          1           0       -2.681332   -0.413788   -0.028435
      8          1           0        0.581468    1.459373   -0.029190
 ---------------------------------------------------------------------

 SCF Done:  E(RB2PLYPD3) =  -191.614364293     A.U. after   12 cycles
 E2(B2PLYPD3) =    -0.2466214315D+00 E(B2PLYPD3) =    -0.19186098572492D+03

 The electronic state is 1-A.
 Alpha  occ. eigenvalues --  -19.72795 -10.71597 -10.65065 -10.63667  -1.19320
 Alpha  occ. eigenvalues --   -0.93321  -0.75369  -0.67447  -0.56922  -0.56669
 Alpha  occ. eigenvalues --   -0.50827  -0.46714  -0.46121  -0.34952  -0.33966
 Alpha virt. eigenvalues --   -0.01539   0.05744   0.07374   0.08147   0.09718
 Alpha virt. eigenvalues --    0.12345   0.14268   0.15419   0.17772   0.19592
 Alpha virt. eigenvalues --    0.19921   0.21565   0.25712   0.26381   0.29044

 Mulliken charges:
               1
     1  C    0.155516
     2  O   -0.349887
     3  C   -0.047517
     4  C   -0.122441
     5  H    0.110069
     6  H    0.071519
     7  H    0.100779
     8  H    0.081963
 Sum of Mulliken charges =   0.00000

 Dipole moment (field-independent basis, Debye):
    X=             -3.4121    Y=              0.8640    Z=              0.0526  Tot=              3.5202
 Quadrupole moment (field-independent basis, Debye-Ang):
   XX=            -27.2597   YY=            -21.7707   ZZ=            -25.1091
   XY=              1.2343   XZ=              0.1917   YZ=             -0.0107

 Normal termination of Gaussian 09 at Wed Aug 26 20:59:33 2020.
