 Gaussian 09, Revision D.01,
 Gaussian 09:  ES64L-G09RevD.01 24-Apr-2013

 --------------------
 #p B2PLYPD3/Def2QZVP
 --------------------

 --------
 acrolein
 --------
 Symbolic Z-matrix:
 Charge =  0 Multiplicity = 1

                         Standard orientation:
 ---------------------------------------------------------------------
 Center     Atomic      Atomic             Coordinates (Angstroms)
 Number     Number       Type             X           Y           Z
 ---------------------------------------------------------------------
      1          6           0        0.650203    0.317895    0.033653
      2          8           0        1.806509   -0.100463   -0.028633
      3          6           0       -0.563275   -0.466186    0.002962
      4          6           0       -1.740274    0.163406   -0.024416
      5          1           0       -0.514411   -1.529600    0.096150
      6          1           0       -1.829440    1.205092   -0.025237
      7          1           0       -2.665622   -0.402411   -0.000096
      8          1           0        0.477475    1.439930    0.085053
 ---------------------------------------------------------------------

 SCF Done:  E(RB2PLYPD3) =  -191.612643568     A.U. after   12 cycles
 E2(B2PLYPD3) =    -0.2482434415D+00 E(B2PLYPD3) =    -0.19186088700995D+03

 The electronic state is 1-A.
 Alpha  occ. eigenvalues --  -19.72714 -10.71869 -10.65529 -10.64514  -1.18143
 Alpha  occ. eigenvalues --   -0.93847  -0.76038  -0.67178  -0.56693  -0.56404
 Alpha  occ. eigenvalues --   -0.49901  -0.47861  -0.46111  -0.34807  -0.33745
 Alpha virt. eigenvalues --   -0.02287   0.05734   0.06909   0.08166   0.09663
 Alpha virt. eigenvalues --    0.12754   0.14051   0.15137   0.17466   0.19951
 Alpha virt. eigenvalues --    0.20208   0.21454   0.25185   0.26398   0.28750

 Mulliken charges:
               1
     1  C    0.148412
     2  O   -0.358281
     3  C   -0.020042
     4  C   -0.124657
     5  H    0.103837
     6  H    0.092082
     7  H    0.097771
     8  H    0.060877
 Sum of Mulliken charges =   0.00000

 Dipole moment (field-independent basis, Debye):
    X=             -3.7810    Y=              0.6427    Z=              0.1960  Tot=              3.8402
 Quadrupole moment (field-independent basis, Debye-Ang):
   XX=            -27.5764   YY=            -21.7630   ZZ=            -25.1816
   XY=              0.7501   XZ=              0.1126   YZ=             -0.1468

 Normal termination of Gaussian 09 at Wed Aug 26 08:48:06 2020.
