 Gaussian 09, Revision D.01,
 Gaussian 09:  ES64L-G09RevD.01 24-Apr-2013

 --------------------
 #p B2PLYPD3/Def2QZVP
 --------------------

 --------
 acrolein
 --------
 Symbolic Z-matrix:
 Charge =  0 Multiplicity = 1

                         Standard orientation:
 ---------------------------------------------------------------------
 Center     Atomic      Atomic             Coordinates (Angstroms)
 Number     Number       Type             X           Y           Z
 ---------------------------------------------------------------------
      1          6           0        0.663117    0.324451   -0.037179
      2          8           0        1.786422   -0.099961    0.043961
      3          6           0       -0.545390   -0.451358   -0.052997
      4          6           0       -1.750493    0.147948    0.013834
      5          1           0       -0.398628   -1.559048   -0.041245
      6          1           0       -1.897273    1.243809    0.015268
      7          1           0       -2.743813   -0.430009    0.172725
      8          1           0        0.544933    1.418692   -0.040385
 ---------------------------------------------------------------------

 SCF Done:  E(RB2PLYPD3) =  -191.608753299     A.U. after   13 cycles
 E2(B2PLYPD3) =    -0.2477646509D+00 E(B2PLYPD3) =    -0.19185651794952D+03

 The electronic state is 1-A.
 Alpha  occ. eigenvalues --  -19.72441 -10.70929 -10.67154 -10.65084  -1.19776
 Alpha  occ. eigenvalues --   -0.92905  -0.75395  -0.66537  -0.56965  -0.55524
 Alpha  occ. eigenvalues --   -0.50066  -0.47092  -0.46068  -0.34600  -0.33622
 Alpha virt. eigenvalues --   -0.02149   0.05453   0.06927   0.08560   0.09611
 Alpha virt. eigenvalues --    0.12235   0.14104   0.15302   0.17418   0.19636
 Alpha virt. eigenvalues --    0.19813   0.21201   0.25132   0.26500   0.28623

 Mulliken charges:
               1
     1  C    0.156503
     2  O   -0.349142
     3  C   -0.031120
     4  C   -0.124192
     5  H    0.104171
     6  H    0.090007
     7  H    0.095913
     8  H    0.057860
 Sum of Mulliken charges =   0.00000

 Dipole moment (field-independent basis, Debye):
    X=             -3.5995    Y=              0.6875    Z=             -0.0306  Tot=              3.6647
 Quadrupole moment (field-independent basis, Debye-Ang):
   XX=            -27.2597   YY=            -21.8737   ZZ=            -25.3024
   XY=              0.6125   XZ=             -0.6519   YZ=             -0.0378

 Normal termination of Gaussian 09 at Wed Aug 26 09:14:53 2020.
