 Gaussian 09, Revision D.01,
 Gaussian 09:  ES64L-G09RevD.01 24-Apr-2013

 --------------------
 #p B2PLYPD3/Def2QZVP
 --------------------

 --------
 acrolein
 --------
 Symbolic Z-matrix:
 Charge =  0 Multiplicity = 1

                         Standard orientation:
 ---------------------------------------------------------------------
 Center     Atomic      Atomic             Coordinates (Angstroms)
 Number     Number       Type             X           Y           Z
 ---------------------------------------------------------------------
      1          6           0       -0.687419    0.345219    0.036802
      2          8           0       -1.783637   -0.109622   -0.044456
      3          6           0        0.575099   -0.473628    0.013825
      4          6           0        1.758547    0.145708   -0.011447
      5          1           0        0.444499   -1.501853    0.122771
      6          1           0        1.886703    1.265947   -0.111318
      7          1           0        2.615947   -0.379609   -0.060990
      8          1           0       -0.555413    1.388698    0.170109
 ---------------------------------------------------------------------

 SCF Done:  E(RB2PLYPD3) =  -191.608087583     A.U. after   12 cycles
 E2(B2PLYPD3) =    -0.2455124503D+00 E(B2PLYPD3) =    -0.19185360003294D+03

 The electronic state is 1-A.
 Alpha  occ. eigenvalues --  -19.72700 -10.70910 -10.64871 -10.64134  -1.20745
 Alpha  occ. eigenvalues --   -0.92520  -0.75459  -0.67834  -0.57055  -0.56476
 Alpha  occ. eigenvalues --   -0.51423  -0.47457  -0.46858  -0.34620  -0.33549
 Alpha virt. eigenvalues --   -0.01143   0.05859   0.07552   0.08026   0.09633
 Alpha virt. eigenvalues --    0.12701   0.14204   0.15291   0.17896   0.19351
 Alpha virt. eigenvalues --    0.20025   0.21904   0.24959   0.26898   0.28543

 Mulliken charges:
               1
     1  C    0.157564
     2  O   -0.337118
     3  C   -0.061852
     4  C   -0.127481
     5  H    0.109776
     6  H    0.078671
     7  H    0.100413
     8  H    0.080027
 Sum of Mulliken charges =   0.00000

 Dipole moment (field-independent basis, Debye):
    X=              3.2947    Y=              0.7456    Z=              0.1681  Tot=              3.3822
 Quadrupole moment (field-independent basis, Debye-Ang):
   XX=            -27.3728   YY=            -21.6447   ZZ=            -25.0763
   XY=             -0.7937   XZ=             -0.4979   YZ=             -0.2269

 Normal termination of Gaussian 09 at Wed Aug 26 09:37:31 2020.
