 Gaussian 09, Revision D.01,
 Gaussian 09:  ES64L-G09RevD.01 24-Apr-2013

 --------------------
 #p B2PLYPD3/Def2QZVP
 --------------------

 --------
 acrolein
 --------
 Symbolic Z-matrix:
 Charge =  0 Multiplicity = 1

                         Standard orientation:
 ---------------------------------------------------------------------
 Center     Atomic      Atomic             Coordinates (Angstroms)
 Number     Number       Type             X           Y           Z
 ---------------------------------------------------------------------
      1          6           0       -0.671169    0.345718    0.000274
      2          8           0       -1.783015   -0.125985   -0.006429
      3          6           0        0.549517   -0.439049    0.012938
      4          6           0        1.754094    0.139177   -0.012457
      5          1           0        0.452788   -1.521199    0.025498
      6          1           0        1.816595    1.195465    0.039045
      7          1           0        2.704387   -0.427311   -0.029146
      8          1           0       -0.504305    1.485856    0.011503
 ---------------------------------------------------------------------

 SCF Done:  E(RB2PLYPD3) =  -191.614548338     A.U. after   12 cycles
 E2(B2PLYPD3) =    -0.2474822936D+00 E(B2PLYPD3) =    -0.19186203063114D+03

 The electronic state is 1-A.
 Alpha  occ. eigenvalues --  -19.72896 -10.71897 -10.65629 -10.64383  -1.19780
 Alpha  occ. eigenvalues --   -0.93174  -0.75510  -0.66531  -0.56524  -0.56357
 Alpha  occ. eigenvalues --   -0.50425  -0.47150  -0.46765  -0.34674  -0.33851
 Alpha virt. eigenvalues --   -0.01942   0.05742   0.06985   0.08389   0.09781
 Alpha virt. eigenvalues --    0.12500   0.13937   0.15349   0.17359   0.19903
 Alpha virt. eigenvalues --    0.20057   0.21424   0.25532   0.26239   0.28851

 Mulliken charges:
               1
     1  C    0.154871
     2  O   -0.344232
     3  C   -0.029722
     4  C   -0.130264
     5  H    0.103245
     6  H    0.085611
     7  H    0.102984
     8  H    0.057507
 Sum of Mulliken charges =   0.00000

 Dipole moment (field-independent basis, Debye):
    X=              3.5138    Y=              0.7045    Z=              0.0477  Tot=              3.5840
 Quadrupole moment (field-independent basis, Debye-Ang):
   XX=            -27.2301   YY=            -21.9231   ZZ=            -25.2369
   XY=             -0.9699   XZ=             -0.0318   YZ=              0.0405

 Normal termination of Gaussian 09 at Wed Aug 26 19:58:05 2020.
