 Gaussian 09, Revision D.01,
 Gaussian 09:  ES64L-G09RevD.01 24-Apr-2013

 --------------------
 #p B2PLYPD3/Def2QZVP
 --------------------

 --------
 acrolein
 --------
 Symbolic Z-matrix:
 Charge =  0 Multiplicity = 1

                         Standard orientation:
 ---------------------------------------------------------------------
 Center     Atomic      Atomic             Coordinates (Angstroms)
 Number     Number       Type             X           Y           Z
 ---------------------------------------------------------------------
      1          6           0        0.669337    0.334894   -0.027953
      2          8           0        1.782588   -0.108614    0.022369
      3          6           0       -0.559241   -0.455857   -0.010113
      4          6           0       -1.754115    0.151170    0.005839
      5          1           0       -0.438105   -1.556345   -0.018020
      6          1           0       -1.831731    1.239825    0.071545
      7          1           0       -2.682023   -0.400632    0.010608
      8          1           0        0.555273    1.404827   -0.049722
 ---------------------------------------------------------------------

 SCF Done:  E(RB2PLYPD3) =  -191.615870079     A.U. after   12 cycles
 E2(B2PLYPD3) =    -0.2465448220D+00 E(B2PLYPD3) =    -0.19186241490075D+03

 The electronic state is 1-A.
 Alpha  occ. eigenvalues --  -19.72496 -10.70864 -10.65733 -10.64727  -1.20055
 Alpha  occ. eigenvalues --   -0.92841  -0.75506  -0.67045  -0.56802  -0.56357
 Alpha  occ. eigenvalues --   -0.50563  -0.47043  -0.46801  -0.34604  -0.33695
 Alpha virt. eigenvalues --   -0.01711   0.05765   0.07140   0.08402   0.09697
 Alpha virt. eigenvalues --    0.12580   0.14197   0.15358   0.17406   0.19705
 Alpha virt. eigenvalues --    0.20029   0.21535   0.25417   0.26426   0.28892

 Mulliken charges:
               1
     1  C    0.155004
     2  O   -0.345244
     3  C   -0.038437
     4  C   -0.131055
     5  H    0.102250
     6  H    0.085911
     7  H    0.103315
     8  H    0.068256
 Sum of Mulliken charges =   0.00000

 Dipole moment (field-independent basis, Debye):
    X=             -3.4807    Y=              0.7284    Z=             -0.0448  Tot=              3.5564
 Quadrupole moment (field-independent basis, Debye-Ang):
   XX=            -27.3472   YY=            -21.7234   ZZ=            -25.2017
   XY=              0.8769   XZ=             -0.2424   YZ=              0.0937

 Normal termination of Gaussian 09 at Wed Aug 26 10:04:46 2020.
