 Gaussian 09, Revision D.01,
 Gaussian 09:  ES64L-G09RevD.01 24-Apr-2013

 --------------------
 #p B2PLYPD3/Def2QZVP
 --------------------

 --------
 acrolein
 --------
 Symbolic Z-matrix:
 Charge =  0 Multiplicity = 1

                         Standard orientation:
 ---------------------------------------------------------------------
 Center     Atomic      Atomic             Coordinates (Angstroms)
 Number     Number       Type             X           Y           Z
 ---------------------------------------------------------------------
      1          6           0       -0.668922    0.341521    0.007612
      2          8           0       -1.804565   -0.097114    0.010194
      3          6           0        0.564101   -0.475216   -0.040586
      4          6           0        1.757751    0.153358    0.015591
      5          1           0        0.422198   -1.612694    0.001829
      6          1           0        1.907207    1.283331   -0.055495
      7          1           0        2.660836   -0.428199    0.093145
      8          1           0       -0.471301    1.416495   -0.016727
 ---------------------------------------------------------------------

 SCF Done:  E(RB2PLYPD3) =  -191.608686930     A.U. after   13 cycles
 E2(B2PLYPD3) =    -0.2486156381D+00 E(B2PLYPD3) =    -0.19185730256786D+03

 The electronic state is 1-A.
 Alpha  occ. eigenvalues --  -19.72798 -10.71578 -10.66478 -10.65561  -1.19006
 Alpha  occ. eigenvalues --   -0.92414  -0.75284  -0.66238  -0.56276  -0.55510
 Alpha  occ. eigenvalues --   -0.50265  -0.46531  -0.46281  -0.34489  -0.33754
 Alpha virt. eigenvalues --   -0.01992   0.05551   0.06824   0.07868   0.09577
 Alpha virt. eigenvalues --    0.12432   0.13973   0.15283   0.17159   0.19470
 Alpha virt. eigenvalues --    0.19999   0.21588   0.24868   0.26667   0.28249

 Mulliken charges:
               1
     1  C    0.164111
     2  O   -0.352374
     3  C   -0.044952
     4  C   -0.129733
     5  H    0.101774
     6  H    0.088226
     7  H    0.102340
     8  H    0.070608
 Sum of Mulliken charges =   0.00000

 Dipole moment (field-independent basis, Debye):
    X=              3.5897    Y=              0.7145    Z=              0.0166  Tot=              3.6602
 Quadrupole moment (field-independent basis, Debye-Ang):
   XX=            -27.6801   YY=            -21.5772   ZZ=            -25.4185
   XY=             -0.5644   XZ=              0.2003   YZ=             -0.1617

 Normal termination of Gaussian 09 at Wed Aug 26 09:08:18 2020.
