 Gaussian 09, Revision D.01,
 Gaussian 09:  ES64L-G09RevD.01 24-Apr-2013

 --------------------
 #p B2PLYPD3/Def2QZVP
 --------------------

 --------
 acrolein
 --------
 Symbolic Z-matrix:
 Charge =  0 Multiplicity = 1

                         Standard orientation:
 ---------------------------------------------------------------------
 Center     Atomic      Atomic             Coordinates (Angstroms)
 Number     Number       Type             X           Y           Z
 ---------------------------------------------------------------------
      1          6           0        0.690387    0.348875   -0.103647
      2          8           0        1.744742   -0.139580    0.079118
      3          6           0       -0.538250   -0.377879   -0.024186
      4          6           0       -1.759140    0.115676    0.021951
      5          1           0       -0.327325   -1.476842   -0.082149
      6          1           0       -1.781389    1.118542    0.321922
      7          1           0       -2.757177   -0.449828   -0.047097
      8          1           0        0.549980    1.404737   -0.190323
 ---------------------------------------------------------------------

 SCF Done:  E(RB2PLYPD3) =  -191.599069617     A.U. after   14 cycles
 E2(B2PLYPD3) =    -0.2456913777D+00 E(B2PLYPD3) =    -0.19184476099480D+03

 The electronic state is 1-A.
 Alpha  occ. eigenvalues --  -19.72841 -10.70447 -10.65412 -10.63729  -1.21880
 Alpha  occ. eigenvalues --   -0.93372  -0.76232  -0.67042  -0.57283  -0.56197
 Alpha  occ. eigenvalues --   -0.51713  -0.48123  -0.45203  -0.34769  -0.33713
 Alpha virt. eigenvalues --   -0.01893   0.05755   0.07354   0.08651   0.09949
 Alpha virt. eigenvalues --    0.12525   0.14073   0.15373   0.17183   0.19380
 Alpha virt. eigenvalues --    0.20214   0.21375   0.25054   0.27001   0.29067

 Mulliken charges:
               1
     1  C    0.164413
     2  O   -0.332469
     3  C   -0.026999
     4  C   -0.140871
     5  H    0.088349
     6  H    0.080242
     7  H    0.106845
     8  H    0.060490
 Sum of Mulliken charges =   0.00000

 Dipole moment (field-independent basis, Debye):
    X=             -3.1927    Y=              0.8123    Z=             -0.1877  Tot=              3.2998
 Quadrupole moment (field-independent basis, Debye-Ang):
   XX=            -26.7399   YY=            -22.3782   ZZ=            -24.9131
   XY=              1.1208   XZ=             -0.6955   YZ=              0.4474

 Normal termination of Gaussian 09 at Wed Aug 26 12:46:02 2020.
