 Gaussian 09, Revision D.01,
 Gaussian 09:  ES64L-G09RevD.01 24-Apr-2013

 --------------------
 #p B2PLYPD3/Def2QZVP
 --------------------

 --------
 acrolein
 --------
 Symbolic Z-matrix:
 Charge =  0 Multiplicity = 1

                         Standard orientation:
 ---------------------------------------------------------------------
 Center     Atomic      Atomic             Coordinates (Angstroms)
 Number     Number       Type             X           Y           Z
 ---------------------------------------------------------------------
      1          6           0       -0.668147    0.350031   -0.015134
      2          8           0       -1.789815   -0.126320    0.008836
      3          6           0        0.556392   -0.445960   -0.011758
      4          6           0        1.756036    0.133013   -0.004211
      5          1           0        0.456195   -1.496881    0.020967
      6          1           0        1.851454    1.252971    0.014893
      7          1           0        2.664836   -0.445554    0.048340
      8          1           0       -0.519644    1.477521    0.031727
 ---------------------------------------------------------------------

 SCF Done:  E(RB2PLYPD3) =  -191.614171454     A.U. after   13 cycles
 E2(B2PLYPD3) =    -0.2478261857D+00 E(B2PLYPD3) =    -0.19186199763964D+03

 The electronic state is 1-A.
 Alpha  occ. eigenvalues --  -19.72855 -10.71934 -10.65924 -10.64181  -1.19068
 Alpha  occ. eigenvalues --   -0.93158  -0.75364  -0.66744  -0.56585  -0.56081
 Alpha  occ. eigenvalues --   -0.50398  -0.46877  -0.46561  -0.34735  -0.33859
 Alpha virt. eigenvalues --   -0.01939   0.05654   0.07089   0.08186   0.09718
 Alpha virt. eigenvalues --    0.12380   0.13870   0.15344   0.17613   0.19497
 Alpha virt. eigenvalues --    0.19947   0.21563   0.25451   0.26369   0.28839

 Mulliken charges:
               1
     1  C    0.158354
     2  O   -0.351401
     3  C   -0.040509
     4  C   -0.125646
     5  H    0.108206
     6  H    0.082071
     7  H    0.103164
     8  H    0.065762
 Sum of Mulliken charges =   0.00000

 Dipole moment (field-independent basis, Debye):
    X=              3.5446    Y=              0.7199    Z=              0.0482  Tot=              3.6172
 Quadrupole moment (field-independent basis, Debye-Ang):
   XX=            -27.4746   YY=            -21.7580   ZZ=            -25.2595
   XY=             -1.0158   XZ=              0.1964   YZ=             -0.0276

 Normal termination of Gaussian 09 at Wed Aug 26 08:35:30 2020.
