 Gaussian 09, Revision D.01,
 Gaussian 09:  ES64L-G09RevD.01 24-Apr-2013

 --------------------
 #p B2PLYPD3/Def2QZVP
 --------------------

 --------
 acrolein
 --------
 Symbolic Z-matrix:
 Charge =  0 Multiplicity = 1

                         Standard orientation:
 ---------------------------------------------------------------------
 Center     Atomic      Atomic             Coordinates (Angstroms)
 Number     Number       Type             X           Y           Z
 ---------------------------------------------------------------------
      1          6           0        0.666152    0.347124   -0.002430
      2          8           0        1.791197   -0.102231   -0.007451
      3          6           0       -0.572569   -0.482454   -0.000891
      4          6           0       -1.751267    0.148270   -0.020492
      5          1           0       -0.421086   -1.592838    0.062814
      6          1           0       -1.861408    1.320830    0.002182
      7          1           0       -2.615238   -0.397948    0.045407
      8          1           0        0.514258    1.410157    0.092088
 ---------------------------------------------------------------------

 SCF Done:  E(RB2PLYPD3) =  -191.606033575     A.U. after   12 cycles
 E2(B2PLYPD3) =    -0.2476273490D+00 E(B2PLYPD3) =    -0.19185366092401D+03

 The electronic state is 1-A.
 Alpha  occ. eigenvalues --  -19.72676 -10.71305 -10.65798 -10.65116  -1.19343
 Alpha  occ. eigenvalues --   -0.92599  -0.75268  -0.66621  -0.56662  -0.55599
 Alpha  occ. eigenvalues --   -0.50642  -0.46645  -0.46263  -0.34658  -0.33689
 Alpha virt. eigenvalues --   -0.01534   0.05570   0.06953   0.07934   0.09605
 Alpha virt. eigenvalues --    0.12404   0.14129   0.15311   0.17256   0.19222
 Alpha virt. eigenvalues --    0.20025   0.21838   0.25127   0.26741   0.28618

 Mulliken charges:
               1
     1  C    0.163178
     2  O   -0.349996
     3  C   -0.053792
     4  C   -0.126901
     5  H    0.105237
     6  H    0.081594
     7  H    0.104822
     8  H    0.075858
 Sum of Mulliken charges =   0.00000

 Dipole moment (field-independent basis, Debye):
    X=             -3.4640    Y=              0.7178    Z=              0.1477  Tot=              3.5407
 Quadrupole moment (field-independent basis, Debye-Ang):
   XX=            -27.7602   YY=            -21.4565   ZZ=            -25.3174
   XY=              0.7395   XZ=             -0.1067   YZ=             -0.0764

 Normal termination of Gaussian 09 at Wed Aug 26 09:24:16 2020.
