 Gaussian 09, Revision D.01,
 Gaussian 09:  ES64L-G09RevD.01 24-Apr-2013

 --------------------
 #p B2PLYPD3/Def2QZVP
 --------------------

 --------
 acrolein
 --------
 Symbolic Z-matrix:
 Charge =  0 Multiplicity = 1

                         Standard orientation:
 ---------------------------------------------------------------------
 Center     Atomic      Atomic             Coordinates (Angstroms)
 Number     Number       Type             X           Y           Z
 ---------------------------------------------------------------------
      1          6           0        0.683412    0.343056   -0.030263
      2          8           0        1.782172   -0.135881    0.035876
      3          6           0       -0.540133   -0.428830   -0.043939
      4          6           0       -1.765974    0.140804    0.008901
      5          1           0       -0.481876   -1.477760   -0.027052
      6          1           0       -1.791434    1.156557    0.051578
      7          1           0       -2.744690   -0.449491    0.122167
      8          1           0        0.496795    1.527563   -0.041897
 ---------------------------------------------------------------------

 SCF Done:  E(RB2PLYPD3) =  -191.603593852     A.U. after   13 cycles
 E2(B2PLYPD3) =    -0.2479454581D+00 E(B2PLYPD3) =    -0.19185153931007D+03

 The electronic state is 1-A.
 Alpha  occ. eigenvalues --  -19.73149 -10.72365 -10.65830 -10.64171  -1.20425
 Alpha  occ. eigenvalues --   -0.93059  -0.75531  -0.66707  -0.56545  -0.56122
 Alpha  occ. eigenvalues --   -0.50267  -0.47461  -0.47246  -0.34460  -0.33859
 Alpha virt. eigenvalues --   -0.02172   0.05675   0.06951   0.08473   0.09809
 Alpha virt. eigenvalues --    0.12394   0.13677   0.15393   0.17585   0.19699
 Alpha virt. eigenvalues --    0.20224   0.21244   0.25366   0.26011   0.28867

 Mulliken charges:
               1
     1  C    0.153458
     2  O   -0.335625
     3  C   -0.024253
     4  C   -0.132526
     5  H    0.104239
     6  H    0.088064
     7  H    0.102728
     8  H    0.043916
 Sum of Mulliken charges =   0.00000

 Dipole moment (field-independent basis, Debye):
    X=             -3.4674    Y=              0.6471    Z=              0.0087  Tot=              3.5273
 Quadrupole moment (field-independent basis, Debye-Ang):
   XX=            -27.0086   YY=            -22.1476   ZZ=            -25.2662
   XY=              1.0886   XZ=             -0.5527   YZ=             -0.0021

 Normal termination of Gaussian 09 at Wed Aug 26 09:03:11 2020.
