 Gaussian 09, Revision D.01,
 Gaussian 09:  ES64L-G09RevD.01 24-Apr-2013

 --------------------
 #p B2PLYPD3/Def2QZVP
 --------------------

 --------
 acrolein
 --------
 Symbolic Z-matrix:
 Charge =  0 Multiplicity = 1

                         Standard orientation:
 ---------------------------------------------------------------------
 Center     Atomic      Atomic             Coordinates (Angstroms)
 Number     Number       Type             X           Y           Z
 ---------------------------------------------------------------------
      1          6           0       -0.681493    0.363800    0.019825
      2          8           0       -1.771647   -0.131845   -0.019361
      3          6           0        0.551701   -0.450375    0.013233
      4          6           0        1.752467    0.143256   -0.023565
      5          1           0        0.472994   -1.513914    0.019782
      6          1           0        1.816665    1.197720   -0.058808
      7          1           0        2.688953   -0.401852    0.056425
      8          1           0       -0.541484    1.432728    0.080528
 ---------------------------------------------------------------------

 SCF Done:  E(RB2PLYPD3) =  -191.616036625     A.U. after   12 cycles
 E2(B2PLYPD3) =    -0.2461921788D+00 E(B2PLYPD3) =    -0.19186222880380D+03

 The electronic state is 1-A.
 Alpha  occ. eigenvalues --  -19.72693 -10.71243 -10.65009 -10.64110  -1.20289
 Alpha  occ. eigenvalues --   -0.92653  -0.75226  -0.67708  -0.57074  -0.56287
 Alpha  occ. eigenvalues --   -0.50720  -0.47152  -0.47089  -0.34408  -0.33848
 Alpha virt. eigenvalues --   -0.01465   0.05839   0.07332   0.08136   0.09761
 Alpha virt. eigenvalues --    0.12608   0.14226   0.15470   0.17651   0.19674
 Alpha virt. eigenvalues --    0.20062   0.21586   0.25509   0.26409   0.28907

 Mulliken charges:
               1
     1  C    0.149672
     2  O   -0.341019
     3  C   -0.045613
     4  C   -0.133683
     5  H    0.108303
     6  H    0.080956
     7  H    0.099133
     8  H    0.082252
 Sum of Mulliken charges =   0.00000

 Dipole moment (field-independent basis, Debye):
    X=              3.3370    Y=              0.8400    Z=              0.1118  Tot=              3.4429
 Quadrupole moment (field-independent basis, Debye-Ang):
   XX=            -27.3370   YY=            -21.6626   ZZ=            -25.1548
   XY=             -1.0790   XZ=             -0.0353   YZ=             -0.0860

 Normal termination of Gaussian 09 at Wed Aug 26 15:32:41 2020.
