 Gaussian 09, Revision D.01,
 Gaussian 09:  ES64L-G09RevD.01 24-Apr-2013

 --------------------
 #p B2PLYPD3/Def2QZVP
 --------------------

 --------
 acrolein
 --------
 Symbolic Z-matrix:
 Charge =  0 Multiplicity = 1

                         Standard orientation:
 ---------------------------------------------------------------------
 Center     Atomic      Atomic             Coordinates (Angstroms)
 Number     Number       Type             X           Y           Z
 ---------------------------------------------------------------------
      1          6           0        0.670835    0.384426    0.079024
      2          8           0        1.796750   -0.142697   -0.061092
      3          6           0       -0.547267   -0.434779    0.097761
      4          6           0       -1.758887    0.123851   -0.057544
      5          1           0       -0.441586   -1.552649   -0.039060
      6          1           0       -1.906691    1.249302    0.039268
      7          1           0       -2.707366   -0.494887   -0.138523
      8          1           0        0.493561    1.498823   -0.088393
 ---------------------------------------------------------------------

 SCF Done:  E(RB2PLYPD3) =  -191.599682696     A.U. after   13 cycles
 E2(B2PLYPD3) =    -0.2511549833D+00 E(B2PLYPD3) =    -0.19185083767888D+03

 The electronic state is 1-A.
 Alpha  occ. eigenvalues --  -19.73130 -10.72771 -10.66866 -10.65323  -1.17393
 Alpha  occ. eigenvalues --   -0.92540  -0.75012  -0.65844  -0.55779  -0.55357
 Alpha  occ. eigenvalues --   -0.49658  -0.45867  -0.45371  -0.34688  -0.33908
 Alpha virt. eigenvalues --   -0.02539   0.05385   0.06491   0.07112   0.09680
 Alpha virt. eigenvalues --    0.12110   0.13687   0.15144   0.17538   0.19411
 Alpha virt. eigenvalues --    0.19892   0.21323   0.23739   0.27089   0.28610

 Mulliken charges:
               1
     1  C    0.165808
     2  O   -0.362804
     3  C   -0.048074
     4  C   -0.120839
     5  H    0.110348
     6  H    0.079444
     7  H    0.099425
     8  H    0.076693
 Sum of Mulliken charges =   0.00000

 Dipole moment (field-independent basis, Debye):
    X=             -3.6134    Y=              0.8698    Z=              0.0629  Tot=              3.7171
 Quadrupole moment (field-independent basis, Debye-Ang):
   XX=            -27.7133   YY=            -21.6589   ZZ=            -25.5208
   XY=              1.0848   XZ=              0.5685   YZ=              0.2090

 Normal termination of Gaussian 09 at Wed Aug 26 12:32:27 2020.
