 Gaussian 09, Revision D.01,
 Gaussian 09:  ES64L-G09RevD.01 24-Apr-2013

 --------------------
 #p B2PLYPD3/Def2QZVP
 --------------------

 --------
 acrolein
 --------
 Symbolic Z-matrix:
 Charge =  0 Multiplicity = 1

                         Standard orientation:
 ---------------------------------------------------------------------
 Center     Atomic      Atomic             Coordinates (Angstroms)
 Number     Number       Type             X           Y           Z
 ---------------------------------------------------------------------
      1          6           0       -0.678082    0.362157   -0.044926
      2          8           0       -1.793767   -0.144443    0.038010
      3          6           0        0.555646   -0.398476   -0.020098
      4          6           0        1.770961    0.124495    0.009808
      5          1           0        0.404765   -1.571011    0.004914
      6          1           0        1.733656    1.169472    0.268236
      7          1           0        2.724338   -0.501966   -0.077001
      8          1           0       -0.403777    1.529992   -0.168930
 ---------------------------------------------------------------------

 SCF Done:  E(RB2PLYPD3) =  -191.591292301     A.U. after   14 cycles
 E2(B2PLYPD3) =    -0.2505722901D+00 E(B2PLYPD3) =    -0.19184186459146D+03

 The electronic state is 1-A.
 Alpha  occ. eigenvalues --  -19.73700 -10.73126 -10.66165 -10.65024  -1.19035
 Alpha  occ. eigenvalues --   -0.93473  -0.75598  -0.64683  -0.56386  -0.55214
 Alpha  occ. eigenvalues --   -0.50853  -0.46729  -0.44854  -0.34771  -0.34119
 Alpha virt. eigenvalues --   -0.02603   0.05530   0.06273   0.07972   0.09968
 Alpha virt. eigenvalues --    0.12433   0.13125   0.15341   0.16349   0.19061
 Alpha virt. eigenvalues --    0.20451   0.21282   0.24658   0.26523   0.28776

 Mulliken charges:
               1
     1  C    0.166955
     2  O   -0.345336
     3  C   -0.022555
     4  C   -0.131377
     5  H    0.086839
     6  H    0.082556
     7  H    0.117274
     8  H    0.045645
 Sum of Mulliken charges =   0.00000

 Dipole moment (field-independent basis, Debye):
    X=              3.5172    Y=              0.6891    Z=             -0.0135  Tot=              3.5841
 Quadrupole moment (field-independent basis, Debye-Ang):
   XX=            -27.4021   YY=            -22.3138   ZZ=            -25.3654
   XY=             -1.2182   XZ=              0.3433   YZ=              0.2822

 Normal termination of Gaussian 09 at Wed Aug 26 12:40:54 2020.
