 Gaussian 09, Revision D.01,
 Gaussian 09:  ES64L-G09RevD.01 24-Apr-2013

 --------------------
 #p B2PLYPD3/Def2QZVP
 --------------------

 --------
 acrolein
 --------
 Symbolic Z-matrix:
 Charge =  0 Multiplicity = 1

                         Standard orientation:
 ---------------------------------------------------------------------
 Center     Atomic      Atomic             Coordinates (Angstroms)
 Number     Number       Type             X           Y           Z
 ---------------------------------------------------------------------
      1          6           0       -0.676708    0.358443    0.010527
      2          8           0       -1.775953   -0.132305   -0.022584
      3          6           0        0.552033   -0.448312    0.032634
      4          6           0        1.749890    0.140579   -0.013617
      5          1           0        0.466779   -1.506720    0.024850
      6          1           0        1.799608    1.219956   -0.030497
      7          1           0        2.709583   -0.423225   -0.060462
      8          1           0       -0.519640    1.464171    0.069514
 ---------------------------------------------------------------------

 SCF Done:  E(RB2PLYPD3) =  -191.615735046     A.U. after   12 cycles
 E2(B2PLYPD3) =    -0.2470109972D+00 E(B2PLYPD3) =    -0.19186274604341D+03

 The electronic state is 1-A.
 Alpha  occ. eigenvalues --  -19.72828 -10.71691 -10.65639 -10.64079  -1.19977
 Alpha  occ. eigenvalues --   -0.92857  -0.74934  -0.67156  -0.56556  -0.56199
 Alpha  occ. eigenvalues --   -0.50538  -0.47064  -0.46823  -0.34572  -0.33881
 Alpha virt. eigenvalues --   -0.01576   0.05732   0.07157   0.08145   0.09757
 Alpha virt. eigenvalues --    0.12467   0.13973   0.15395   0.17648   0.19713
 Alpha virt. eigenvalues --    0.20016   0.21277   0.25546   0.26276   0.28957

 Mulliken charges:
               1
     1  C    0.152954
     2  O   -0.343190
     3  C   -0.041094
     4  C   -0.130713
     5  H    0.108246
     6  H    0.081293
     7  H    0.100480
     8  H    0.072024
 Sum of Mulliken charges =   0.00000

 Dipole moment (field-independent basis, Debye):
    X=              3.3988    Y=              0.7775    Z=              0.0265  Tot=              3.4866
 Quadrupole moment (field-independent basis, Debye-Ang):
   XX=            -27.3605   YY=            -21.7611   ZZ=            -25.2335
   XY=             -1.0930   XZ=             -0.3060   YZ=              0.0085

 Normal termination of Gaussian 09 at Wed Aug 26 20:09:31 2020.
