 Gaussian 09, Revision D.01,
 Gaussian 09:  ES64L-G09RevD.01 24-Apr-2013

 --------------------
 #p B2PLYPD3/Def2QZVP
 --------------------

 --------
 acrolein
 --------
 Symbolic Z-matrix:
 Charge =  0 Multiplicity = 1

                         Standard orientation:
 ---------------------------------------------------------------------
 Center     Atomic      Atomic             Coordinates (Angstroms)
 Number     Number       Type             X           Y           Z
 ---------------------------------------------------------------------
      1          6           0       -0.688691    0.370316    0.007700
      2          8           0       -1.778073   -0.137188   -0.021642
      3          6           0        0.559807   -0.441273    0.010398
      4          6           0        1.766521    0.138445   -0.001094
      5          1           0        0.443177   -1.550795    0.056438
      6          1           0        1.879016    1.245058   -0.104802
      7          1           0        2.671341   -0.448523   -0.017266
      8          1           0       -0.594771    1.446835    0.136741
 ---------------------------------------------------------------------

 SCF Done:  E(RB2PLYPD3) =  -191.614090246     A.U. after   12 cycles
 E2(B2PLYPD3) =    -0.2469774673D+00 E(B2PLYPD3) =    -0.19186106771317D+03

 The electronic state is 1-A.
 Alpha  occ. eigenvalues --  -19.72756 -10.71475 -10.65569 -10.64829  -1.20094
 Alpha  occ. eigenvalues --   -0.92169  -0.74912  -0.66680  -0.56503  -0.56121
 Alpha  occ. eigenvalues --   -0.50648  -0.46929  -0.46185  -0.34463  -0.33822
 Alpha virt. eigenvalues --   -0.01474   0.05757   0.07080   0.07957   0.09669
 Alpha virt. eigenvalues --    0.12382   0.14115   0.15402   0.17470   0.19273
 Alpha virt. eigenvalues --    0.20069   0.21645   0.25196   0.26513   0.28699

 Mulliken charges:
               1
     1  C    0.158750
     2  O   -0.340962
     3  C   -0.058497
     4  C   -0.130149
     5  H    0.105266
     6  H    0.081244
     7  H    0.102408
     8  H    0.081939
 Sum of Mulliken charges =   0.00000

 Dipole moment (field-independent basis, Debye):
    X=              3.3032    Y=              0.8508    Z=              0.0505  Tot=              3.4114
 Quadrupole moment (field-independent basis, Debye-Ang):
   XX=            -27.4473   YY=            -21.5970   ZZ=            -25.3006
   XY=             -1.1433   XZ=             -0.3128   YZ=             -0.1396

 Normal termination of Gaussian 09 at Wed Aug 26 08:53:58 2020.
