 Gaussian 09, Revision D.01,
 Gaussian 09:  ES64L-G09RevD.01 24-Apr-2013

 --------------------
 #p B2PLYPD3/Def2QZVP
 --------------------

 --------
 acrolein
 --------
 Symbolic Z-matrix:
 Charge =  0 Multiplicity = 1

                         Standard orientation:
 ---------------------------------------------------------------------
 Center     Atomic      Atomic             Coordinates (Angstroms)
 Number     Number       Type             X           Y           Z
 ---------------------------------------------------------------------
      1          6           0        0.682202    0.356573   -0.004663
      2          8           0        1.789522   -0.134430    0.029992
      3          6           0       -0.548643   -0.435483   -0.051440
      4          6           0       -1.760458    0.134467    0.007466
      5          1           0       -0.430062   -1.492090   -0.045320
      6          1           0       -1.797635    1.135085    0.021877
      7          1           0       -2.791945   -0.411339    0.158416
      8          1           0        0.464854    1.510445   -0.083082
 ---------------------------------------------------------------------

 SCF Done:  E(RB2PLYPD3) =  -191.600646376     A.U. after   12 cycles
 E2(B2PLYPD3) =    -0.2483115933D+00 E(B2PLYPD3) =    -0.19184895796930D+03

 The electronic state is 1-A.
 Alpha  occ. eigenvalues --  -19.73289 -10.72529 -10.65733 -10.64317  -1.19782
 Alpha  occ. eigenvalues --   -0.93105  -0.75389  -0.66933  -0.56527  -0.55831
 Alpha  occ. eigenvalues --   -0.50401  -0.47178  -0.46695  -0.34652  -0.33916
 Alpha virt. eigenvalues --   -0.02082   0.05570   0.07031   0.08114   0.09767
 Alpha virt. eigenvalues --    0.12342   0.13777   0.15355   0.17430   0.19514
 Alpha virt. eigenvalues --    0.20293   0.21434   0.25315   0.26100   0.28748

 Mulliken charges:
               1
     1  C    0.155895
     2  O   -0.343192
     3  C   -0.028317
     4  C   -0.131393
     5  H    0.107141
     6  H    0.086453
     7  H    0.098426
     8  H    0.054987
 Sum of Mulliken charges =   0.00000

 Dipole moment (field-independent basis, Debye):
    X=             -3.4682    Y=              0.7456    Z=              0.0245  Tot=              3.5476
 Quadrupole moment (field-independent basis, Debye-Ang):
   XX=            -27.1035   YY=            -22.1317   ZZ=            -25.2622
   XY=              0.8689   XZ=             -0.5723   YZ=             -0.0537

 Normal termination of Gaussian 09 at Wed Aug 26 09:54:45 2020.
