 Gaussian 09, Revision D.01,
 Gaussian 09:  ES64L-G09RevD.01 24-Apr-2013

 --------------------
 #p B2PLYPD3/Def2QZVP
 --------------------

 --------
 acrolein
 --------
 Symbolic Z-matrix:
 Charge =  0 Multiplicity = 1

                         Standard orientation:
 ---------------------------------------------------------------------
 Center     Atomic      Atomic             Coordinates (Angstroms)
 Number     Number       Type             X           Y           Z
 ---------------------------------------------------------------------
      1          6           0        0.684558   -0.350761    0.076561
      2          8           0        1.777150    0.116575   -0.080893
      3          6           0       -0.571913    0.468585    0.025423
      4          6           0       -1.760737   -0.165688   -0.081032
      5          1           0       -0.444603    1.571951    0.248586
      6          1           0       -1.821680   -1.232065   -0.047101
      7          1           0       -2.756980    0.353535    0.037873
      8          1           0        0.694614   -1.338840    0.282072
 ---------------------------------------------------------------------

 SCF Done:  E(RB2PLYPD3) =  -191.599270399     A.U. after   12 cycles
 E2(B2PLYPD3) =    -0.2468395899D+00 E(B2PLYPD3) =    -0.19184610998912D+03

 The electronic state is 1-A.
 Alpha  occ. eigenvalues --  -19.72396 -10.70513 -10.65757 -10.65527  -1.20231
 Alpha  occ. eigenvalues --   -0.91808  -0.74783  -0.68041  -0.57344  -0.55441
 Alpha  occ. eigenvalues --   -0.50804  -0.46905  -0.45768  -0.34255  -0.33655
 Alpha virt. eigenvalues --   -0.01445   0.05793   0.06623   0.08141   0.09496
 Alpha virt. eigenvalues --    0.12403   0.14491   0.15205   0.17709   0.19153
 Alpha virt. eigenvalues --    0.20064   0.21253   0.24635   0.26859   0.29437

 Mulliken charges:
               1
     1  C    0.154433
     2  O   -0.339212
     3  C   -0.053517
     4  C   -0.124925
     5  H    0.106315
     6  H    0.081226
     7  H    0.091126
     8  H    0.084553
 Sum of Mulliken charges =   0.00000

 Dipole moment (field-independent basis, Debye):
    X=             -3.2372    Y=             -0.8896    Z=              0.6042  Tot=              3.4111
 Quadrupole moment (field-independent basis, Debye-Ang):
   XX=            -27.4626   YY=            -21.6075   ZZ=            -25.2378
   XY=             -1.0007   XZ=              0.2939   YZ=              0.3345

 Normal termination of Gaussian 09 at Wed Aug 26 12:06:37 2020.
