 Gaussian 09, Revision D.01,
 Gaussian 09:  ES64L-G09RevD.01 24-Apr-2013

 --------------------
 #p B2PLYPD3/Def2QZVP
 --------------------

 --------
 acrolein
 --------
 Symbolic Z-matrix:
 Charge =  0 Multiplicity = 1

                         Standard orientation:
 ---------------------------------------------------------------------
 Center     Atomic      Atomic             Coordinates (Angstroms)
 Number     Number       Type             X           Y           Z
 ---------------------------------------------------------------------
      1          6           0       -0.672885    0.333166    0.018367
      2          8           0       -1.795023   -0.100678   -0.020739
      3          6           0        0.559071   -0.477221    0.047157
      4          6           0        1.754648    0.139199   -0.032045
      5          1           0        0.475600   -1.490443   -0.030881
      6          1           0        1.893224    1.303075    0.039500
      7          1           0        2.641685   -0.388044   -0.040219
      8          1           0       -0.495327    1.409971   -0.003358
 ---------------------------------------------------------------------

 SCF Done:  E(RB2PLYPD3) =  -191.606605708     A.U. after   13 cycles
 E2(B2PLYPD3) =    -0.2470115998D+00 E(B2PLYPD3) =    -0.19185361730776D+03

 The electronic state is 1-A.
 Alpha  occ. eigenvalues --  -19.72694 -10.71274 -10.66107 -10.64126  -1.19829
 Alpha  occ. eigenvalues --   -0.92842  -0.75547  -0.67623  -0.56969  -0.56045
 Alpha  occ. eigenvalues --   -0.50860  -0.46993  -0.46820  -0.34591  -0.33715
 Alpha virt. eigenvalues --   -0.01804   0.05615   0.07445   0.08055   0.09589
 Alpha virt. eigenvalues --    0.12495   0.14056   0.15340   0.17943   0.19411
 Alpha virt. eigenvalues --    0.19939   0.21557   0.24873   0.26707   0.28596

 Mulliken charges:
               1
     1  C    0.158149
     2  O   -0.345408
     3  C   -0.050945
     4  C   -0.122050
     5  H    0.111279
     6  H    0.076845
     7  H    0.100889
     8  H    0.071242
 Sum of Mulliken charges =   0.00000

 Dipole moment (field-independent basis, Debye):
    X=              3.5324    Y=              0.6569    Z=              0.0282  Tot=              3.5931
 Quadrupole moment (field-independent basis, Debye-Ang):
   XX=            -27.3746   YY=            -21.7366   ZZ=            -25.2027
   XY=             -0.7565   XZ=             -0.1688   YZ=              0.1438

 Normal termination of Gaussian 09 at Wed Aug 26 20:41:36 2020.
