 Gaussian 09, Revision D.01,
 Gaussian 09:  ES64L-G09RevD.01 24-Apr-2013

 --------------------
 #p B2PLYPD3/Def2QZVP
 --------------------

 --------
 acrolein
 --------
 Symbolic Z-matrix:
 Charge =  0 Multiplicity = 1

                         Standard orientation:
 ---------------------------------------------------------------------
 Center     Atomic      Atomic             Coordinates (Angstroms)
 Number     Number       Type             X           Y           Z
 ---------------------------------------------------------------------
      1          6           0       -0.680181   -0.321914   -0.028901
      2          8           0       -1.804456    0.092917    0.038914
      3          6           0        0.576867    0.437138   -0.101831
      4          6           0        1.767860   -0.146134    0.025001
      5          1           0        0.468565    1.593125    0.099561
      6          1           0        1.928794   -1.234134   -0.002895
      7          1           0        2.552551    0.405572    0.197620
      8          1           0       -0.501543   -1.322446    0.028792
 ---------------------------------------------------------------------

 SCF Done:  E(RB2PLYPD3) =  -191.593564431     A.U. after   14 cycles
 E2(B2PLYPD3) =    -0.2464652814D+00 E(B2PLYPD3) =    -0.19184002971191D+03

 The electronic state is 1-A.
 Alpha  occ. eigenvalues --  -19.72740 -10.70536 -10.65224 -10.64726  -1.20015
 Alpha  occ. eigenvalues --   -0.93307  -0.77232  -0.67022  -0.57395  -0.56700
 Alpha  occ. eigenvalues --   -0.51432  -0.47072  -0.45810  -0.34904  -0.33785
 Alpha virt. eigenvalues --   -0.01907   0.05901   0.06905   0.08316   0.09609
 Alpha virt. eigenvalues --    0.12879   0.13953   0.15348   0.17622   0.19608
 Alpha virt. eigenvalues --    0.19879   0.22580   0.24174   0.27087   0.28010

 Mulliken charges:
               1
     1  C    0.162812
     2  O   -0.344943
     3  C   -0.039466
     4  C   -0.125628
     5  H    0.084540
     6  H    0.083838
     7  H    0.108317
     8  H    0.070531
 Sum of Mulliken charges =   0.00000

 Dipole moment (field-independent basis, Debye):
    X=              3.5594    Y=             -0.7907    Z=              0.1502  Tot=              3.6492
 Quadrupole moment (field-independent basis, Debye-Ang):
   XX=            -27.3714   YY=            -21.8752   ZZ=            -25.0166
   XY=              0.6143   XZ=              0.7470   YZ=              0.3229

 Normal termination of Gaussian 09 at Wed Aug 26 15:00:37 2020.
