 Gaussian 09, Revision D.01,
 Gaussian 09:  ES64L-G09RevD.01 24-Apr-2013

 --------------------
 #p B2PLYPD3/Def2QZVP
 --------------------

 --------
 acrolein
 --------
 Symbolic Z-matrix:
 Charge =  0 Multiplicity = 1

                         Standard orientation:
 ---------------------------------------------------------------------
 Center     Atomic      Atomic             Coordinates (Angstroms)
 Number     Number       Type             X           Y           Z
 ---------------------------------------------------------------------
      1          6           0       -0.659162    0.340631    0.012527
      2          8           0       -1.782251   -0.126172   -0.017425
      3          6           0        0.534288   -0.418577    0.019068
      4          6           0        1.758900    0.124570   -0.023411
      5          1           0        0.413299   -1.528528    0.068809
      6          1           0        1.786611    1.178005    0.074878
      7          1           0        2.749955   -0.419502   -0.062125
      8          1           0       -0.496015    1.499657    0.008738
 ---------------------------------------------------------------------

 SCF Done:  E(RB2PLYPD3) =  -191.606873600     A.U. after   13 cycles
 E2(B2PLYPD3) =    -0.2486894097D+00 E(B2PLYPD3) =    -0.19185556300929D+03

 The electronic state is 1-A.
 Alpha  occ. eigenvalues --  -19.72864 -10.71888 -10.66311 -10.64646  -1.19271
 Alpha  occ. eigenvalues --   -0.93609  -0.76160  -0.65955  -0.56649  -0.56114
 Alpha  occ. eigenvalues --   -0.50342  -0.47176  -0.45884  -0.34641  -0.33928
 Alpha virt. eigenvalues --   -0.02560   0.05615   0.06743   0.08634   0.09797
 Alpha virt. eigenvalues --    0.12337   0.13928   0.15288   0.17098   0.19803
 Alpha virt. eigenvalues --    0.20205   0.21219   0.25485   0.26241   0.29127

 Mulliken charges:
               1
     1  C    0.155483
     2  O   -0.349465
     3  C   -0.018131
     4  C   -0.125003
     5  H    0.097941
     6  H    0.083284
     7  H    0.108607
     8  H    0.047284
 Sum of Mulliken charges =   0.00000

 Dipole moment (field-independent basis, Debye):
    X=              3.6722    Y=              0.6731    Z=              0.1207  Tot=              3.7353
 Quadrupole moment (field-independent basis, Debye-Ang):
   XX=            -26.9745   YY=            -22.1824   ZZ=            -25.2642
   XY=             -1.0005   XZ=             -0.0975   YZ=              0.0396

 Normal termination of Gaussian 09 at Wed Aug 26 09:17:58 2020.
