 Gaussian 09, Revision D.01,
 Gaussian 09:  ES64L-G09RevD.01 24-Apr-2013

 --------------------
 #p B2PLYPD3/Def2QZVP
 --------------------

 --------
 acrolein
 --------
 Symbolic Z-matrix:
 Charge =  0 Multiplicity = 1

                         Standard orientation:
 ---------------------------------------------------------------------
 Center     Atomic      Atomic             Coordinates (Angstroms)
 Number     Number       Type             X           Y           Z
 ---------------------------------------------------------------------
      1          6           0        0.684763    0.361034   -0.028198
      2          8           0        1.776207   -0.131468    0.024504
      3          6           0       -0.557005   -0.446392   -0.021402
      4          6           0       -1.749619    0.141093    0.002265
      5          1           0       -0.463931   -1.522941   -0.013770
      6          1           0       -1.829199    1.218100    0.050366
      7          1           0       -2.696051   -0.428367    0.068786
      8          1           0        0.510693    1.450542   -0.017403
 ---------------------------------------------------------------------

 SCF Done:  E(RB2PLYPD3) =  -191.616519226     A.U. after   12 cycles
 E2(B2PLYPD3) =    -0.2465746959D+00 E(B2PLYPD3) =    -0.19186309392183D+03

 The electronic state is 1-A.
 Alpha  occ. eigenvalues --  -19.72917 -10.71593 -10.65355 -10.64162  -1.20364
 Alpha  occ. eigenvalues --   -0.92724  -0.74929  -0.67077  -0.56624  -0.56198
 Alpha  occ. eigenvalues --   -0.50761  -0.47207  -0.46598  -0.34647  -0.33874
 Alpha virt. eigenvalues --   -0.01380   0.05759   0.07200   0.08154   0.09750
 Alpha virt. eigenvalues --    0.12544   0.14035   0.15408   0.17610   0.19795
 Alpha virt. eigenvalues --    0.19884   0.21457   0.25584   0.26435   0.28676

 Mulliken charges:
               1
     1  C    0.155776
     2  O   -0.339416
     3  C   -0.043446
     4  C   -0.131938
     5  H    0.105458
     6  H    0.080449
     7  H    0.098872
     8  H    0.074245
 Sum of Mulliken charges =   0.00000

 Dipole moment (field-independent basis, Debye):
    X=             -3.3238    Y=              0.8004    Z=             -0.0013  Tot=              3.4189
 Quadrupole moment (field-independent basis, Debye-Ang):
   XX=            -27.3788   YY=            -21.7426   ZZ=            -25.2104
   XY=              1.0201   XZ=             -0.3635   YZ=              0.0272

 Normal termination of Gaussian 09 at Wed Aug 26 14:41:49 2020.
