 Gaussian 09, Revision D.01,
 Gaussian 09:  ES64L-G09RevD.01 24-Apr-2013

 --------------------
 #p B2PLYPD3/Def2QZVP
 --------------------

 --------
 acrolein
 --------
 Symbolic Z-matrix:
 Charge =  0 Multiplicity = 1

                         Standard orientation:
 ---------------------------------------------------------------------
 Center     Atomic      Atomic             Coordinates (Angstroms)
 Number     Number       Type             X           Y           Z
 ---------------------------------------------------------------------
      1          6           0        0.689521    0.401592   -0.028421
      2          8           0        1.746765   -0.169357    0.033973
      3          6           0       -0.530135   -0.422436   -0.030853
      4          6           0       -1.759926    0.106779    0.023580
      5          1           0       -0.418654   -1.503860   -0.124104
      6          1           0       -1.764058    1.255920   -0.084772
      7          1           0       -2.767830   -0.431591    0.148018
      8          1           0        0.579659    1.518773    0.003238
 ---------------------------------------------------------------------

 SCF Done:  E(RB2PLYPD3) =  -191.603729647     A.U. after   13 cycles
 E2(B2PLYPD3) =    -0.2481556584D+00 E(B2PLYPD3) =    -0.19185188530543D+03

 The electronic state is 1-A.
 Alpha  occ. eigenvalues --  -19.72884 -10.71958 -10.66506 -10.64305  -1.20305
 Alpha  occ. eigenvalues --   -0.92045  -0.74185  -0.66483  -0.56109  -0.55760
 Alpha  occ. eigenvalues --   -0.50626  -0.47341  -0.44863  -0.34206  -0.33968
 Alpha virt. eigenvalues --   -0.01516   0.05494   0.06993   0.07856   0.09744
 Alpha virt. eigenvalues --    0.11759   0.13994   0.15412   0.17589   0.19268
 Alpha virt. eigenvalues --    0.19872   0.20964   0.25598   0.26191   0.29501

 Mulliken charges:
               1
     1  C    0.160502
     2  O   -0.338303
     3  C   -0.055918
     4  C   -0.127854
     5  H    0.108984
     6  H    0.063668
     7  H    0.107814
     8  H    0.081108
 Sum of Mulliken charges =   0.00000

 Dipole moment (field-independent basis, Debye):
    X=             -3.1897    Y=              0.9156    Z=             -0.1478  Tot=              3.3218
 Quadrupole moment (field-independent basis, Debye-Ang):
   XX=            -27.1753   YY=            -21.8133   ZZ=            -25.3873
   XY=              1.5987   XZ=             -0.3655   YZ=             -0.0326

 Normal termination of Gaussian 09 at Wed Aug 26 11:16:49 2020.
