 Gaussian 09, Revision D.01,
 Gaussian 09:  ES64L-G09RevD.01 24-Apr-2013

 --------------------
 #p B2PLYPD3/Def2QZVP
 --------------------

 --------
 acrolein
 --------
 Symbolic Z-matrix:
 Charge =  0 Multiplicity = 1

                         Standard orientation:
 ---------------------------------------------------------------------
 Center     Atomic      Atomic             Coordinates (Angstroms)
 Number     Number       Type             X           Y           Z
 ---------------------------------------------------------------------
      1          6           0        0.682012    0.356498   -0.017689
      2          8           0        1.776249   -0.130945    0.012398
      3          6           0       -0.554345   -0.448689   -0.015259
      4          6           0       -1.751526    0.144838   -0.001443
      5          1           0       -0.468815   -1.505568    0.014348
      6          1           0       -1.816274    1.199867    0.017863
      7          1           0       -2.725828   -0.410013    0.052394
      8          1           0        0.544078    1.447392    0.022559
 ---------------------------------------------------------------------

 SCF Done:  E(RB2PLYPD3) =  -191.615341688     A.U. after   12 cycles
 E2(B2PLYPD3) =    -0.2464383127D+00 E(B2PLYPD3) =    -0.19186178000069D+03

 The electronic state is 1-A.
 Alpha  occ. eigenvalues --  -19.72759 -10.71440 -10.65431 -10.64110  -1.20316
 Alpha  occ. eigenvalues --   -0.92752  -0.74972  -0.67484  -0.56959  -0.56102
 Alpha  occ. eigenvalues --   -0.50622  -0.47194  -0.46910  -0.34553  -0.33836
 Alpha virt. eigenvalues --   -0.01476   0.05758   0.07271   0.08192   0.09735
 Alpha virt. eigenvalues --    0.12500   0.14138   0.15417   0.17701   0.19866
 Alpha virt. eigenvalues --    0.19980   0.21311   0.25534   0.26325   0.28895

 Mulliken charges:
               1
     1  C    0.151030
     2  O   -0.340544
     3  C   -0.042847
     4  C   -0.132056
     5  H    0.108976
     6  H    0.083222
     7  H    0.097260
     8  H    0.074959
 Sum of Mulliken charges =   0.00000

 Dipole moment (field-independent basis, Debye):
    X=             -3.3587    Y=              0.8058    Z=              0.0345  Tot=              3.4542
 Quadrupole moment (field-independent basis, Debye-Ang):
   XX=            -27.2811   YY=            -21.7664   ZZ=            -25.1921
   XY=              1.0491   XZ=             -0.2266   YZ=             -0.0223

 Normal termination of Gaussian 09 at Wed Aug 26 19:53:11 2020.
