 Gaussian 09, Revision D.01,
 Gaussian 09:  ES64L-G09RevD.01 24-Apr-2013

 --------------------
 #p B2PLYPD3/Def2QZVP
 --------------------

 --------
 acrolein
 --------
 Symbolic Z-matrix:
 Charge =  0 Multiplicity = 1

                         Standard orientation:
 ---------------------------------------------------------------------
 Center     Atomic      Atomic             Coordinates (Angstroms)
 Number     Number       Type             X           Y           Z
 ---------------------------------------------------------------------
      1          6           0        0.679113    0.351727   -0.013738
      2          8           0        1.777325   -0.123803    0.035026
      3          6           0       -0.545837   -0.443286   -0.059400
      4          6           0       -1.768864    0.140669    0.014663
      5          1           0       -0.378144   -1.540195   -0.028821
      6          1           0       -1.827225    1.238836    0.010212
      7          1           0       -2.783083   -0.436010    0.156027
      8          1           0        0.583388    1.433127   -0.066771
 ---------------------------------------------------------------------

 SCF Done:  E(RB2PLYPD3) =  -191.608099529     A.U. after   13 cycles
 E2(B2PLYPD3) =    -0.2476569660D+00 E(B2PLYPD3) =    -0.19185575649528D+03

 The electronic state is 1-A.
 Alpha  occ. eigenvalues --  -19.72572 -10.71074 -10.67058 -10.65009  -1.20286
 Alpha  occ. eigenvalues --   -0.92156  -0.74824  -0.66864  -0.56566  -0.55480
 Alpha  occ. eigenvalues --   -0.50276  -0.47188  -0.46066  -0.34294  -0.33776
 Alpha virt. eigenvalues --   -0.01915   0.05476   0.07068   0.08287   0.09679
 Alpha virt. eigenvalues --    0.12103   0.13948   0.15400   0.17521   0.19581
 Alpha virt. eigenvalues --    0.19800   0.20937   0.25144   0.26497   0.29056

 Mulliken charges:
               1
     1  C    0.159331
     2  O   -0.344724
     3  C   -0.045529
     4  C   -0.129775
     5  H    0.106360
     6  H    0.084945
     7  H    0.101350
     8  H    0.068041
 Sum of Mulliken charges =   0.00000

 Dipole moment (field-independent basis, Debye):
    X=             -3.4025    Y=              0.7991    Z=              0.0085  Tot=              3.4951
 Quadrupole moment (field-independent basis, Debye-Ang):
   XX=            -27.2244   YY=            -21.8381   ZZ=            -25.3759
   XY=              0.9800   XZ=             -0.5980   YZ=             -0.0880

 Normal termination of Gaussian 09 at Wed Aug 26 09:03:25 2020.
