 Gaussian 09, Revision D.01,
 Gaussian 09:  ES64L-G09RevD.01 24-Apr-2013

 --------------------
 #p B2PLYPD3/Def2QZVP
 --------------------

 --------
 acrolein
 --------
 Symbolic Z-matrix:
 Charge =  0 Multiplicity = 1

                         Standard orientation:
 ---------------------------------------------------------------------
 Center     Atomic      Atomic             Coordinates (Angstroms)
 Number     Number       Type             X           Y           Z
 ---------------------------------------------------------------------
      1          6           0        0.667298    0.358663    0.016506
      2          8           0        1.783087   -0.133843   -0.009815
      3          6           0       -0.561495   -0.434117    0.009497
      4          6           0       -1.749834    0.141795   -0.006517
      5          1           0       -0.448976   -1.538160   -0.004913
      6          1           0       -1.781185    1.163314   -0.004969
      7          1           0       -2.706870   -0.406630   -0.012867
      8          1           0        0.536514    1.454177   -0.015648
 ---------------------------------------------------------------------

 SCF Done:  E(RB2PLYPD3) =  -191.612910731     A.U. after   12 cycles
 E2(B2PLYPD3) =    -0.2472312127D+00 E(B2PLYPD3) =    -0.19186014194404D+03

 The electronic state is 1-A.
 Alpha  occ. eigenvalues --  -19.72811 -10.71689 -10.64836 -10.64401  -1.19004
 Alpha  occ. eigenvalues --   -0.93503  -0.75643  -0.67118  -0.57052  -0.56335
 Alpha  occ. eigenvalues --   -0.50451  -0.46682  -0.46546  -0.34845  -0.33975
 Alpha virt. eigenvalues --   -0.01776   0.05791   0.07032   0.08191   0.09805
 Alpha virt. eigenvalues --    0.12570   0.14122   0.15336   0.17235   0.19905
 Alpha virt. eigenvalues --    0.20214   0.21587   0.25653   0.26313   0.29111

 Mulliken charges:
               1
     1  C    0.149366
     2  O   -0.352744
     3  C   -0.029183
     4  C   -0.131797
     5  H    0.102055
     6  H    0.084344
     7  H    0.103303
     8  H    0.074656
 Sum of Mulliken charges =   0.00000

 Dipole moment (field-independent basis, Debye):
    X=             -3.5080    Y=              0.8353    Z=              0.0151  Tot=              3.6061
 Quadrupole moment (field-independent basis, Debye-Ang):
   XX=            -27.3788   YY=            -21.7722   ZZ=            -25.1608
   XY=              1.0966   XZ=              0.0832   YZ=              0.0053

 Normal termination of Gaussian 09 at Wed Aug 26 19:49:54 2020.
