 Gaussian 09, Revision D.01,
 Gaussian 09:  ES64L-G09RevD.01 24-Apr-2013

 --------------------
 #p B2PLYPD3/Def2QZVP
 --------------------

 --------
 acrolein
 --------
 Symbolic Z-matrix:
 Charge =  0 Multiplicity = 1

                         Standard orientation:
 ---------------------------------------------------------------------
 Center     Atomic      Atomic             Coordinates (Angstroms)
 Number     Number       Type             X           Y           Z
 ---------------------------------------------------------------------
      1          6           0        0.679673    0.364830   -0.033181
      2          8           0        1.758267   -0.143861    0.037158
      3          6           0       -0.537969   -0.434087   -0.043973
      4          6           0       -1.747379    0.138655    0.008569
      5          1           0       -0.474201   -1.440682   -0.002475
      6          1           0       -1.806826    1.188059    0.099372
      7          1           0       -2.738529   -0.442534    0.081559
      8          1           0        0.587469    1.429658   -0.064206
 ---------------------------------------------------------------------

 SCF Done:  E(RB2PLYPD3) =  -191.607946566     A.U. after   13 cycles
 E2(B2PLYPD3) =    -0.2459053756D+00 E(B2PLYPD3) =    -0.19185385194120D+03

 The electronic state is 1-A.
 Alpha  occ. eigenvalues --  -19.72467 -10.70840 -10.65643 -10.63343  -1.20486
 Alpha  occ. eigenvalues --   -0.92960  -0.75060  -0.68527  -0.57673  -0.55886
 Alpha  occ. eigenvalues --   -0.50470  -0.47373  -0.47012  -0.34401  -0.33868
 Alpha virt. eigenvalues --   -0.01507   0.05680   0.07469   0.08299   0.09761
 Alpha virt. eigenvalues --    0.12421   0.14076   0.15478   0.18169   0.19631
 Alpha virt. eigenvalues --    0.20040   0.21129   0.25611   0.26096   0.29110

 Mulliken charges:
               1
     1  C    0.145909
     2  O   -0.342858
     3  C   -0.046697
     4  C   -0.129615
     5  H    0.114864
     6  H    0.081273
     7  H    0.093498
     8  H    0.083626
 Sum of Mulliken charges =   0.00000

 Dipole moment (field-independent basis, Debye):
    X=             -3.3167    Y=              0.8685    Z=              0.0121  Tot=              3.4285
 Quadrupole moment (field-independent basis, Debye-Ang):
   XX=            -27.2194   YY=            -21.7376   ZZ=            -25.0911
   XY=              1.2834   XZ=             -0.5526   YZ=              0.0330

 Normal termination of Gaussian 09 at Wed Aug 26 09:26:36 2020.
