 Gaussian 09, Revision D.01,
 Gaussian 09:  ES64L-G09RevD.01 24-Apr-2013

 --------------------
 #p B2PLYPD3/Def2QZVP
 --------------------

 --------
 acrolein
 --------
 Symbolic Z-matrix:
 Charge =  0 Multiplicity = 1

                         Standard orientation:
 ---------------------------------------------------------------------
 Center     Atomic      Atomic             Coordinates (Angstroms)
 Number     Number       Type             X           Y           Z
 ---------------------------------------------------------------------
      1          6           0        0.663828    0.333352    0.000410
      2          8           0        1.793678   -0.106378   -0.012448
      3          6           0       -0.561797   -0.468873    0.009520
      4          6           0       -1.746791    0.156194   -0.002060
      5          1           0       -0.464056   -1.543272    0.042755
      6          1           0       -1.825626    1.237835   -0.040659
      7          1           0       -2.695830   -0.399294   -0.033664
      8          1           0        0.504653    1.431713    0.083932
 ---------------------------------------------------------------------

 SCF Done:  E(RB2PLYPD3) =  -191.616032933     A.U. after   12 cycles
 E2(B2PLYPD3) =    -0.2474969734D+00 E(B2PLYPD3) =    -0.19186352990665D+03

 The electronic state is 1-A.
 Alpha  occ. eigenvalues --  -19.72694 -10.71535 -10.65922 -10.64628  -1.19306
 Alpha  occ. eigenvalues --   -0.93048  -0.75271  -0.66999  -0.56475  -0.56225
 Alpha  occ. eigenvalues --   -0.50319  -0.47187  -0.46621  -0.34685  -0.33713
 Alpha virt. eigenvalues --   -0.01852   0.05708   0.07068   0.08116   0.09671
 Alpha virt. eigenvalues --    0.12591   0.14079   0.15286   0.17464   0.19727
 Alpha virt. eigenvalues --    0.20093   0.21356   0.25254   0.26470   0.28773

 Mulliken charges:
               1
     1  C    0.153593
     2  O   -0.349787
     3  C   -0.036487
     4  C   -0.128014
     5  H    0.107200
     6  H    0.087605
     7  H    0.099278
     8  H    0.066611
 Sum of Mulliken charges =   0.00000

 Dipole moment (field-independent basis, Debye):
    X=             -3.5707    Y=              0.6883    Z=              0.0312  Tot=              3.6365
 Quadrupole moment (field-independent basis, Debye-Ang):
   XX=            -27.4976   YY=            -21.7234   ZZ=            -25.2509
   XY=              0.7908   XZ=              0.1979   YZ=             -0.0596

 Normal termination of Gaussian 09 at Wed Aug 26 20:34:17 2020.
