 Gaussian 09, Revision D.01,
 Gaussian 09:  ES64L-G09RevD.01 24-Apr-2013

 --------------------
 #p B2PLYPD3/Def2QZVP
 --------------------

 --------
 acrolein
 --------
 Symbolic Z-matrix:
 Charge =  0 Multiplicity = 1

                         Standard orientation:
 ---------------------------------------------------------------------
 Center     Atomic      Atomic             Coordinates (Angstroms)
 Number     Number       Type             X           Y           Z
 ---------------------------------------------------------------------
      1          6           0       -0.684447    0.363524    0.018673
      2          8           0       -1.776017   -0.135603   -0.020444
      3          6           0        0.557620   -0.444221   -0.000154
      4          6           0        1.757523    0.137611   -0.007097
      5          1           0        0.434690   -1.484729    0.080158
      6          1           0        1.839666    1.211525   -0.048683
      7          1           0        2.702157   -0.436415   -0.014934
      8          1           0       -0.552548    1.452956    0.078475
 ---------------------------------------------------------------------

 SCF Done:  E(RB2PLYPD3) =  -191.616188051     A.U. after   12 cycles
 E2(B2PLYPD3) =    -0.2464464486D+00 E(B2PLYPD3) =    -0.19186263449934D+03

 The electronic state is 1-A.
 Alpha  occ. eigenvalues --  -19.72811 -10.71475 -10.65420 -10.63979  -1.20184
 Alpha  occ. eigenvalues --   -0.92667  -0.74991  -0.67462  -0.56719  -0.56244
 Alpha  occ. eigenvalues --   -0.50814  -0.47218  -0.46745  -0.34573  -0.33819
 Alpha virt. eigenvalues --   -0.01438   0.05765   0.07340   0.08124   0.09766
 Alpha virt. eigenvalues --    0.12446   0.13949   0.15364   0.17823   0.19658
 Alpha virt. eigenvalues --    0.19985   0.21452   0.25427   0.26519   0.28882

 Mulliken charges:
               1
     1  C    0.154297
     2  O   -0.342626
     3  C   -0.048372
     4  C   -0.132375
     5  H    0.110620
     6  H    0.082847
     7  H    0.099232
     8  H    0.076377
 Sum of Mulliken charges =   0.00000

 Dipole moment (field-independent basis, Debye):
    X=              3.3313    Y=              0.8258    Z=              0.1124  Tot=              3.4339
 Quadrupole moment (field-independent basis, Debye-Ang):
   XX=            -27.3355   YY=            -21.7364   ZZ=            -25.1882
   XY=             -1.0545   XZ=             -0.1717   YZ=             -0.1360

 Normal termination of Gaussian 09 at Wed Aug 26 15:47:56 2020.
