 Gaussian 09, Revision D.01,
 Gaussian 09:  ES64L-G09RevD.01 24-Apr-2013

 --------------------
 #p B2PLYPD3/Def2QZVP
 --------------------

 --------
 acrolein
 --------
 Symbolic Z-matrix:
 Charge =  0 Multiplicity = 1

                         Standard orientation:
 ---------------------------------------------------------------------
 Center     Atomic      Atomic             Coordinates (Angstroms)
 Number     Number       Type             X           Y           Z
 ---------------------------------------------------------------------
      1          6           0        0.688127    0.359634    0.018544
      2          8           0        1.787354   -0.145808   -0.023575
      3          6           0       -0.565159   -0.425384    0.001113
      4          6           0       -1.758975    0.159397   -0.050050
      5          1           0       -0.506242   -1.487314    0.097216
      6          1           0       -1.684627    1.078835   -0.077968
      7          1           0       -2.754993   -0.445988    0.158141
      8          1           0        0.463072    1.459046    0.193571
 ---------------------------------------------------------------------

 SCF Done:  E(RB2PLYPD3) =  -191.579990323     A.U. after   13 cycles
 E2(B2PLYPD3) =    -0.2477490548D+00 E(B2PLYPD3) =    -0.19182773937806D+03

 The electronic state is 1-A.
 Alpha  occ. eigenvalues --  -19.73414 -10.72393 -10.64350 -10.63878  -1.19910
 Alpha  occ. eigenvalues --   -0.93823  -0.75525  -0.67845  -0.57310  -0.55596
 Alpha  occ. eigenvalues --   -0.50435  -0.47572  -0.46618  -0.34691  -0.34100
 Alpha virt. eigenvalues --   -0.01890   0.05744   0.06824   0.08063   0.09925
 Alpha virt. eigenvalues --    0.12585   0.13726   0.15304   0.17477   0.19313
 Alpha virt. eigenvalues --    0.20522   0.21769   0.24932   0.26709   0.28892

 Mulliken charges:
               1
     1  C    0.139780
     2  O   -0.338503
     3  C   -0.014252
     4  C   -0.157668
     5  H    0.099713
     6  H    0.096825
     7  H    0.106226
     8  H    0.067881
 Sum of Mulliken charges =   0.00000

 Dipole moment (field-independent basis, Debye):
    X=             -3.3211    Y=              0.7871    Z=              0.2984  Tot=              3.4261
 Quadrupole moment (field-independent basis, Debye-Ang):
   XX=            -27.4511   YY=            -22.0145   ZZ=            -25.0985
   XY=              1.3177   XZ=             -0.2658   YZ=             -0.2389

 Normal termination of Gaussian 09 at Wed Aug 26 11:56:29 2020.
