 Gaussian 09, Revision D.01,
 Gaussian 09:  ES64L-G09RevD.01 24-Apr-2013

 --------------------
 #p B2PLYPD3/Def2QZVP
 --------------------

 --------
 acrolein
 --------
 Symbolic Z-matrix:
 Charge =  0 Multiplicity = 1

                         Standard orientation:
 ---------------------------------------------------------------------
 Center     Atomic      Atomic             Coordinates (Angstroms)
 Number     Number       Type             X           Y           Z
 ---------------------------------------------------------------------
      1          6           0       -0.666925    0.353562   -0.017507
      2          8           0       -1.785426   -0.130992    0.022224
      3          6           0        0.567728   -0.439392   -0.041128
      4          6           0        1.745062    0.142013    0.007509
      5          1           0        0.468722   -1.505315    0.027321
      6          1           0        1.781226    1.193201    0.042357
      7          1           0        2.651028   -0.433274    0.079465
      8          1           0       -0.492762    1.456228   -0.020176
 ---------------------------------------------------------------------

 SCF Done:  E(RB2PLYPD3) =  -191.615170494     A.U. after   12 cycles
 E2(B2PLYPD3) =    -0.2470981159D+00 E(B2PLYPD3) =    -0.19186226861009D+03

 The electronic state is 1-A.
 Alpha  occ. eigenvalues --  -19.72943 -10.71852 -10.64733 -10.63878  -1.19045
 Alpha  occ. eigenvalues --   -0.93728  -0.75578  -0.67195  -0.56915  -0.56397
 Alpha  occ. eigenvalues --   -0.50599  -0.47132  -0.46567  -0.34989  -0.33940
 Alpha virt. eigenvalues --   -0.01669   0.05827   0.07109   0.08157   0.09847
 Alpha virt. eigenvalues --    0.12707   0.13829   0.15303   0.17517   0.19850
 Alpha virt. eigenvalues --    0.20052   0.21700   0.25519   0.26478   0.28862

 Mulliken charges:
               1
     1  C    0.151936
     2  O   -0.352048
     3  C   -0.029667
     4  C   -0.129820
     5  H    0.103204
     6  H    0.083423
     7  H    0.103217
     8  H    0.069755
 Sum of Mulliken charges =   0.00000

 Dipole moment (field-independent basis, Debye):
    X=              3.4994    Y=              0.7730    Z=              0.0563  Tot=              3.5842
 Quadrupole moment (field-independent basis, Debye-Ang):
   XX=            -27.5502   YY=            -21.7636   ZZ=            -25.1063
   XY=             -1.0795   XZ=              0.3943   YZ=             -0.0648

 Normal termination of Gaussian 09 at Wed Aug 26 20:23:25 2020.
