 Gaussian 09, Revision D.01,
 Gaussian 09:  ES64L-G09RevD.01 24-Apr-2013

 --------------------
 #p B2PLYPD3/Def2QZVP
 --------------------

 --------
 acrolein
 --------
 Symbolic Z-matrix:
 Charge =  0 Multiplicity = 1

                         Standard orientation:
 ---------------------------------------------------------------------
 Center     Atomic      Atomic             Coordinates (Angstroms)
 Number     Number       Type             X           Y           Z
 ---------------------------------------------------------------------
      1          6           0       -0.677127    0.377516   -0.031208
      2          8           0       -1.784400   -0.148921    0.032287
      3          6           0        0.579133   -0.441829   -0.035650
      4          6           0        1.746797    0.131386    0.028750
      5          1           0        0.485115   -1.489704   -0.084435
      6          1           0        1.795942    1.208285   -0.070349
      7          1           0        2.631484   -0.415533    0.123451
      8          1           0       -0.530158    1.485880    0.001682
 ---------------------------------------------------------------------

 SCF Done:  E(RB2PLYPD3) =  -191.611771581     A.U. after   13 cycles
 E2(B2PLYPD3) =    -0.2472538953D+00 E(B2PLYPD3) =    -0.19185902547645D+03

 The electronic state is 1-A.
 Alpha  occ. eigenvalues --  -19.73094 -10.72350 -10.64227 -10.63708  -1.18677
 Alpha  occ. eigenvalues --   -0.93508  -0.75093  -0.67273  -0.57153  -0.56151
 Alpha  occ. eigenvalues --   -0.50769  -0.47155  -0.46056  -0.34952  -0.33965
 Alpha virt. eigenvalues --   -0.01372   0.05828   0.07236   0.07723   0.09814
 Alpha virt. eigenvalues --    0.12504   0.13982   0.15343   0.17518   0.19656
 Alpha virt. eigenvalues --    0.20179   0.21791   0.25353   0.26523   0.28848

 Mulliken charges:
               1
     1  C    0.155290
     2  O   -0.351746
     3  C   -0.043527
     4  C   -0.128718
     5  H    0.107068
     6  H    0.078191
     7  H    0.101958
     8  H    0.081485
 Sum of Mulliken charges =   0.00000

 Dipole moment (field-independent basis, Debye):
    X=              3.3977    Y=              0.8640    Z=             -0.1330  Tot=              3.5083
 Quadrupole moment (field-independent basis, Debye-Ang):
   XX=            -27.6406   YY=            -21.6291   ZZ=            -25.1065
   XY=             -1.2673   XZ=              0.2963   YZ=             -0.0580

 Normal termination of Gaussian 09 at Wed Aug 26 10:15:47 2020.
