 Gaussian 09, Revision D.01,
 Gaussian 09:  ES64L-G09RevD.01 24-Apr-2013

 --------------------
 #p B2PLYPD3/Def2QZVP
 --------------------

 --------
 acrolein
 --------
 Symbolic Z-matrix:
 Charge =  0 Multiplicity = 1

                         Standard orientation:
 ---------------------------------------------------------------------
 Center     Atomic      Atomic             Coordinates (Angstroms)
 Number     Number       Type             X           Y           Z
 ---------------------------------------------------------------------
      1          6           0       -0.672538    0.338369    0.004567
      2          8           0       -1.789725   -0.110884   -0.014595
      3          6           0        0.548311   -0.450906    0.009674
      4          6           0        1.760205    0.142180   -0.005610
      5          1           0        0.437410   -1.526116    0.042793
      6          1           0        1.875274    1.231807   -0.046550
      7          1           0        2.710768   -0.420593   -0.018160
      8          1           0       -0.521516    1.424115    0.086895
 ---------------------------------------------------------------------

 SCF Done:  E(RB2PLYPD3) =  -191.615684893     A.U. after   13 cycles
 E2(B2PLYPD3) =    -0.2472239106D+00 E(B2PLYPD3) =    -0.19186290880384D+03

 The electronic state is 1-A.
 Alpha  occ. eigenvalues --  -19.72656 -10.71210 -10.66266 -10.64620  -1.19830
 Alpha  occ. eigenvalues --   -0.92742  -0.75555  -0.66999  -0.56735  -0.56083
 Alpha  occ. eigenvalues --   -0.50502  -0.47042  -0.46706  -0.34500  -0.33778
 Alpha virt. eigenvalues --   -0.02012   0.05657   0.07186   0.08368   0.09654
 Alpha virt. eigenvalues --    0.12483   0.14107   0.15358   0.17599   0.19579
 Alpha virt. eigenvalues --    0.20049   0.21370   0.25331   0.26484   0.28694

 Mulliken charges:
               1
     1  C    0.155622
     2  O   -0.346873
     3  C   -0.038459
     4  C   -0.129706
     5  H    0.106404
     6  H    0.085144
     7  H    0.100647
     8  H    0.067222
 Sum of Mulliken charges =   0.00000

 Dipole moment (field-independent basis, Debye):
    X=              3.5436    Y=              0.7186    Z=              0.0491  Tot=              3.6161
 Quadrupole moment (field-independent basis, Debye-Ang):
   XX=            -27.2534   YY=            -21.8315   ZZ=            -25.2559
   XY=             -0.7958   XZ=             -0.1805   YZ=             -0.0741

 Normal termination of Gaussian 09 at Wed Aug 26 19:52:12 2020.
