 Gaussian 09, Revision D.01,
 Gaussian 09:  ES64L-G09RevD.01 24-Apr-2013

 --------------------
 #p B2PLYPD3/Def2QZVP
 --------------------

 --------
 acrolein
 --------
 Symbolic Z-matrix:
 Charge =  0 Multiplicity = 1

                         Standard orientation:
 ---------------------------------------------------------------------
 Center     Atomic      Atomic             Coordinates (Angstroms)
 Number     Number       Type             X           Y           Z
 ---------------------------------------------------------------------
      1          6           0       -0.654139    0.329814   -0.023452
      2          8           0       -1.808152   -0.102933    0.033852
      3          6           0        0.575048   -0.461799   -0.044751
      4          6           0        1.746276    0.146262    0.015297
      5          1           0        0.480281   -1.538768   -0.063706
      6          1           0        1.839349    1.260963   -0.030417
      7          1           0        2.608040   -0.403797    0.176933
      8          1           0       -0.465558    1.419402   -0.036187
 ---------------------------------------------------------------------

 SCF Done:  E(RB2PLYPD3) =  -191.611509172     A.U. after   13 cycles
 E2(B2PLYPD3) =    -0.2481569620D+00 E(B2PLYPD3) =    -0.19185966613442D+03

 The electronic state is 1-A.
 Alpha  occ. eigenvalues --  -19.72827 -10.71784 -10.65455 -10.64457  -1.18033
 Alpha  occ. eigenvalues --   -0.93812  -0.76046  -0.66909  -0.56995  -0.56016
 Alpha  occ. eigenvalues --   -0.50358  -0.47310  -0.45957  -0.34936  -0.33826
 Alpha virt. eigenvalues --   -0.02081   0.05691   0.07040   0.08046   0.09675
 Alpha virt. eigenvalues --    0.12628   0.14010   0.15235   0.17381   0.19612
 Alpha virt. eigenvalues --    0.19974   0.21864   0.25096   0.26643   0.28619

 Mulliken charges:
               1
     1  C    0.156049
     2  O   -0.361177
     3  C   -0.030041
     4  C   -0.124782
     5  H    0.102614
     6  H    0.084919
     7  H    0.104354
     8  H    0.068064
 Sum of Mulliken charges =   0.00000

 Dipole moment (field-independent basis, Debye):
    X=              3.7183    Y=              0.6731    Z=             -0.0443  Tot=              3.7790
 Quadrupole moment (field-independent basis, Debye-Ang):
   XX=            -27.7567   YY=            -21.6968   ZZ=            -25.1527
   XY=             -0.7741   XZ=              0.5220   YZ=             -0.0788

 Normal termination of Gaussian 09 at Wed Aug 26 09:21:41 2020.
