 Gaussian 09, Revision D.01,
 Gaussian 09:  ES64L-G09RevD.01 24-Apr-2013

 --------------------
 #p B2PLYPD3/Def2QZVP
 --------------------

 --------
 acrolein
 --------
 Symbolic Z-matrix:
 Charge =  0 Multiplicity = 1

                         Standard orientation:
 ---------------------------------------------------------------------
 Center     Atomic      Atomic             Coordinates (Angstroms)
 Number     Number       Type             X           Y           Z
 ---------------------------------------------------------------------
      1          6           0        0.673073    0.364420    0.030117
      2          8           0        1.790383   -0.132469   -0.020946
      3          6           0       -0.558695   -0.444226    0.023580
      4          6           0       -1.760313    0.129977   -0.016376
      5          1           0       -0.432039   -1.516556    0.002883
      6          1           0       -1.832022    1.194514    0.010071
      7          1           0       -2.665898   -0.419593   -0.043709
      8          1           0        0.482501    1.500368   -0.025611
 ---------------------------------------------------------------------

 SCF Done:  E(RB2PLYPD3) =  -191.613799596     A.U. after   13 cycles
 E2(B2PLYPD3) =    -0.2480993193D+00 E(B2PLYPD3) =    -0.19186189891547D+03

 The electronic state is 1-A.
 Alpha  occ. eigenvalues --  -19.73117 -10.72392 -10.65069 -10.64424  -1.18915
 Alpha  occ. eigenvalues --   -0.93068  -0.75586  -0.66633  -0.56777  -0.56073
 Alpha  occ. eigenvalues --   -0.50593  -0.46982  -0.46489  -0.34679  -0.33946
 Alpha virt. eigenvalues --   -0.01949   0.05761   0.07109   0.07931   0.09809
 Alpha virt. eigenvalues --    0.12553   0.13872   0.15347   0.17317   0.19820
 Alpha virt. eigenvalues --    0.20049   0.21737   0.25335   0.26465   0.28798

 Mulliken charges:
               1
     1  C    0.159924
     2  O   -0.351295
     3  C   -0.037232
     4  C   -0.130112
     5  H    0.106518
     6  H    0.082226
     7  H    0.104126
     8  H    0.065845
 Sum of Mulliken charges =   0.00000

 Dipole moment (field-independent basis, Debye):
    X=             -3.5127    Y=              0.7694    Z=              0.0427  Tot=              3.5962
 Quadrupole moment (field-independent basis, Debye-Ang):
   XX=            -27.4138   YY=            -21.7989   ZZ=            -25.2540
   XY=              0.9445   XZ=              0.1877   YZ=              0.0326

 Normal termination of Gaussian 09 at Wed Aug 26 19:46:49 2020.
