 Gaussian 09, Revision D.01,
 Gaussian 09:  ES64L-G09RevD.01 24-Apr-2013

 --------------------
 #p B2PLYPD3/Def2QZVP
 --------------------

 --------
 acrolein
 --------
 Symbolic Z-matrix:
 Charge =  0 Multiplicity = 1

                         Standard orientation:
 ---------------------------------------------------------------------
 Center     Atomic      Atomic             Coordinates (Angstroms)
 Number     Number       Type             X           Y           Z
 ---------------------------------------------------------------------
      1          6           0       -0.692251    0.372320    0.029563
      2          8           0       -1.757186   -0.139100   -0.028571
      3          6           0        0.556224   -0.451259   -0.003066
      4          6           0        1.745906    0.149665   -0.030669
      5          1           0        0.444578   -1.496853    0.142387
      6          1           0        1.806389    1.172446    0.005038
      7          1           0        2.713621   -0.411446    0.012314
      8          1           0       -0.566377    1.424299    0.093867
 ---------------------------------------------------------------------

 SCF Done:  E(RB2PLYPD3) =  -191.610896074     A.U. after   12 cycles
 E2(B2PLYPD3) =    -0.2451965868D+00 E(B2PLYPD3) =    -0.19185609266055D+03

 The electronic state is 1-A.
 Alpha  occ. eigenvalues --  -19.72684 -10.70933 -10.64640 -10.63850  -1.21287
 Alpha  occ. eigenvalues --   -0.92458  -0.74807  -0.68147  -0.57469  -0.56008
 Alpha  occ. eigenvalues --   -0.51035  -0.47783  -0.46840  -0.34396  -0.33699
 Alpha virt. eigenvalues --   -0.00927   0.05892   0.07318   0.08139   0.09789
 Alpha virt. eigenvalues --    0.12600   0.14146   0.15358   0.17909   0.19865
 Alpha virt. eigenvalues --    0.20080   0.21488   0.25472   0.26638   0.28913

 Mulliken charges:
               1
     1  C    0.150486
     2  O   -0.332203
     3  C   -0.052543
     4  C   -0.135404
     5  H    0.109294
     6  H    0.082935
     7  H    0.093662
     8  H    0.083773
 Sum of Mulliken charges =   0.00000

 Dipole moment (field-independent basis, Debye):
    X=              3.1344    Y=              0.9038    Z=              0.2781  Tot=              3.2739
 Quadrupole moment (field-independent basis, Debye-Ang):
   XX=            -27.2986   YY=            -21.6596   ZZ=            -25.0790
   XY=             -1.0812   XZ=             -0.0152   YZ=             -0.1669

 Normal termination of Gaussian 09 at Wed Aug 26 09:18:45 2020.
