 Gaussian 09, Revision D.01,
 Gaussian 09:  ES64L-G09RevD.01 24-Apr-2013

 --------------------
 #p B2PLYPD3/Def2QZVP
 --------------------

 --------
 acrolein
 --------
 Symbolic Z-matrix:
 Charge =  0 Multiplicity = 1

                         Standard orientation:
 ---------------------------------------------------------------------
 Center     Atomic      Atomic             Coordinates (Angstroms)
 Number     Number       Type             X           Y           Z
 ---------------------------------------------------------------------
      1          6           0       -0.669524    0.332391    0.041297
      2          8           0       -1.783063   -0.099149   -0.040468
      3          6           0        0.574067   -0.462851    0.014180
      4          6           0        1.758476    0.146524   -0.009040
      5          1           0        0.384116   -1.571778    0.090739
      6          1           0        1.894123    1.284196   -0.083652
      7          1           0        2.560703   -0.422551   -0.070732
      8          1           0       -0.552551    1.406944    0.108764
 ---------------------------------------------------------------------

 SCF Done:  E(RB2PLYPD3) =  -191.603737822     A.U. after   12 cycles
 E2(B2PLYPD3) =    -0.2464186328D+00 E(B2PLYPD3) =    -0.19185015645458D+03

 The electronic state is 1-A.
 Alpha  occ. eigenvalues --  -19.72568 -10.70862 -10.65116 -10.64913  -1.20194
 Alpha  occ. eigenvalues --   -0.92962  -0.76001  -0.66456  -0.57141  -0.56089
 Alpha  occ. eigenvalues --   -0.50896  -0.47208  -0.46566  -0.34812  -0.33494
 Alpha virt. eigenvalues --   -0.01488   0.05783   0.07121   0.08331   0.09660
 Alpha virt. eigenvalues --    0.12577   0.14007   0.15256   0.17325   0.19352
 Alpha virt. eigenvalues --    0.19978   0.22273   0.25196   0.26628   0.28431

 Mulliken charges:
               1
     1  C    0.161777
     2  O   -0.343836
     3  C   -0.047098
     4  C   -0.130440
     5  H    0.098978
     6  H    0.088879
     7  H    0.107893
     8  H    0.063848
 Sum of Mulliken charges =   0.00000

 Dipole moment (field-independent basis, Debye):
    X=              3.4195    Y=              0.6809    Z=              0.1206  Tot=              3.4887
 Quadrupole moment (field-independent basis, Debye-Ang):
   XX=            -27.5294   YY=            -21.6049   ZZ=            -25.1653
   XY=             -0.6590   XZ=             -0.4765   YZ=             -0.1718

 Normal termination of Gaussian 09 at Wed Aug 26 10:05:55 2020.
