 Gaussian 09, Revision D.01,
 Gaussian 09:  ES64L-G09RevD.01 24-Apr-2013

 --------------------
 #p B2PLYPD3/Def2QZVP
 --------------------

 --------
 acrolein
 --------
 Symbolic Z-matrix:
 Charge =  0 Multiplicity = 1

                         Standard orientation:
 ---------------------------------------------------------------------
 Center     Atomic      Atomic             Coordinates (Angstroms)
 Number     Number       Type             X           Y           Z
 ---------------------------------------------------------------------
      1          6           0        0.669701    0.385102    0.038297
      2          8           0        1.769979   -0.151607   -0.067557
      3          6           0       -0.572995   -0.443820    0.069021
      4          6           0       -1.702882    0.132920   -0.070063
      5          1           0       -0.509565   -1.420338    0.187952
      6          1           0       -1.770200    1.186459   -0.043460
      7          1           0       -2.736462   -0.406781   -0.079847
      8          1           0        0.493448    1.408305    0.252279
 ---------------------------------------------------------------------

 SCF Done:  E(RB2PLYPD3) =  -191.595680128     A.U. after   12 cycles
 E2(B2PLYPD3) =    -0.2466930147D+00 E(B2PLYPD3) =    -0.19184237314307D+03

 The electronic state is 1-A.
 Alpha  occ. eigenvalues --  -19.73118 -10.71849 -10.64514 -10.62407  -1.18667
 Alpha  occ. eigenvalues --   -0.94297  -0.74854  -0.69063  -0.57128  -0.56070
 Alpha  occ. eigenvalues --   -0.51494  -0.46510  -0.45702  -0.35417  -0.33995
 Alpha virt. eigenvalues --   -0.01011   0.05702   0.06970   0.08031   0.09665
 Alpha virt. eigenvalues --    0.12507   0.14105   0.15265   0.18173   0.19286
 Alpha virt. eigenvalues --    0.20300   0.20995   0.25589   0.26700   0.28750

 Mulliken charges:
               1
     1  C    0.149836
     2  O   -0.353301
     3  C   -0.046503
     4  C   -0.116017
     5  H    0.114615
     6  H    0.071689
     7  H    0.081530
     8  H    0.098149
 Sum of Mulliken charges =   0.00000

 Dipole moment (field-independent basis, Debye):
    X=             -3.3079    Y=              0.9568    Z=              0.3750  Tot=              3.4639
 Quadrupole moment (field-independent basis, Debye-Ang):
   XX=            -27.7053   YY=            -21.6855   ZZ=            -24.9170
   XY=              1.1492   XZ=              0.4581   YZ=             -0.0886

 Normal termination of Gaussian 09 at Wed Aug 26 12:38:57 2020.
