 Gaussian 09, Revision D.01,
 Gaussian 09:  ES64L-G09RevD.01 24-Apr-2013

 --------------------
 #p B2PLYPD3/Def2QZVP
 --------------------

 --------
 acrolein
 --------
 Symbolic Z-matrix:
 Charge =  0 Multiplicity = 1

                         Standard orientation:
 ---------------------------------------------------------------------
 Center     Atomic      Atomic             Coordinates (Angstroms)
 Number     Number       Type             X           Y           Z
 ---------------------------------------------------------------------
      1          6           0        0.633703    0.300809    0.071012
      2          8           0        1.834900   -0.074307   -0.032151
      3          6           0       -0.568533   -0.446031   -0.022258
      4          6           0       -1.756397    0.148974   -0.030588
      5          1           0       -0.360195   -1.580001    0.040001
      6          1           0       -1.917236    1.238174   -0.103820
      7          1           0       -2.667898   -0.461609    0.152087
      8          1           0        0.413493    1.375376    0.059945
 ---------------------------------------------------------------------

 SCF Done:  E(RB2PLYPD3) =  -191.596753670     A.U. after   14 cycles
 E2(B2PLYPD3) =    -0.2509437865D+00 E(B2PLYPD3) =    -0.19184769745678D+03

 The electronic state is 1-A.
 Alpha  occ. eigenvalues --  -19.72879 -10.71557 -10.67075 -10.65422  -1.16362
 Alpha  occ. eigenvalues --   -0.94297  -0.76996  -0.66189  -0.56930  -0.55548
 Alpha  occ. eigenvalues --   -0.49658  -0.46189  -0.45478  -0.34908  -0.33740
 Alpha virt. eigenvalues --   -0.03427   0.05401   0.06604   0.08103   0.09666
 Alpha virt. eigenvalues --    0.12440   0.13790   0.15073   0.17076   0.19270
 Alpha virt. eigenvalues --    0.19909   0.21720   0.24984   0.26736   0.28263

 Mulliken charges:
               1
     1  C    0.163591
     2  O   -0.377779
     3  C   -0.013103
     4  C   -0.121205
     5  H    0.093180
     6  H    0.096431
     7  H    0.104530
     8  H    0.054355
 Sum of Mulliken charges =   0.00000

 Dipole moment (field-independent basis, Debye):
    X=             -4.0469    Y=              0.6236    Z=              0.2391  Tot=              4.1016
 Quadrupole moment (field-independent basis, Debye-Ang):
   XX=            -27.8009   YY=            -21.9447   ZZ=            -25.2752
   XY=              0.2146   XZ=             -0.0907   YZ=             -0.2909

 Normal termination of Gaussian 09 at Wed Aug 26 10:33:04 2020.
