 Gaussian 09, Revision D.01,
 Gaussian 09:  ES64L-G09RevD.01 24-Apr-2013

 --------------------
 #p B2PLYPD3/Def2QZVP
 --------------------

 --------
 acrolein
 --------
 Symbolic Z-matrix:
 Charge =  0 Multiplicity = 1

                         Standard orientation:
 ---------------------------------------------------------------------
 Center     Atomic      Atomic             Coordinates (Angstroms)
 Number     Number       Type             X           Y           Z
 ---------------------------------------------------------------------
      1          6           0        0.693276    0.381163   -0.027104
      2          8           0        1.767365   -0.148505    0.025185
      3          6           0       -0.553558   -0.439965   -0.025328
      4          6           0       -1.751841    0.127127    0.012096
      5          1           0       -0.469982   -1.452787    0.011555
      6          1           0       -1.840239    1.183112    0.101066
      7          1           0       -2.706629   -0.401135   -0.009449
      8          1           0        0.550670    1.448896   -0.062639
 ---------------------------------------------------------------------

 SCF Done:  E(RB2PLYPD3) =  -191.612427991     A.U. after   12 cycles
 E2(B2PLYPD3) =    -0.2457668917D+00 E(B2PLYPD3) =    -0.19185819488272D+03

 The electronic state is 1-A.
 Alpha  occ. eigenvalues --  -19.72879 -10.71473 -10.64708 -10.63370  -1.20398
 Alpha  occ. eigenvalues --   -0.92722  -0.75032  -0.68314  -0.57091  -0.56435
 Alpha  occ. eigenvalues --   -0.51156  -0.47257  -0.46781  -0.34543  -0.33872
 Alpha virt. eigenvalues --   -0.01209   0.05814   0.07629   0.07998   0.09761
 Alpha virt. eigenvalues --    0.12520   0.14162   0.15541   0.18004   0.19617
 Alpha virt. eigenvalues --    0.20055   0.21450   0.25682   0.26372   0.28824

 Mulliken charges:
               1
     1  C    0.152411
     2  O   -0.339958
     3  C   -0.056245
     4  C   -0.129517
     5  H    0.114019
     6  H    0.074402
     7  H    0.095270
     8  H    0.089617
 Sum of Mulliken charges =   0.00000

 Dipole moment (field-independent basis, Debye):
    X=             -3.2407    Y=              0.9195    Z=             -0.0212  Tot=              3.3687
 Quadrupole moment (field-independent basis, Debye-Ang):
   XX=            -27.2049   YY=            -21.7227   ZZ=            -25.0805
   XY=              1.1639   XZ=             -0.2694   YZ=              0.0639

 Normal termination of Gaussian 09 at Wed Aug 26 10:07:48 2020.
