 Gaussian 09, Revision D.01,
 Gaussian 09:  ES64L-G09RevD.01 24-Apr-2013

 --------------------
 #p B2PLYPD3/Def2QZVP
 --------------------

 --------
 acrolein
 --------
 Symbolic Z-matrix:
 Charge =  0 Multiplicity = 1

                         Standard orientation:
 ---------------------------------------------------------------------
 Center     Atomic      Atomic             Coordinates (Angstroms)
 Number     Number       Type             X           Y           Z
 ---------------------------------------------------------------------
      1          6           0        0.664883    0.334982   -0.021018
      2          8           0        1.783321   -0.111021    0.036654
      3          6           0       -0.553374   -0.460628   -0.059108
      4          6           0       -1.749490    0.166407    0.033850
      5          1           0       -0.481802   -1.537290   -0.034407
      6          1           0       -1.803817    1.203986   -0.029310
      7          1           0       -2.714639   -0.411270    0.114918
      8          1           0        0.561578    1.388174   -0.066779
 ---------------------------------------------------------------------

 SCF Done:  E(RB2PLYPD3) =  -191.611737088     A.U. after   13 cycles
 E2(B2PLYPD3) =    -0.2468944436D+00 E(B2PLYPD3) =    -0.19185863153183D+03

 The electronic state is 1-A.
 Alpha  occ. eigenvalues --  -19.72331 -10.70739 -10.65906 -10.64611  -1.19599
 Alpha  occ. eigenvalues --   -0.92910  -0.75481  -0.67889  -0.57423  -0.55803
 Alpha  occ. eigenvalues --   -0.50039  -0.47611  -0.46733  -0.34341  -0.33724
 Alpha virt. eigenvalues --   -0.01906   0.05715   0.07163   0.08232   0.09681
 Alpha virt. eigenvalues --    0.12591   0.14149   0.15321   0.17606   0.19944
 Alpha virt. eigenvalues --    0.20157   0.21242   0.24971   0.26341   0.28955

 Mulliken charges:
               1
     1  C    0.146143
     2  O   -0.349944
     3  C   -0.034326
     4  C   -0.134126
     5  H    0.107106
     6  H    0.092380
     7  H    0.098023
     8  H    0.074744
 Sum of Mulliken charges =   0.00000

 Dipole moment (field-independent basis, Debye):
    X=             -3.5464    Y=              0.7625    Z=             -0.0842  Tot=              3.6285
 Quadrupole moment (field-independent basis, Debye-Ang):
   XX=            -27.4513   YY=            -21.6445   ZZ=            -25.1937
   XY=              0.9897   XZ=             -0.4206   YZ=             -0.1034

 Normal termination of Gaussian 09 at Wed Aug 26 10:02:03 2020.
