 Gaussian 09, Revision D.01,
 Gaussian 09:  ES64L-G09RevD.01 24-Apr-2013

 --------------------
 #p B2PLYPD3/Def2QZVP
 --------------------

 --------
 acrolein
 --------
 Symbolic Z-matrix:
 Charge =  0 Multiplicity = 1

                         Standard orientation:
 ---------------------------------------------------------------------
 Center     Atomic      Atomic             Coordinates (Angstroms)
 Number     Number       Type             X           Y           Z
 ---------------------------------------------------------------------
      1          6           0        0.683117    0.381030   -0.033387
      2          8           0        1.765815   -0.154088    0.007876
      3          6           0       -0.515077   -0.404595   -0.031592
      4          6           0       -1.747513    0.092032    0.028698
      5          1           0       -0.484221   -1.421523    0.087624
      6          1           0       -1.882562    1.209462   -0.116751
      7          1           0       -2.711378   -0.469796    0.008682
      8          1           0        0.428485    1.503755    0.175124
 ---------------------------------------------------------------------

 SCF Done:  E(RB2PLYPD3) =  -191.598763210     A.U. after   13 cycles
 E2(B2PLYPD3) =    -0.2483632654D+00 E(B2PLYPD3) =    -0.19184712647496D+03

 The electronic state is 1-A.
 Alpha  occ. eigenvalues --  -19.73292 -10.72275 -10.66113 -10.63249  -1.20147
 Alpha  occ. eigenvalues --   -0.93342  -0.75511  -0.66821  -0.56769  -0.56002
 Alpha  occ. eigenvalues --   -0.50838  -0.47376  -0.45223  -0.34903  -0.33948
 Alpha virt. eigenvalues --   -0.02178   0.05594   0.07085   0.07942   0.09782
 Alpha virt. eigenvalues --    0.12309   0.13891   0.15179   0.18205   0.19136
 Alpha virt. eigenvalues --    0.20041   0.21247   0.24633   0.26952   0.28540

 Mulliken charges:
               1
     1  C    0.160063
     2  O   -0.337978
     3  C   -0.037182
     4  C   -0.117603
     5  H    0.108753
     6  H    0.060739
     7  H    0.099159
     8  H    0.064051
 Sum of Mulliken charges =   0.00000

 Dipole moment (field-independent basis, Debye):
    X=             -3.4157    Y=              0.7444    Z=             -0.0037  Tot=              3.4958
 Quadrupole moment (field-independent basis, Debye-Ang):
   XX=            -27.0057   YY=            -22.2038   ZZ=            -25.1632
   XY=              1.2147   XZ=              0.0508   YZ=             -0.2013

 Normal termination of Gaussian 09 at Wed Aug 26 11:28:14 2020.
