 Gaussian 09, Revision D.01,
 Gaussian 09:  ES64L-G09RevD.01 24-Apr-2013

 --------------------
 #p B2PLYPD3/Def2QZVP
 --------------------

 --------
 acrolein
 --------
 Symbolic Z-matrix:
 Charge =  0 Multiplicity = 1

                         Standard orientation:
 ---------------------------------------------------------------------
 Center     Atomic      Atomic             Coordinates (Angstroms)
 Number     Number       Type             X           Y           Z
 ---------------------------------------------------------------------
      1          6           0       -0.700451    0.381596    0.053911
      2          8           0       -1.771401   -0.161488   -0.067037
      3          6           0        0.523150   -0.421666    0.127452
      4          6           0        1.785683    0.114401   -0.068292
      5          1           0        0.461588   -1.571322   -0.051410
      6          1           0        1.785124    1.215447   -0.034734
      7          1           0        2.770380   -0.439297   -0.102197
      8          1           0       -0.496182    1.641086    0.046208
 ---------------------------------------------------------------------

 SCF Done:  E(RB2PLYPD3) =  -191.584493978     A.U. after   13 cycles
 E2(B2PLYPD3) =    -0.2516215730D+00 E(B2PLYPD3) =    -0.19183611555113D+03

 The electronic state is 1-A.
 Alpha  occ. eigenvalues --  -19.73613 -10.73674 -10.67014 -10.65889  -1.20443
 Alpha  occ. eigenvalues --   -0.91454  -0.74641  -0.64255  -0.56110  -0.55023
 Alpha  occ. eigenvalues --   -0.50388  -0.47390  -0.44638  -0.34351  -0.33622
 Alpha virt. eigenvalues --   -0.02559   0.05367   0.06170   0.07618   0.09784
 Alpha virt. eigenvalues --    0.11849   0.13358   0.14875   0.17248   0.19547
 Alpha virt. eigenvalues --    0.19921   0.21019   0.23776   0.26000   0.29059

 Mulliken charges:
               1
     1  C    0.162694
     2  O   -0.325636
     3  C   -0.042322
     4  C   -0.119410
     5  H    0.099508
     6  H    0.073148
     7  H    0.110723
     8  H    0.041296
 Sum of Mulliken charges =   0.00000

 Dipole moment (field-independent basis, Debye):
    X=              3.3816    Y=              0.7330    Z=              0.0176  Tot=              3.4602
 Quadrupole moment (field-independent basis, Debye-Ang):
   XX=            -26.8048   YY=            -22.2512   ZZ=            -25.7322
   XY=             -1.3296   XZ=             -0.7023   YZ=              0.2104

 Normal termination of Gaussian 09 at Wed Aug 26 11:57:50 2020.
