 Gaussian 09, Revision D.01,
 Gaussian 09:  ES64L-G09RevD.01 24-Apr-2013

 --------------------
 #p B2PLYPD3/Def2QZVP
 --------------------

 --------
 acrolein
 --------
 Symbolic Z-matrix:
 Charge =  0 Multiplicity = 1

                         Standard orientation:
 ---------------------------------------------------------------------
 Center     Atomic      Atomic             Coordinates (Angstroms)
 Number     Number       Type             X           Y           Z
 ---------------------------------------------------------------------
      1          6           0       -0.706352    0.399747    0.054467
      2          8           0       -1.774237   -0.163388   -0.043727
      3          6           0        0.538461   -0.414241    0.050593
      4          6           0        1.781111    0.097345   -0.044517
      5          1           0        0.430127   -1.572909    0.040351
      6          1           0        1.821404    1.177243    0.037163
      7          1           0        2.695807   -0.406843   -0.064547
      8          1           0       -0.432761    1.612509   -0.026411
 ---------------------------------------------------------------------

 SCF Done:  E(RB2PLYPD3) =  -191.593865394     A.U. after   13 cycles
 E2(B2PLYPD3) =    -0.2499387334D+00 E(B2PLYPD3) =    -0.19184380412769D+03

 The electronic state is 1-A.
 Alpha  occ. eigenvalues --  -19.73932 -10.73771 -10.65335 -10.65006  -1.20344
 Alpha  occ. eigenvalues --   -0.92023  -0.75195  -0.64764  -0.57135  -0.55089
 Alpha  occ. eigenvalues --   -0.51350  -0.47305  -0.44743  -0.34463  -0.34024
 Alpha virt. eigenvalues --   -0.02048   0.05547   0.06682   0.07693   0.09834
 Alpha virt. eigenvalues --    0.12220   0.13764   0.15369   0.16770   0.19437
 Alpha virt. eigenvalues --    0.19967   0.22111   0.24964   0.26212   0.28565

 Mulliken charges:
               1
     1  C    0.169797
     2  O   -0.326259
     3  C   -0.038756
     4  C   -0.126800
     5  H    0.094149
     6  H    0.066165
     7  H    0.109525
     8  H    0.052180
 Sum of Mulliken charges =   0.00000

 Dipole moment (field-independent basis, Debye):
    X=              3.2593    Y=              0.8054    Z=              0.1469  Tot=              3.3605
 Quadrupole moment (field-independent basis, Debye-Ang):
   XX=            -26.9622   YY=            -22.1522   ZZ=            -25.4990
   XY=             -1.1391   XZ=             -0.3030   YZ=              0.0529

 Normal termination of Gaussian 09 at Wed Aug 26 12:25:30 2020.
