 Gaussian 09, Revision D.01,
 Gaussian 09:  ES64L-G09RevD.01 24-Apr-2013

 --------------------
 #p B2PLYPD3/Def2QZVP
 --------------------

 --------
 acrolein
 --------
 Symbolic Z-matrix:
 Charge =  0 Multiplicity = 1

                         Standard orientation:
 ---------------------------------------------------------------------
 Center     Atomic      Atomic             Coordinates (Angstroms)
 Number     Number       Type             X           Y           Z
 ---------------------------------------------------------------------
      1          6           0       -0.673886    0.352410    0.030347
      2          8           0       -1.778687   -0.123978   -0.019922
      3          6           0        0.543000   -0.445800    0.018895
      4          6           0        1.760107    0.145293   -0.018982
      5          1           0        0.424313   -1.545817    0.005194
      6          1           0        1.816871    1.213302    0.007747
      7          1           0        2.736231   -0.441699   -0.017347
      8          1           0       -0.523252    1.454622   -0.017785
 ---------------------------------------------------------------------

 SCF Done:  E(RB2PLYPD3) =  -191.612867992     A.U. after   13 cycles
 E2(B2PLYPD3) =    -0.2477045346D+00 E(B2PLYPD3) =    -0.19186057252690D+03

 The electronic state is 1-A.
 Alpha  occ. eigenvalues --  -19.72717 -10.71449 -10.66277 -10.64800  -1.19927
 Alpha  occ. eigenvalues --   -0.92544  -0.75181  -0.66714  -0.56588  -0.55837
 Alpha  occ. eigenvalues --   -0.50181  -0.47051  -0.46677  -0.34367  -0.33829
 Alpha virt. eigenvalues --   -0.01975   0.05648   0.06985   0.08215   0.09754
 Alpha virt. eigenvalues --    0.12387   0.13954   0.15369   0.17418   0.19796
 Alpha virt. eigenvalues --    0.20022   0.21218   0.25346   0.26395   0.28983

 Mulliken charges:
               1
     1  C    0.154842
     2  O   -0.345044
     3  C   -0.036794
     4  C   -0.134431
     5  H    0.105139
     6  H    0.087258
     7  H    0.102425
     8  H    0.066606
 Sum of Mulliken charges =   0.00000

 Dipole moment (field-independent basis, Debye):
    X=              3.4591    Y=              0.7623    Z=              0.0681  Tot=              3.5428
 Quadrupole moment (field-independent basis, Debye-Ang):
   XX=            -27.3234   YY=            -21.7794   ZZ=            -25.3385
   XY=             -0.9831   XZ=             -0.1158   YZ=              0.0123

 Normal termination of Gaussian 09 at Wed Aug 26 12:27:42 2020.
