 Gaussian 09, Revision D.01,
 Gaussian 09:  ES64L-G09RevD.01 24-Apr-2013

 --------------------
 #p B2PLYPD3/Def2QZVP
 --------------------

 --------
 acrolein
 --------
 Symbolic Z-matrix:
 Charge =  0 Multiplicity = 1

                         Standard orientation:
 ---------------------------------------------------------------------
 Center     Atomic      Atomic             Coordinates (Angstroms)
 Number     Number       Type             X           Y           Z
 ---------------------------------------------------------------------
      1          6           0        0.632401    0.306601    0.083620
      2          8           0        1.823074   -0.077970   -0.056406
      3          6           0       -0.556072   -0.474882    0.018483
      4          6           0       -1.761227    0.164767   -0.053459
      5          1           0       -0.389833   -1.527722    0.048395
      6          1           0       -1.876156    1.309210   -0.105134
      7          1           0       -2.730685   -0.473856    0.088851
      8          1           0        0.521468    1.337216    0.127265
 ---------------------------------------------------------------------

 SCF Done:  E(RB2PLYPD3) =  -191.593085768     A.U. after   13 cycles
 E2(B2PLYPD3) =    -0.2509203996D+00 E(B2PLYPD3) =    -0.19184400616750D+03

 The electronic state is 1-A.
 Alpha  occ. eigenvalues --  -19.72300 -10.70673 -10.68464 -10.65182  -1.16379
 Alpha  occ. eigenvalues --   -0.93332  -0.75909  -0.67891  -0.56243  -0.55450
 Alpha  occ. eigenvalues --   -0.49380  -0.46947  -0.45186  -0.34277  -0.33631
 Alpha virt. eigenvalues --   -0.03373   0.05087   0.06905   0.07928   0.09597
 Alpha virt. eigenvalues --    0.12180   0.13662   0.15184   0.17783   0.18583
 Alpha virt. eigenvalues --    0.20048   0.21321   0.24803   0.26679   0.29134

 Mulliken charges:
               1
     1  C    0.153743
     2  O   -0.382496
     3  C   -0.025062
     4  C   -0.124000
     5  H    0.110369
     6  H    0.097128
     7  H    0.098210
     8  H    0.072108
 Sum of Mulliken charges =   0.00000

 Dipole moment (field-independent basis, Debye):
    X=             -3.9814    Y=              0.6776    Z=              0.3027  Tot=              4.0500
 Quadrupole moment (field-independent basis, Debye-Ang):
   XX=            -28.0412   YY=            -21.5253   ZZ=            -25.4145
   XY=              0.5343   XZ=              0.1918   YZ=             -0.2295

 Normal termination of Gaussian 09 at Wed Aug 26 13:00:03 2020.
