 Gaussian 09, Revision D.01,
 Gaussian 09:  ES64L-G09RevD.01 24-Apr-2013

 --------------------
 #p B2PLYPD3/Def2QZVP
 --------------------

 --------
 acrolein
 --------
 Symbolic Z-matrix:
 Charge =  0 Multiplicity = 1

                         Standard orientation:
 ---------------------------------------------------------------------
 Center     Atomic      Atomic             Coordinates (Angstroms)
 Number     Number       Type             X           Y           Z
 ---------------------------------------------------------------------
      1          6           0        0.679589    0.351628   -0.032358
      2          8           0        1.770325   -0.120747    0.039552
      3          6           0       -0.541514   -0.430741   -0.039309
      4          6           0       -1.762626    0.146662    0.012392
      5          1           0       -0.413519   -1.598178   -0.002351
      6          1           0       -1.831743    1.139226    0.175819
      7          1           0       -2.699531   -0.406890    0.010133
      8          1           0        0.529496    1.426523   -0.144374
 ---------------------------------------------------------------------

 SCF Done:  E(RB2PLYPD3) =  -191.605660989     A.U. after   13 cycles
 E2(B2PLYPD3) =    -0.2466931727D+00 E(B2PLYPD3) =    -0.19185235416212D+03

 The electronic state is 1-A.
 Alpha  occ. eigenvalues --  -19.72675 -10.71008 -10.65233 -10.65011  -1.20734
 Alpha  occ. eigenvalues --   -0.92695  -0.76141  -0.66613  -0.57397  -0.56209
 Alpha  occ. eigenvalues --   -0.50834  -0.47431  -0.46218  -0.34297  -0.33849
 Alpha virt. eigenvalues --   -0.01964   0.05861   0.06933   0.08413   0.09779
 Alpha virt. eigenvalues --    0.12729   0.14165   0.15494   0.16953   0.19523
 Alpha virt. eigenvalues --    0.20338   0.21874   0.25243   0.26450   0.28668

 Mulliken charges:
               1
     1  C    0.153794
     2  O   -0.337961
     3  C   -0.037356
     4  C   -0.131492
     5  H    0.094451
     6  H    0.086187
     7  H    0.103307
     8  H    0.069069
 Sum of Mulliken charges =   0.00000

 Dipole moment (field-independent basis, Debye):
    X=             -3.3987    Y=              0.8008    Z=             -0.0038  Tot=              3.4918
 Quadrupole moment (field-independent basis, Debye-Ang):
   XX=            -27.0837   YY=            -21.8905   ZZ=            -25.1770
   XY=              0.8804   XZ=             -0.5204   YZ=              0.1273

 Normal termination of Gaussian 09 at Wed Aug 26 08:52:20 2020.
