 Gaussian 09, Revision D.01,
 Gaussian 09:  ES64L-G09RevD.01 24-Apr-2013

 --------------------
 #p B2PLYPD3/Def2QZVP
 --------------------

 --------
 acrolein
 --------
 Symbolic Z-matrix:
 Charge =  0 Multiplicity = 1

                         Standard orientation:
 ---------------------------------------------------------------------
 Center     Atomic      Atomic             Coordinates (Angstroms)
 Number     Number       Type             X           Y           Z
 ---------------------------------------------------------------------
      1          6           0       -0.661371    0.344944   -0.018628
      2          8           0       -1.790892   -0.120789    0.012630
      3          6           0        0.552521   -0.441097   -0.016687
      4          6           0        1.759368    0.134122   -0.002218
      5          1           0        0.419653   -1.506971    0.018335
      6          1           0        1.844233    1.192677    0.016498
      7          1           0        2.666615   -0.425212    0.060785
      8          1           0       -0.506467    1.478001    0.028538
 ---------------------------------------------------------------------

 SCF Done:  E(RB2PLYPD3) =  -191.614637696     A.U. after   12 cycles
 E2(B2PLYPD3) =    -0.2478731606D+00 E(B2PLYPD3) =    -0.19186251085608D+03

 The electronic state is 1-A.
 Alpha  occ. eigenvalues --  -19.72826 -10.71861 -10.65452 -10.64402  -1.18847
 Alpha  occ. eigenvalues --   -0.93407  -0.76110  -0.66734  -0.56796  -0.56422
 Alpha  occ. eigenvalues --   -0.50365  -0.47254  -0.46541  -0.34687  -0.33841
 Alpha virt. eigenvalues --   -0.02232   0.05748   0.07098   0.08302   0.09793
 Alpha virt. eigenvalues --    0.12565   0.13931   0.15317   0.17369   0.19867
 Alpha virt. eigenvalues --    0.20011   0.21727   0.25411   0.26396   0.28828

 Mulliken charges:
               1
     1  C    0.157319
     2  O   -0.355088
     3  C   -0.030705
     4  C   -0.128018
     5  H    0.105943
     6  H    0.086762
     7  H    0.104083
     8  H    0.059704
 Sum of Mulliken charges =   0.00000

 Dipole moment (field-independent basis, Debye):
    X=              3.6280    Y=              0.7098    Z=              0.0443  Tot=              3.6971
 Quadrupole moment (field-independent basis, Debye-Ang):
   XX=            -27.3313   YY=            -21.8648   ZZ=            -25.1984
   XY=             -0.8631   XZ=              0.2461   YZ=             -0.0315

 Normal termination of Gaussian 09 at Wed Aug 26 15:17:52 2020.
