 Gaussian 09, Revision D.01,
 Gaussian 09:  ES64L-G09RevD.01 24-Apr-2013

 --------------------
 #p B2PLYPD3/Def2QZVP
 --------------------

 --------
 acrolein
 --------
 Symbolic Z-matrix:
 Charge =  0 Multiplicity = 1

                         Standard orientation:
 ---------------------------------------------------------------------
 Center     Atomic      Atomic             Coordinates (Angstroms)
 Number     Number       Type             X           Y           Z
 ---------------------------------------------------------------------
      1          6           0        0.672279    0.344367    0.008323
      2          8           0        1.797094   -0.115780   -0.019338
      3          6           0       -0.573382   -0.447905    0.027985
      4          6           0       -1.750084    0.141440   -0.020563
      5          1           0       -0.465711   -1.528998    0.036574
      6          1           0       -1.864902    1.229936    0.002442
      7          1           0       -2.627764   -0.421519   -0.043643
      8          1           0        0.488744    1.419409    0.064866
 ---------------------------------------------------------------------

 SCF Done:  E(RB2PLYPD3) =  -191.615625167     A.U. after   12 cycles
 E2(B2PLYPD3) =    -0.2468511615D+00 E(B2PLYPD3) =    -0.19186247632838D+03

 The electronic state is 1-A.
 Alpha  occ. eigenvalues --  -19.72926 -10.71574 -10.64922 -10.64228  -1.19217
 Alpha  occ. eigenvalues --   -0.93425  -0.75825  -0.67040  -0.56874  -0.56415
 Alpha  occ. eigenvalues --   -0.50863  -0.46955  -0.46509  -0.34998  -0.33859
 Alpha virt. eigenvalues --   -0.01637   0.05794   0.07184   0.08221   0.09709
 Alpha virt. eigenvalues --    0.12708   0.14050   0.15331   0.17476   0.19694
 Alpha virt. eigenvalues --    0.19996   0.21869   0.25524   0.26580   0.28430

 Mulliken charges:
               1
     1  C    0.158183
     2  O   -0.350759
     3  C   -0.037480
     4  C   -0.129113
     5  H    0.101419
     6  H    0.083014
     7  H    0.102493
     8  H    0.072243
 Sum of Mulliken charges =   0.00000

 Dipole moment (field-independent basis, Debye):
    X=             -3.5261    Y=              0.7460    Z=              0.0711  Tot=              3.6049
 Quadrupole moment (field-independent basis, Debye-Ang):
   XX=            -27.5169   YY=            -21.7324   ZZ=            -25.1274
   XY=              0.8382   XZ=              0.1844   YZ=              0.0192

 Normal termination of Gaussian 09 at Wed Aug 26 18:52:36 2020.
