 Gaussian 09, Revision D.01,
 Gaussian 09:  ES64L-G09RevD.01 24-Apr-2013

 --------------------
 #p B2PLYPD3/Def2QZVP
 --------------------

 --------
 acrolein
 --------
 Symbolic Z-matrix:
 Charge =  0 Multiplicity = 1

                         Standard orientation:
 ---------------------------------------------------------------------
 Center     Atomic      Atomic             Coordinates (Angstroms)
 Number     Number       Type             X           Y           Z
 ---------------------------------------------------------------------
      1          6           0        0.671438    0.335524   -0.044853
      2          8           0        1.780759   -0.101689    0.037328
      3          6           0       -0.548549   -0.470707   -0.026998
      4          6           0       -1.758916    0.149739    0.009112
      5          1           0       -0.374111   -1.573860   -0.002178
      6          1           0       -1.862765    1.278344    0.114779
      7          1           0       -2.730919   -0.419390    0.034289
      8          1           0        0.537887    1.441078   -0.069079
 ---------------------------------------------------------------------

 SCF Done:  E(RB2PLYPD3) =  -191.609680336     A.U. after   13 cycles
 E2(B2PLYPD3) =    -0.2477919882D+00 E(B2PLYPD3) =    -0.19185747232462D+03

 The electronic state is 1-A.
 Alpha  occ. eigenvalues --  -19.72569 -10.71172 -10.67091 -10.65295  -1.20367
 Alpha  occ. eigenvalues --   -0.92124  -0.74800  -0.66272  -0.56356  -0.55556
 Alpha  occ. eigenvalues --   -0.50297  -0.47218  -0.46323  -0.34334  -0.33570
 Alpha virt. eigenvalues --   -0.01913   0.05522   0.06978   0.08279   0.09658
 Alpha virt. eigenvalues --    0.12248   0.13975   0.15387   0.17301   0.19438
 Alpha virt. eigenvalues --    0.19998   0.21135   0.25149   0.26441   0.28810

 Mulliken charges:
               1
     1  C    0.162393
     2  O   -0.342349
     3  C   -0.045393
     4  C   -0.127332
     5  H    0.106180
     6  H    0.087154
     7  H    0.100499
     8  H    0.058848
 Sum of Mulliken charges =   0.00000

 Dipole moment (field-independent basis, Debye):
    X=             -3.4452    Y=              0.6708    Z=             -0.0295  Tot=              3.5100
 Quadrupole moment (field-independent basis, Debye-Ang):
   XX=            -27.3285   YY=            -21.7599   ZZ=            -25.4162
   XY=              0.6656   XZ=             -0.4571   YZ=              0.1094

 Normal termination of Gaussian 09 at Wed Aug 26 09:22:32 2020.
