 Gaussian 09, Revision D.01,
 Gaussian 09:  ES64L-G09RevD.01 24-Apr-2013

 --------------------
 #p B2PLYPD3/Def2QZVP
 --------------------

 --------
 acrolein
 --------
 Symbolic Z-matrix:
 Charge =  0 Multiplicity = 1

                         Standard orientation:
 ---------------------------------------------------------------------
 Center     Atomic      Atomic             Coordinates (Angstroms)
 Number     Number       Type             X           Y           Z
 ---------------------------------------------------------------------
      1          6           0       -0.683851    0.345981    0.088699
      2          8           0       -1.773369   -0.094535   -0.071739
      3          6           0        0.569886   -0.517625    0.047223
      4          6           0        1.759113    0.170916   -0.064506
      5          1           0        0.416688   -1.544161    0.064857
      6          1           0        1.827430    1.315199   -0.078427
      7          1           0        2.626461   -0.366827    0.022009
      8          1           0       -0.554515    1.356432    0.136977
 ---------------------------------------------------------------------

 SCF Done:  E(RB2PLYPD3) =  -191.598121202     A.U. after   13 cycles
 E2(B2PLYPD3) =    -0.2464849673D+00 E(B2PLYPD3) =    -0.19184460616904D+03

 The electronic state is 1-A.
 Alpha  occ. eigenvalues --  -19.72469 -10.70424 -10.65743 -10.64803  -1.20854
 Alpha  occ. eigenvalues --   -0.91398  -0.74928  -0.68658  -0.56615  -0.56069
 Alpha  occ. eigenvalues --   -0.50891  -0.47874  -0.47026  -0.33975  -0.33184
 Alpha virt. eigenvalues --   -0.01356   0.05743   0.07364   0.07842   0.09676
 Alpha virt. eigenvalues --    0.12575   0.14139   0.15552   0.17871   0.19148
 Alpha virt. eigenvalues --    0.20023   0.21680   0.24736   0.26696   0.29008

 Mulliken charges:
               1
     1  C    0.160243
     2  O   -0.337665
     3  C   -0.069974
     4  C   -0.135289
     5  H    0.114299
     6  H    0.084282
     7  H    0.100567
     8  H    0.083536
 Sum of Mulliken charges =   0.00000

 Dipole moment (field-independent basis, Debye):
    X=              3.1981    Y=              0.7520    Z=              0.3329  Tot=              3.3021
 Quadrupole moment (field-independent basis, Debye-Ang):
   XX=            -27.7079   YY=            -21.2778   ZZ=            -25.2874
   XY=             -0.7056   XZ=             -0.3983   YZ=             -0.1424

 Normal termination of Gaussian 09 at Wed Aug 26 13:42:00 2020.
