 Gaussian 09, Revision D.01,
 Gaussian 09:  ES64L-G09RevD.01 24-Apr-2013

 --------------------
 #p B2PLYPD3/Def2QZVP
 --------------------

 --------
 acrolein
 --------
 Symbolic Z-matrix:
 Charge =  0 Multiplicity = 1

                         Standard orientation:
 ---------------------------------------------------------------------
 Center     Atomic      Atomic             Coordinates (Angstroms)
 Number     Number       Type             X           Y           Z
 ---------------------------------------------------------------------
      1          6           0        0.673488    0.368302    0.046063
      2          8           0        1.779207   -0.137679   -0.039993
      3          6           0       -0.553913   -0.449698    0.007878
      4          6           0       -1.738702    0.146182   -0.036355
      5          1           0       -0.524396   -1.514028    0.128876
      6          1           0       -1.785588    1.186482   -0.050844
      7          1           0       -2.701825   -0.411203    0.018910
      8          1           0        0.492910    1.451466    0.117485
 ---------------------------------------------------------------------

 SCF Done:  E(RB2PLYPD3) =  -191.612339749     A.U. after   12 cycles
 E2(B2PLYPD3) =    -0.2474070312D+00 E(B2PLYPD3) =    -0.19185974677997D+03

 The electronic state is 1-A.
 Alpha  occ. eigenvalues --  -19.72931 -10.71934 -10.64932 -10.64018  -1.19130
 Alpha  occ. eigenvalues --   -0.93185  -0.75134  -0.67588  -0.56953  -0.56011
 Alpha  occ. eigenvalues --   -0.50411  -0.47140  -0.46285  -0.34607  -0.34049
 Alpha virt. eigenvalues --   -0.01609   0.05778   0.06970   0.07911   0.09742
 Alpha virt. eigenvalues --    0.12631   0.14136   0.15241   0.17697   0.19780
 Alpha virt. eigenvalues --    0.20140   0.21345   0.25313   0.26534   0.28937

 Mulliken charges:
               1
     1  C    0.146852
     2  O   -0.347597
     3  C   -0.033576
     4  C   -0.130822
     5  H    0.104754
     6  H    0.079770
     7  H    0.095955
     8  H    0.084665
 Sum of Mulliken charges =   0.00000

 Dipole moment (field-independent basis, Debye):
    X=             -3.4325    Y=              0.8672    Z=              0.2792  Tot=              3.5513
 Quadrupole moment (field-independent basis, Debye-Ang):
   XX=            -27.5497   YY=            -21.6590   ZZ=            -25.1759
   XY=              1.1551   XZ=              0.1265   YZ=             -0.1902

 Normal termination of Gaussian 09 at Wed Aug 26 08:49:05 2020.
