 Gaussian 09, Revision D.01,
 Gaussian 09:  ES64L-G09RevD.01 24-Apr-2013

 --------------------
 #p B2PLYPD3/Def2QZVP
 --------------------

 --------
 acrolein
 --------
 Symbolic Z-matrix:
 Charge =  0 Multiplicity = 1

                         Standard orientation:
 ---------------------------------------------------------------------
 Center     Atomic      Atomic             Coordinates (Angstroms)
 Number     Number       Type             X           Y           Z
 ---------------------------------------------------------------------
      1          6           0       -0.664213    0.384878   -0.054433
      2          8           0       -1.777381   -0.130247    0.070075
      3          6           0        0.534815   -0.456363   -0.061311
      4          6           0        1.746428    0.116733    0.020167
      5          1           0        0.415767   -1.530582   -0.176436
      6          1           0        1.881068    1.238137    0.020743
      7          1           0        2.674930   -0.410898    0.279853
      8          1           0       -0.454900    1.473829   -0.111296
 ---------------------------------------------------------------------

 SCF Done:  E(RB2PLYPD3) =  -191.607744330     A.U. after   13 cycles
 E2(B2PLYPD3) =    -0.2492461727D+00 E(B2PLYPD3) =    -0.19185699050291D+03

 The electronic state is 1-A.
 Alpha  occ. eigenvalues --  -19.72899 -10.72072 -10.66225 -10.64694  -1.18325
 Alpha  occ. eigenvalues --   -0.92669  -0.75243  -0.66984  -0.56437  -0.55509
 Alpha  occ. eigenvalues --   -0.50358  -0.46910  -0.45491  -0.34372  -0.33851
 Alpha virt. eigenvalues --   -0.02113   0.05514   0.06954   0.07634   0.09614
 Alpha virt. eigenvalues --    0.12275   0.13928   0.15134   0.17629   0.19418
 Alpha virt. eigenvalues --    0.19697   0.21706   0.25075   0.26605   0.28737

 Mulliken charges:
               1
     1  C    0.158386
     2  O   -0.359224
     3  C   -0.042110
     4  C   -0.124025
     5  H    0.114280
     6  H    0.069625
     7  H    0.098164
     8  H    0.084905
 Sum of Mulliken charges =   0.00000

 Dipole moment (field-independent basis, Debye):
    X=              3.5210    Y=              0.8509    Z=             -0.1606  Tot=              3.6259
 Quadrupole moment (field-independent basis, Debye-Ang):
   XX=            -27.6589   YY=            -21.6514   ZZ=            -25.2768
   XY=             -0.8341   XZ=              0.9798   YZ=              0.0436

 Normal termination of Gaussian 09 at Wed Aug 26 13:46:52 2020.
