 Gaussian 09, Revision D.01,
 Gaussian 09:  ES64L-G09RevD.01 24-Apr-2013

 --------------------
 #p B2PLYPD3/Def2QZVP
 --------------------

 --------
 acrolein
 --------
 Symbolic Z-matrix:
 Charge =  0 Multiplicity = 1

                         Standard orientation:
 ---------------------------------------------------------------------
 Center     Atomic      Atomic             Coordinates (Angstroms)
 Number     Number       Type             X           Y           Z
 ---------------------------------------------------------------------
      1          6           0       -0.660297    0.354132   -0.021598
      2          8           0       -1.795283   -0.119738    0.021540
      3          6           0        0.578119   -0.471287   -0.013652
      4          6           0        1.738680    0.142700    0.003208
      5          1           0        0.448950   -1.550192    0.012403
      6          1           0        1.782176    1.231989    0.162579
      7          1           0        2.634361   -0.381498   -0.041020
      8          1           0       -0.442237    1.504341   -0.114033
 ---------------------------------------------------------------------

 SCF Done:  E(RB2PLYPD3) =  -191.608987833     A.U. after   13 cycles
 E2(B2PLYPD3) =    -0.2485406193D+00 E(B2PLYPD3) =    -0.19185752845258D+03

 The electronic state is 1-A.
 Alpha  occ. eigenvalues --  -19.73188 -10.72725 -10.64884 -10.64449  -1.18471
 Alpha  occ. eigenvalues --   -0.93532  -0.75150  -0.66273  -0.57039  -0.55460
 Alpha  occ. eigenvalues --   -0.50502  -0.47131  -0.46117  -0.34980  -0.33821
 Alpha virt. eigenvalues --   -0.01697   0.05721   0.06971   0.07605   0.09802
 Alpha virt. eigenvalues --    0.12663   0.13781   0.15304   0.16971   0.19489
 Alpha virt. eigenvalues --    0.20327   0.21724   0.24982   0.26612   0.28724

 Mulliken charges:
               1
     1  C    0.162102
     2  O   -0.353111
     3  C   -0.040328
     4  C   -0.121662
     5  H    0.106318
     6  H    0.081965
     7  H    0.102498
     8  H    0.062218
 Sum of Mulliken charges =   0.00000

 Dipole moment (field-independent basis, Debye):
    X=              3.5393    Y=              0.6779    Z=              0.0023  Tot=              3.6036
 Quadrupole moment (field-independent basis, Debye-Ang):
   XX=            -27.7174   YY=            -21.7279   ZZ=            -25.2271
   XY=             -0.8401   XZ=              0.2543   YZ=              0.1436

 Normal termination of Gaussian 09 at Wed Aug 26 09:08:11 2020.
