 Gaussian 09, Revision D.01,
 Gaussian 09:  ES64L-G09RevD.01 24-Apr-2013

 --------------------
 #p B2PLYPD3/Def2QZVP
 --------------------

 --------
 acrolein
 --------
 Symbolic Z-matrix:
 Charge =  0 Multiplicity = 1

                         Standard orientation:
 ---------------------------------------------------------------------
 Center     Atomic      Atomic             Coordinates (Angstroms)
 Number     Number       Type             X           Y           Z
 ---------------------------------------------------------------------
      1          6           0       -0.713615    0.377558    0.072273
      2          8           0       -1.751047   -0.167339   -0.068157
      3          6           0        0.538879   -0.417828    0.053028
      4          6           0        1.773074    0.153500   -0.075250
      5          1           0        0.484642   -1.476229    0.104239
      6          1           0        1.729410    1.068943   -0.107230
      7          1           0        2.854084   -0.413750    0.079858
      8          1           0       -0.649788    1.480373    0.168080
 ---------------------------------------------------------------------

 SCF Done:  E(RB2PLYPD3) =  -191.571686380     A.U. after   12 cycles
 E2(B2PLYPD3) =    -0.2466729533D+00 E(B2PLYPD3) =    -0.19181835933298D+03

 The electronic state is 1-A.
 Alpha  occ. eigenvalues --  -19.72910 -10.71652 -10.64833 -10.64262  -1.21752
 Alpha  occ. eigenvalues --   -0.92289  -0.75097  -0.68016  -0.58057  -0.55274
 Alpha  occ. eigenvalues --   -0.50092  -0.47787  -0.46974  -0.34249  -0.33544
 Alpha virt. eigenvalues --   -0.01640   0.05628   0.07162   0.08166   0.09837
 Alpha virt. eigenvalues --    0.12059   0.14151   0.15562   0.17587   0.19338
 Alpha virt. eigenvalues --    0.20228   0.21540   0.25330   0.25756   0.29360

 Mulliken charges:
               1
     1  C    0.136676
     2  O   -0.322672
     3  C   -0.043177
     4  C   -0.161240
     5  H    0.109867
     6  H    0.100000
     7  H    0.098492
     8  H    0.082055
 Sum of Mulliken charges =   0.00000

 Dipole moment (field-independent basis, Debye):
    X=              3.0200    Y=              0.9512    Z=              0.3574  Tot=              3.1864
 Quadrupole moment (field-independent basis, Debye-Ang):
   XX=            -26.8740   YY=            -21.9052   ZZ=            -25.2364
   XY=             -1.5381   XZ=             -0.2061   YZ=             -0.2214

 Normal termination of Gaussian 09 at Wed Aug 26 14:18:37 2020.
