 Gaussian 09, Revision D.01,
 Gaussian 09:  ES64L-G09RevD.01 24-Apr-2013

 --------------------
 #p B2PLYPD3/Def2QZVP
 --------------------

 --------
 acrolein
 --------
 Symbolic Z-matrix:
 Charge =  0 Multiplicity = 1

                         Standard orientation:
 ---------------------------------------------------------------------
 Center     Atomic      Atomic             Coordinates (Angstroms)
 Number     Number       Type             X           Y           Z
 ---------------------------------------------------------------------
      1          6           0        0.679451    0.358013    0.002977
      2          8           0        1.784818   -0.130565   -0.004033
      3          6           0       -0.550149   -0.438224    0.009099
      4          6           0       -1.755381    0.128911   -0.007632
      5          1           0       -0.463626   -1.503019    0.018555
      6          1           0       -1.873136    1.239378    0.049981
      7          1           0       -2.687519   -0.448443   -0.040424
      8          1           0        0.502214    1.464398   -0.022510
 ---------------------------------------------------------------------

 SCF Done:  E(RB2PLYPD3) =  -191.615382567     A.U. after   13 cycles
 E2(B2PLYPD3) =    -0.2473199583D+00 E(B2PLYPD3) =    -0.19186270252535D+03

 The electronic state is 1-A.
 Alpha  occ. eigenvalues --  -19.72930 -10.71778 -10.65900 -10.64135  -1.19752
 Alpha  occ. eigenvalues --   -0.92891  -0.75235  -0.66806  -0.56498  -0.56154
 Alpha  occ. eigenvalues --   -0.50657  -0.46986  -0.46374  -0.34657  -0.33947
 Alpha virt. eigenvalues --   -0.01761   0.05652   0.07161   0.08235   0.09698
 Alpha virt. eigenvalues --    0.12409   0.13953   0.15397   0.17663   0.19533
 Alpha virt. eigenvalues --    0.19966   0.21444   0.25524   0.26413   0.28639

 Mulliken charges:
               1
     1  C    0.157759
     2  O   -0.345052
     3  C   -0.041243
     4  C   -0.128599
     5  H    0.106217
     6  H    0.078864
     7  H    0.101242
     8  H    0.070812
 Sum of Mulliken charges =   0.00000

 Dipole moment (field-independent basis, Debye):
    X=             -3.4579    Y=              0.7636    Z=              0.0281  Tot=              3.5413
 Quadrupole moment (field-independent basis, Debye-Ang):
   XX=            -27.3408   YY=            -21.8093   ZZ=            -25.2510
   XY=              1.0088   XZ=              0.0287   YZ=              0.0547

 Normal termination of Gaussian 09 at Wed Aug 26 18:52:06 2020.
