 Gaussian 09, Revision D.01,
 Gaussian 09:  ES64L-G09RevD.01 24-Apr-2013

 --------------------
 #p B2PLYPD3/Def2QZVP
 --------------------

 --------
 acrolein
 --------
 Symbolic Z-matrix:
 Charge =  0 Multiplicity = 1

                         Standard orientation:
 ---------------------------------------------------------------------
 Center     Atomic      Atomic             Coordinates (Angstroms)
 Number     Number       Type             X           Y           Z
 ---------------------------------------------------------------------
      1          6           0       -0.662838    0.339513    0.025283
      2          8           0       -1.795189   -0.100177   -0.029469
      3          6           0        0.569284   -0.483553    0.003538
      4          6           0        1.761935    0.156469   -0.010593
      5          1           0        0.390801   -1.595978    0.102583
      6          1           0        1.886813    1.261112   -0.062913
      7          1           0        2.594692   -0.415127   -0.031765
      8          1           0       -0.521075    1.476831    0.118473
 ---------------------------------------------------------------------

 SCF Done:  E(RB2PLYPD3) =  -191.606124761     A.U. after   13 cycles
 E2(B2PLYPD3) =    -0.2483892684D+00 E(B2PLYPD3) =    -0.19185451402989D+03

 The electronic state is 1-A.
 Alpha  occ. eigenvalues --  -19.72733 -10.71925 -10.65616 -10.65475  -1.19090
 Alpha  occ. eigenvalues --   -0.92561  -0.75613  -0.65780  -0.56650  -0.55849
 Alpha  occ. eigenvalues --   -0.50168  -0.47458  -0.46276  -0.34480  -0.33497
 Alpha virt. eigenvalues --   -0.01910   0.05752   0.06832   0.07898   0.09622
 Alpha virt. eigenvalues --    0.12502   0.13919   0.15196   0.17013   0.19573
 Alpha virt. eigenvalues --    0.20081   0.21972   0.24885   0.26469   0.28477

 Mulliken charges:
               1
     1  C    0.159695
     2  O   -0.349595
     3  C   -0.047349
     4  C   -0.129090
     5  H    0.106245
     6  H    0.094096
     7  H    0.105172
     8  H    0.060826
 Sum of Mulliken charges =   0.00000

 Dipole moment (field-independent basis, Debye):
    X=              3.5475    Y=              0.6539    Z=              0.1428  Tot=              3.6101
 Quadrupole moment (field-independent basis, Debye-Ang):
   XX=            -27.6588   YY=            -21.5335   ZZ=            -25.3718
   XY=             -0.5752   XZ=             -0.2827   YZ=             -0.1820

 Normal termination of Gaussian 09 at Wed Aug 26 09:00:09 2020.
