 Gaussian 09, Revision D.01,
 Gaussian 09:  ES64L-G09RevD.01 24-Apr-2013

 --------------------
 #p B2PLYPD3/Def2QZVP
 --------------------

 --------
 acrolein
 --------
 Symbolic Z-matrix:
 Charge =  0 Multiplicity = 1

                         Standard orientation:
 ---------------------------------------------------------------------
 Center     Atomic      Atomic             Coordinates (Angstroms)
 Number     Number       Type             X           Y           Z
 ---------------------------------------------------------------------
      1          6           0        0.661840    0.339192    0.021141
      2          8           0        1.793169   -0.111353   -0.023986
      3          6           0       -0.572034   -0.460213    0.011191
      4          6           0       -1.745580    0.146321   -0.009902
      5          1           0       -0.471538   -1.509405    0.070181
      6          1           0       -1.821807    1.224624   -0.033012
      7          1           0       -2.603146   -0.396687   -0.051153
      8          1           0        0.485782    1.420489    0.071292
 ---------------------------------------------------------------------

 SCF Done:  E(RB2PLYPD3) =  -191.613634103     A.U. after   12 cycles
 E2(B2PLYPD3) =    -0.2467360868D+00 E(B2PLYPD3) =    -0.19186037018958D+03

 The electronic state is 1-A.
 Alpha  occ. eigenvalues --  -19.72788 -10.71496 -10.64583 -10.63969  -1.18959
 Alpha  occ. eigenvalues --   -0.93697  -0.76070  -0.67492  -0.57259  -0.56467
 Alpha  occ. eigenvalues --   -0.50715  -0.47715  -0.46419  -0.34922  -0.33804
 Alpha virt. eigenvalues --   -0.01690   0.05852   0.07289   0.08140   0.09751
 Alpha virt. eigenvalues --    0.12824   0.14074   0.15264   0.17564   0.19824
 Alpha virt. eigenvalues --    0.20032   0.21919   0.25455   0.26624   0.28714

 Mulliken charges:
               1
     1  C    0.153117
     2  O   -0.353759
     3  C   -0.034125
     4  C   -0.128877
     5  H    0.104843
     6  H    0.084588
     7  H    0.102535
     8  H    0.071679
 Sum of Mulliken charges =   0.00000

 Dipole moment (field-independent basis, Debye):
    X=             -3.5686    Y=              0.7139    Z=              0.0940  Tot=              3.6405
 Quadrupole moment (field-independent basis, Debye-Ang):
   XX=            -27.5759   YY=            -21.6777   ZZ=            -25.0582
   XY=              0.8496   XZ=              0.2554   YZ=             -0.0822

 Normal termination of Gaussian 09 at Wed Aug 26 15:29:23 2020.
