 Gaussian 09, Revision D.01,
 Gaussian 09:  ES64L-G09RevD.01 24-Apr-2013

 --------------------
 #p B2PLYPD3/Def2QZVP
 --------------------

 --------
 acrolein
 --------
 Symbolic Z-matrix:
 Charge =  0 Multiplicity = 1

                         Standard orientation:
 ---------------------------------------------------------------------
 Center     Atomic      Atomic             Coordinates (Angstroms)
 Number     Number       Type             X           Y           Z
 ---------------------------------------------------------------------
      1          6           0        0.641137    0.349731    0.079551
      2          8           0        1.805539   -0.106845   -0.053707
      3          6           0       -0.626050   -0.501317    0.048912
      4          6           0       -1.718403    0.173996   -0.045270
      5          1           0       -0.477005   -1.560565    0.004764
      6          1           0       -1.866370    1.263598   -0.031397
      7          1           0       -2.486941   -0.357732   -0.050555
      8          1           0        0.605897    1.374996    0.007686
 ---------------------------------------------------------------------

 SCF Done:  E(RB2PLYPD3) =  -191.577284127     A.U. after   13 cycles
 E2(B2PLYPD3) =    -0.2478629040D+00 E(B2PLYPD3) =    -0.19182514703065D+03

 The electronic state is 1-A.
 Alpha  occ. eigenvalues --  -19.72404 -10.71265 -10.64605 -10.63150  -1.16468
 Alpha  occ. eigenvalues --   -0.94500  -0.76031  -0.68318  -0.58106  -0.56442
 Alpha  occ. eigenvalues --   -0.50371  -0.47180  -0.44886  -0.35429  -0.33338
 Alpha virt. eigenvalues --   -0.01222   0.05824   0.07086   0.07312   0.09638
 Alpha virt. eigenvalues --    0.12771   0.14212   0.15205   0.17370   0.19715
 Alpha virt. eigenvalues --    0.20014   0.22528   0.24996   0.26336   0.28653

 Mulliken charges:
               1
     1  C    0.150468
     2  O   -0.376056
     3  C   -0.053128
     4  C   -0.124912
     5  H    0.116088
     6  H    0.092246
     7  H    0.100189
     8  H    0.095106
 Sum of Mulliken charges =   0.00000

 Dipole moment (field-independent basis, Debye):
    X=             -3.6769    Y=              0.8097    Z=              0.1508  Tot=              3.7680
 Quadrupole moment (field-independent basis, Debye-Ang):
   XX=            -28.2347   YY=            -21.0202   ZZ=            -24.9972
   XY=              0.8117   XZ=              0.3957   YZ=              0.0038

 Normal termination of Gaussian 09 at Wed Aug 26 14:08:09 2020.
