 Gaussian 09, Revision D.01,
 Gaussian 09:  ES64L-G09RevD.01 24-Apr-2013

 --------------------
 #p B2PLYPD3/Def2QZVP
 --------------------

 --------
 acrolein
 --------
 Symbolic Z-matrix:
 Charge =  0 Multiplicity = 1

                         Standard orientation:
 ---------------------------------------------------------------------
 Center     Atomic      Atomic             Coordinates (Angstroms)
 Number     Number       Type             X           Y           Z
 ---------------------------------------------------------------------
      1          6           0        0.659310    0.351146    0.001952
      2          8           0        1.783879   -0.127420   -0.015896
      3          6           0       -0.557375   -0.433512    0.014142
      4          6           0       -1.741651    0.133889   -0.024759
      5          1           0       -0.485951   -1.530599    0.064096
      6          1           0       -1.841086    1.227751   -0.015620
      7          1           0       -2.634250   -0.429944    0.018653
      8          1           0        0.528553    1.443017    0.112029
 ---------------------------------------------------------------------

 SCF Done:  E(RB2PLYPD3) =  -191.614659015     A.U. after   12 cycles
 E2(B2PLYPD3) =    -0.2472768510D+00 E(B2PLYPD3) =    -0.19186193586558D+03

 The electronic state is 1-A.
 Alpha  occ. eigenvalues --  -19.72711 -10.71544 -10.65097 -10.64181  -1.18790
 Alpha  occ. eigenvalues --   -0.93748  -0.75913  -0.66753  -0.56784  -0.56693
 Alpha  occ. eigenvalues --   -0.50452  -0.46772  -0.46164  -0.34991  -0.33937
 Alpha virt. eigenvalues --   -0.01846   0.05772   0.06912   0.08331   0.09723
 Alpha virt. eigenvalues --    0.12575   0.14199   0.15301   0.17389   0.19522
 Alpha virt. eigenvalues --    0.20091   0.21798   0.25618   0.26439   0.28794

 Mulliken charges:
               1
     1  C    0.152764
     2  O   -0.354016
     3  C   -0.032525
     4  C   -0.123371
     5  H    0.100670
     6  H    0.079489
     7  H    0.102836
     8  H    0.074154
 Sum of Mulliken charges =   0.00000

 Dipole moment (field-independent basis, Debye):
    X=             -3.5800    Y=              0.7724    Z=              0.1371  Tot=              3.6649
 Quadrupole moment (field-independent basis, Debye-Ang):
   XX=            -27.4966   YY=            -21.7133   ZZ=            -25.1286
   XY=              1.0819   XZ=              0.0309   YZ=             -0.0578

 Normal termination of Gaussian 09 at Wed Aug 26 10:30:59 2020.
