 Gaussian 09, Revision D.01,
 Gaussian 09:  ES64L-G09RevD.01 24-Apr-2013

 --------------------
 #p B2PLYPD3/Def2QZVP
 --------------------

 --------
 acrolein
 --------
 Symbolic Z-matrix:
 Charge =  0 Multiplicity = 1

                         Standard orientation:
 ---------------------------------------------------------------------
 Center     Atomic      Atomic             Coordinates (Angstroms)
 Number     Number       Type             X           Y           Z
 ---------------------------------------------------------------------
      1          6           0       -0.680479   -0.349076   -0.024311
      2          8           0       -1.779662    0.097777    0.032281
      3          6           0        0.592642    0.506844   -0.041646
      4          6           0        1.747587   -0.168695    0.030577
      5          1           0        0.422406    1.578317   -0.098826
      6          1           0        1.793352   -1.249279   -0.149754
      7          1           0        2.578218    0.313062    0.194766
      8          1           0       -0.515182   -1.358755    0.007840
 ---------------------------------------------------------------------

 SCF Done:  E(RB2PLYPD3) =  -191.597970220     A.U. after   14 cycles
 E2(B2PLYPD3) =    -0.2456099609D+00 E(B2PLYPD3) =    -0.19184358018045D+03

 The electronic state is 1-A.
 Alpha  occ. eigenvalues --  -19.72627 -10.70619 -10.64705 -10.64116  -1.20738
 Alpha  occ. eigenvalues --   -0.92405  -0.75450  -0.68156  -0.57217  -0.56309
 Alpha  occ. eigenvalues --   -0.51342  -0.48189  -0.46848  -0.34313  -0.33264
 Alpha virt. eigenvalues --   -0.00904   0.05910   0.07401   0.07743   0.09725
 Alpha virt. eigenvalues --    0.12785   0.14300   0.15503   0.17390   0.19649
 Alpha virt. eigenvalues --    0.20330   0.22025   0.24677   0.26925   0.28477

 Mulliken charges:
               1
     1  C    0.160643
     2  O   -0.338487
     3  C   -0.062451
     4  C   -0.138831
     5  H    0.107951
     6  H    0.086908
     7  H    0.102878
     8  H    0.081389
 Sum of Mulliken charges =   0.00000

 Dipole moment (field-independent basis, Debye):
    X=              3.2393    Y=             -0.7587    Z=             -0.1376  Tot=              3.3298
 Quadrupole moment (field-independent basis, Debye-Ang):
   XX=            -27.6767   YY=            -21.4418   ZZ=            -25.0257
   XY=              0.6853   XZ=              0.3594   YZ=              0.1588

 Normal termination of Gaussian 09 at Wed Aug 26 13:22:00 2020.
