 Gaussian 09, Revision D.01,
 Gaussian 09:  ES64L-G09RevD.01 24-Apr-2013

 --------------------
 #p B2PLYPD3/Def2QZVP
 --------------------

 --------
 acrolein
 --------
 Symbolic Z-matrix:
 Charge =  0 Multiplicity = 1

                         Standard orientation:
 ---------------------------------------------------------------------
 Center     Atomic      Atomic             Coordinates (Angstroms)
 Number     Number       Type             X           Y           Z
 ---------------------------------------------------------------------
      1          6           0       -0.678785    0.357129    0.045267
      2          8           0       -1.778862   -0.147596   -0.047284
      3          6           0        0.541754   -0.419973    0.054091
      4          6           0        1.754632    0.148530   -0.055723
      5          1           0        0.423475   -1.450760   -0.003636
      6          1           0        1.731680    1.063076   -0.197253
      7          1           0        2.802348   -0.499405    0.124458
      8          1           0       -0.432214    1.553742    0.192893
 ---------------------------------------------------------------------

 SCF Done:  E(RB2PLYPD3) =  -191.564740178     A.U. after   13 cycles
 E2(B2PLYPD3) =    -0.2493869380D+00 E(B2PLYPD3) =    -0.19181412711633D+03

 The electronic state is 1-A.
 Alpha  occ. eigenvalues --  -19.73489 -10.72871 -10.65637 -10.63849  -1.19824
 Alpha  occ. eigenvalues --   -0.93816  -0.75932  -0.67210  -0.56654  -0.55455
 Alpha  occ. eigenvalues --   -0.49699  -0.47800  -0.46888  -0.34527  -0.33796
 Alpha virt. eigenvalues --   -0.02511   0.05363   0.06650   0.08054   0.09998
 Alpha virt. eigenvalues --    0.11912   0.13342   0.15222   0.17229   0.19246
 Alpha virt. eigenvalues --    0.20575   0.21301   0.25014   0.26074   0.28572

 Mulliken charges:
               1
     1  C    0.155793
     2  O   -0.342728
     3  C   -0.019323
     4  C   -0.148079
     5  H    0.106868
     6  H    0.100448
     7  H    0.107909
     8  H    0.039111
 Sum of Mulliken charges =   0.00000

 Dipole moment (field-independent basis, Debye):
    X=              3.4456    Y=              0.6511    Z=              0.1288  Tot=              3.5089
 Quadrupole moment (field-independent basis, Debye-Ang):
   XX=            -27.1992   YY=            -22.2529   ZZ=            -25.2200
   XY=             -1.0789   XZ=             -0.1752   YZ=             -0.2178

 Normal termination of Gaussian 09 at Wed Aug 26 11:25:45 2020.
