 Gaussian 09, Revision D.01,
 Gaussian 09:  ES64L-G09RevD.01 24-Apr-2013

 --------------------
 #p B2PLYPD3/Def2QZVP
 --------------------

 --------
 acrolein
 --------
 Symbolic Z-matrix:
 Charge =  0 Multiplicity = 1

                         Standard orientation:
 ---------------------------------------------------------------------
 Center     Atomic      Atomic             Coordinates (Angstroms)
 Number     Number       Type             X           Y           Z
 ---------------------------------------------------------------------
      1          6           0        0.647429   -0.297578    0.061757
      2          8           0        1.788209    0.080000   -0.051711
      3          6           0       -0.592479    0.464924    0.041612
      4          6           0       -1.738333   -0.169493   -0.063876
      5          1           0       -0.412250    1.572301   -0.012539
      6          1           0       -1.812245   -1.188536   -0.146711
      7          1           0       -2.574524    0.318541    0.154328
      8          1           0        0.593644   -1.329428    0.181653
 ---------------------------------------------------------------------

 SCF Done:  E(RB2PLYPD3) =  -191.595511428     A.U. after   14 cycles
 E2(B2PLYPD3) =    -0.2458264730D+00 E(B2PLYPD3) =    -0.19184133790116D+03

 The electronic state is 1-A.
 Alpha  occ. eigenvalues --  -19.72265 -10.70141 -10.64768 -10.63878  -1.19448
 Alpha  occ. eigenvalues --   -0.94235  -0.76907  -0.67627  -0.57931  -0.57299
 Alpha  occ. eigenvalues --   -0.50736  -0.47856  -0.46444  -0.35049  -0.33222
 Alpha virt. eigenvalues --   -0.01997   0.05964   0.07300   0.08519   0.09826
 Alpha virt. eigenvalues --    0.12760   0.14136   0.15660   0.17281   0.19084
 Alpha virt. eigenvalues --    0.20296   0.22435   0.25359   0.26498   0.28735

 Mulliken charges:
               1
     1  C    0.151495
     2  O   -0.352050
     3  C   -0.030606
     4  C   -0.115719
     5  H    0.099401
     6  H    0.085509
     7  H    0.101848
     8  H    0.060122
 Sum of Mulliken charges =   0.00000

 Dipole moment (field-independent basis, Debye):
    X=             -3.5725    Y=             -0.6597    Z=              0.2405  Tot=              3.6408
 Quadrupole moment (field-independent basis, Debye-Ang):
   XX=            -27.5375   YY=            -21.7450   ZZ=            -24.8431
   XY=             -0.5250   XZ=              0.1538   YZ=              0.1656

 Normal termination of Gaussian 09 at Wed Aug 26 14:46:13 2020.
