 Gaussian 09, Revision D.01,
 Gaussian 09:  ES64L-G09RevD.01 24-Apr-2013

 --------------------
 #p B2PLYPD3/Def2QZVP
 --------------------

 --------
 acrolein
 --------
 Symbolic Z-matrix:
 Charge =  0 Multiplicity = 1

                         Standard orientation:
 ---------------------------------------------------------------------
 Center     Atomic      Atomic             Coordinates (Angstroms)
 Number     Number       Type             X           Y           Z
 ---------------------------------------------------------------------
      1          6           0       -0.670744    0.343515   -0.009263
      2          8           0       -1.798992   -0.107642    0.013953
      3          6           0        0.589431   -0.471191   -0.039303
      4          6           0        1.755698    0.145346    0.006442
      5          1           0        0.457591   -1.496602    0.069620
      6          1           0        1.867238    1.234152    0.047669
      7          1           0        2.525087   -0.375617    0.041535
      8          1           0       -0.504289    1.393180   -0.017704
 ---------------------------------------------------------------------

 SCF Done:  E(RB2PLYPD3) =  -191.593662464     A.U. after   13 cycles
 E2(B2PLYPD3) =    -0.2460804905D+00 E(B2PLYPD3) =    -0.19183974295425D+03

 The electronic state is 1-A.
 Alpha  occ. eigenvalues --  -19.72806 -10.71247 -10.63940 -10.63593  -1.19123
 Alpha  occ. eigenvalues --   -0.93686  -0.76666  -0.68024  -0.58050  -0.56416
 Alpha  occ. eigenvalues --   -0.51107  -0.48130  -0.46333  -0.34930  -0.33684
 Alpha virt. eigenvalues --   -0.01445   0.05901   0.07563   0.07930   0.09724
 Alpha virt. eigenvalues --    0.12903   0.14057   0.15366   0.17713   0.19683
 Alpha virt. eigenvalues --    0.20048   0.22476   0.25274   0.26816   0.28425

 Mulliken charges:
               1
     1  C    0.155770
     2  O   -0.352919
     3  C   -0.047381
     4  C   -0.134182
     5  H    0.105577
     6  H    0.084820
     7  H    0.108989
     8  H    0.079327
 Sum of Mulliken charges =   0.00000

 Dipole moment (field-independent basis, Debye):
    X=              3.4998    Y=              0.7549    Z=              0.0972  Tot=              3.5816
 Quadrupole moment (field-independent basis, Debye-Ang):
   XX=            -27.6284   YY=            -21.5535   ZZ=            -24.9546
   XY=             -0.7490   XZ=              0.3057   YZ=             -0.0923

 Normal termination of Gaussian 09 at Wed Aug 26 08:50:56 2020.
