 Gaussian 09, Revision D.01,
 Gaussian 09:  ES64L-G09RevD.01 24-Apr-2013

 --------------------
 #p B2PLYPD3/Def2QZVP
 --------------------

 --------
 acrolein
 --------
 Symbolic Z-matrix:
 Charge =  0 Multiplicity = 1

                         Standard orientation:
 ---------------------------------------------------------------------
 Center     Atomic      Atomic             Coordinates (Angstroms)
 Number     Number       Type             X           Y           Z
 ---------------------------------------------------------------------
      1          6           0       -0.668651    0.347521   -0.023120
      2          8           0       -1.795953   -0.119495    0.017482
      3          6           0        0.567093   -0.460987   -0.002796
      4          6           0        1.753133    0.155261    0.006238
      5          1           0        0.481194   -1.535289   -0.021957
      6          1           0        1.824439    1.231567    0.071206
      7          1           0        2.685847   -0.421648   -0.017055
      8          1           0       -0.533299    1.430564   -0.053979
 ---------------------------------------------------------------------

 SCF Done:  E(RB2PLYPD3) =  -191.615954927     A.U. after   12 cycles
 E2(B2PLYPD3) =    -0.2476077235D+00 E(B2PLYPD3) =    -0.19186356265024D+03

 The electronic state is 1-A.
 Alpha  occ. eigenvalues --  -19.72720 -10.71614 -10.65655 -10.64566  -1.18833
 Alpha  occ. eigenvalues --   -0.92949  -0.75207  -0.67301  -0.56674  -0.56075
 Alpha  occ. eigenvalues --   -0.50234  -0.47186  -0.46346  -0.34609  -0.33843
 Alpha virt. eigenvalues --   -0.01814   0.05712   0.07110   0.07942   0.09692
 Alpha virt. eigenvalues --    0.12551   0.14039   0.15324   0.17518   0.19697
 Alpha virt. eigenvalues --    0.20083   0.21435   0.25272   0.26382   0.28853

 Mulliken charges:
               1
     1  C    0.151956
     2  O   -0.353619
     3  C   -0.040128
     4  C   -0.130964
     5  H    0.107221
     6  H    0.087567
     7  H    0.100070
     8  H    0.077897
 Sum of Mulliken charges =   0.00000

 Dipole moment (field-independent basis, Debye):
    X=              3.5418    Y=              0.7778    Z=             -0.0594  Tot=              3.6267
 Quadrupole moment (field-independent basis, Debye-Ang):
   XX=            -27.6483   YY=            -21.5927   ZZ=            -25.2594
   XY=             -0.9970   XZ=              0.1424   YZ=              0.1090

 Normal termination of Gaussian 09 at Wed Aug 26 16:06:33 2020.
