 Gaussian 09, Revision D.01,
 Gaussian 09:  ES64L-G09RevD.01 24-Apr-2013

 --------------------
 #p B2PLYPD3/Def2QZVP
 --------------------

 --------
 acrolein
 --------
 Symbolic Z-matrix:
 Charge =  0 Multiplicity = 1

                         Standard orientation:
 ---------------------------------------------------------------------
 Center     Atomic      Atomic             Coordinates (Angstroms)
 Number     Number       Type             X           Y           Z
 ---------------------------------------------------------------------
      1          6           0       -0.680934    0.364008   -0.009984
      2          8           0       -1.786149   -0.132189    0.021912
      3          6           0        0.555572   -0.443646   -0.033653
      4          6           0        1.761274    0.130627    0.008599
      5          1           0        0.436776   -1.497559   -0.034986
      6          1           0        1.859772    1.225934    0.002396
      7          1           0        2.665961   -0.452954    0.106964
      8          1           0       -0.488792    1.476155   -0.039442
 ---------------------------------------------------------------------

 SCF Done:  E(RB2PLYPD3) =  -191.615423460     A.U. after   12 cycles
 E2(B2PLYPD3) =    -0.2475059563D+00 E(B2PLYPD3) =    -0.19186292941592D+03

 The electronic state is 1-A.
 Alpha  occ. eigenvalues --  -19.73041 -10.72002 -10.65581 -10.64159  -1.19594
 Alpha  occ. eigenvalues --   -0.92763  -0.75243  -0.66907  -0.56478  -0.56090
 Alpha  occ. eigenvalues --   -0.50718  -0.47046  -0.46679  -0.34574  -0.33896
 Alpha virt. eigenvalues --   -0.01759   0.05708   0.07224   0.08065   0.09768
 Alpha virt. eigenvalues --    0.12469   0.13790   0.15397   0.17621   0.19635
 Alpha virt. eigenvalues --    0.19870   0.21634   0.25432   0.26446   0.28610

 Mulliken charges:
               1
     1  C    0.159425
     2  O   -0.346758
     3  C   -0.043223
     4  C   -0.132221
     5  H    0.108287
     6  H    0.081846
     7  H    0.102610
     8  H    0.070034
 Sum of Mulliken charges =   0.00000

 Dipole moment (field-independent basis, Debye):
    X=              3.4281    Y=              0.7748    Z=             -0.0064  Tot=              3.5146
 Quadrupole moment (field-independent basis, Debye-Ang):
   XX=            -27.4514   YY=            -21.7593   ZZ=            -25.2538
   XY=             -0.9631   XZ=              0.3673   YZ=             -0.0473

 Normal termination of Gaussian 09 at Wed Aug 26 14:47:18 2020.
