 Gaussian 09, Revision D.01,
 Gaussian 09:  ES64L-G09RevD.01 24-Apr-2013

 --------------------
 #p B2PLYPD3/Def2QZVP
 --------------------

 --------
 acrolein
 --------
 Symbolic Z-matrix:
 Charge =  0 Multiplicity = 1

                         Standard orientation:
 ---------------------------------------------------------------------
 Center     Atomic      Atomic             Coordinates (Angstroms)
 Number     Number       Type             X           Y           Z
 ---------------------------------------------------------------------
      1          6           0        0.680270    0.375383    0.048951
      2          8           0        1.785851   -0.142064   -0.046559
      3          6           0       -0.547795   -0.439378    0.020570
      4          6           0       -1.760987    0.124440   -0.019143
      5          1           0       -0.450137   -1.497995    0.116154
      6          1           0       -1.850298    1.236971   -0.088904
      7          1           0       -2.685979   -0.473777   -0.062817
      8          1           0        0.470670    1.508640    0.105766
 ---------------------------------------------------------------------

 SCF Done:  E(RB2PLYPD3) =  -191.610983246     A.U. after   13 cycles
 E2(B2PLYPD3) =    -0.2487936186D+00 E(B2PLYPD3) =    -0.19185977686495D+03

 The electronic state is 1-A.
 Alpha  occ. eigenvalues --  -19.73207 -10.72545 -10.65998 -10.64285  -1.18982
 Alpha  occ. eigenvalues --   -0.92657  -0.74996  -0.66512  -0.56221  -0.55712
 Alpha  occ. eigenvalues --   -0.50455  -0.46802  -0.46157  -0.34490  -0.34054
 Alpha virt. eigenvalues --   -0.01959   0.05589   0.06996   0.07826   0.09741
 Alpha virt. eigenvalues --    0.12324   0.13590   0.15229   0.17700   0.19421
 Alpha virt. eigenvalues --    0.19930   0.21418   0.25267   0.26448   0.28805

 Mulliken charges:
               1
     1  C    0.160766
     2  O   -0.348975
     3  C   -0.041569
     4  C   -0.129943
     5  H    0.108060
     6  H    0.077569
     7  H    0.102622
     8  H    0.071471
 Sum of Mulliken charges =   0.00000

 Dipole moment (field-independent basis, Debye):
    X=             -3.4479    Y=              0.7991    Z=              0.1704  Tot=              3.5434
 Quadrupole moment (field-independent basis, Debye-Ang):
   XX=            -27.5435   YY=            -21.7432   ZZ=            -25.3606
   XY=              1.0866   XZ=              0.4428   YZ=             -0.1743

 Normal termination of Gaussian 09 at Wed Aug 26 20:42:34 2020.
