 Gaussian 09, Revision D.01,
 Gaussian 09:  ES64L-G09RevD.01 24-Apr-2013

 --------------------
 #p B2PLYPD3/Def2QZVP
 --------------------

 --------
 acrolein
 --------
 Symbolic Z-matrix:
 Charge =  0 Multiplicity = 1

                         Standard orientation:
 ---------------------------------------------------------------------
 Center     Atomic      Atomic             Coordinates (Angstroms)
 Number     Number       Type             X           Y           Z
 ---------------------------------------------------------------------
      1          6           0        0.678764    0.372854    0.015250
      2          8           0        1.772823   -0.141113   -0.008664
      3          6           0       -0.558940   -0.436378    0.006468
      4          6           0       -1.742373    0.129472   -0.017846
      5          1           0       -0.419255   -1.521375   -0.014976
      6          1           0       -1.810342    1.167474   -0.040915
      7          1           0       -2.690912   -0.421656    0.073547
      8          1           0        0.473222    1.508775    0.028431
 ---------------------------------------------------------------------

 SCF Done:  E(RB2PLYPD3) =  -191.612564212     A.U. after   12 cycles
 E2(B2PLYPD3) =    -0.2471127906D+00 E(B2PLYPD3) =    -0.19185967700219D+03

 The electronic state is 1-A.
 Alpha  occ. eigenvalues --  -19.73195 -10.72281 -10.64639 -10.64044  -1.19901
 Alpha  occ. eigenvalues --   -0.93272  -0.75091  -0.66620  -0.56611  -0.56272
 Alpha  occ. eigenvalues --   -0.50827  -0.47083  -0.46458  -0.34953  -0.33884
 Alpha virt. eigenvalues --   -0.01431   0.05788   0.07078   0.08109   0.09884
 Alpha virt. eigenvalues --    0.12552   0.13825   0.15375   0.17255   0.19752
 Alpha virt. eigenvalues --    0.20085   0.21777   0.25756   0.26384   0.28710

 Mulliken charges:
               1
     1  C    0.157656
     2  O   -0.342524
     3  C   -0.035864
     4  C   -0.129755
     5  H    0.104929
     6  H    0.080203
     7  H    0.099895
     8  H    0.065460
 Sum of Mulliken charges =   0.00000

 Dipole moment (field-independent basis, Debye):
    X=             -3.3439    Y=              0.8068    Z=              0.0613  Tot=              3.4404
 Quadrupole moment (field-independent basis, Debye-Ang):
   XX=            -27.3337   YY=            -21.8582   ZZ=            -25.1730
   XY=              0.9376   XZ=             -0.0785   YZ=             -0.0478

 Normal termination of Gaussian 09 at Wed Aug 26 08:46:51 2020.
