 Gaussian 09, Revision D.01,
 Gaussian 09:  ES64L-G09RevD.01 24-Apr-2013

 --------------------
 #p B2PLYPD3/Def2QZVP
 --------------------

 --------
 acrolein
 --------
 Symbolic Z-matrix:
 Charge =  0 Multiplicity = 1

                         Standard orientation:
 ---------------------------------------------------------------------
 Center     Atomic      Atomic             Coordinates (Angstroms)
 Number     Number       Type             X           Y           Z
 ---------------------------------------------------------------------
      1          6           0       -0.669852    0.347440   -0.017146
      2          8           0       -1.795800   -0.115045    0.020673
      3          6           0        0.568465   -0.457583   -0.012741
      4          6           0        1.757768    0.152200    0.002333
      5          1           0        0.462101   -1.541531   -0.057026
      6          1           0        1.814096    1.219599    0.018764
      7          1           0        2.667875   -0.405237    0.081334
      8          1           0       -0.515957    1.395192   -0.043128
 ---------------------------------------------------------------------

 SCF Done:  E(RB2PLYPD3) =  -191.615371852     A.U. after   12 cycles
 E2(B2PLYPD3) =    -0.2471295114D+00 E(B2PLYPD3) =    -0.19186250136328D+03

 The electronic state is 1-A.
 Alpha  occ. eigenvalues --  -19.72727 -10.71234 -10.65258 -10.64568  -1.19005
 Alpha  occ. eigenvalues --   -0.93018  -0.75725  -0.67623  -0.56813  -0.56371
 Alpha  occ. eigenvalues --   -0.50535  -0.47276  -0.46371  -0.34617  -0.33890
 Alpha virt. eigenvalues --   -0.01813   0.05783   0.07232   0.08022   0.09710
 Alpha virt. eigenvalues --    0.12693   0.14091   0.15313   0.17531   0.19851
 Alpha virt. eigenvalues --    0.19937   0.21668   0.25351   0.26594   0.28836

 Mulliken charges:
               1
     1  C    0.152549
     2  O   -0.354071
     3  C   -0.037401
     4  C   -0.133415
     5  H    0.104269
     6  H    0.084703
     7  H    0.103051
     8  H    0.080316
 Sum of Mulliken charges =   0.00000

 Dipole moment (field-independent basis, Debye):
    X=              3.5293    Y=              0.7936    Z=             -0.0461  Tot=              3.6177
 Quadrupole moment (field-independent basis, Debye-Ang):
   XX=            -27.6065   YY=            -21.6270   ZZ=            -25.1800
   XY=             -0.9383   XZ=              0.3077   YZ=              0.0393

 Normal termination of Gaussian 09 at Wed Aug 26 15:21:31 2020.
