 Gaussian 09, Revision D.01,
 Gaussian 09:  ES64L-G09RevD.01 24-Apr-2013

 --------------------
 #p B2PLYPD3/Def2QZVP
 --------------------

 --------
 acrolein
 --------
 Symbolic Z-matrix:
 Charge =  0 Multiplicity = 1

                         Standard orientation:
 ---------------------------------------------------------------------
 Center     Atomic      Atomic             Coordinates (Angstroms)
 Number     Number       Type             X           Y           Z
 ---------------------------------------------------------------------
      1          6           0       -0.687854    0.355108    0.046451
      2          8           0       -1.766013   -0.156395   -0.066376
      3          6           0        0.537991   -0.395947    0.043426
      4          6           0        1.772252    0.121019   -0.085488
      5          1           0        0.425651   -1.365141    0.198350
      6          1           0        1.759572    1.141183   -0.117262
      7          1           0        2.832267   -0.451296    0.118315
      8          1           0       -0.623723    1.445330    0.305267
 ---------------------------------------------------------------------

 SCF Done:  E(RB2PLYPD3) =  -191.587573931     A.U. after   13 cycles
 E2(B2PLYPD3) =    -0.2472355620D+00 E(B2PLYPD3) =    -0.19183480949323D+03

 The electronic state is 1-A.
 Alpha  occ. eigenvalues --  -19.72928 -10.71468 -10.66131 -10.63222  -1.20564
 Alpha  occ. eigenvalues --   -0.93302  -0.75629  -0.68028  -0.57338  -0.55611
 Alpha  occ. eigenvalues --   -0.50955  -0.47459  -0.46135  -0.34468  -0.34009
 Alpha virt. eigenvalues --   -0.02221   0.05503   0.07157   0.08475   0.09775
 Alpha virt. eigenvalues --    0.12129   0.13962   0.15375   0.18053   0.18990
 Alpha virt. eigenvalues --    0.20008   0.21104   0.25046   0.26580   0.28910

 Mulliken charges:
               1
     1  C    0.142203
     2  O   -0.336853
     3  C   -0.034509
     4  C   -0.129256
     5  H    0.110768
     6  H    0.081177
     7  H    0.097460
     8  H    0.069011
 Sum of Mulliken charges =   0.00000

 Dipole moment (field-independent basis, Debye):
    X=              3.2886    Y=              0.8229    Z=              0.4767  Tot=              3.4234
 Quadrupole moment (field-independent basis, Debye-Ang):
   XX=            -26.9081   YY=            -22.2513   ZZ=            -25.0789
   XY=             -1.3658   XZ=             -0.0720   YZ=             -0.3348

 Normal termination of Gaussian 09 at Wed Aug 26 12:11:02 2020.
