 Gaussian 09, Revision D.01,
 Gaussian 09:  ES64L-G09RevD.01 24-Apr-2013

 --------------------
 #p B2PLYPD3/Def2QZVP
 --------------------

 --------
 acrolein
 --------
 Symbolic Z-matrix:
 Charge =  0 Multiplicity = 1

                         Standard orientation:
 ---------------------------------------------------------------------
 Center     Atomic      Atomic             Coordinates (Angstroms)
 Number     Number       Type             X           Y           Z
 ---------------------------------------------------------------------
      1          6           0        0.681766    0.354893   -0.006761
      2          8           0        1.785933   -0.120545    0.011711
      3          6           0       -0.565104   -0.457140   -0.018102
      4          6           0       -1.759181    0.144723    0.011674
      5          1           0       -0.433115   -1.528836   -0.036257
      6          1           0       -1.854163    1.251887   -0.049166
      7          1           0       -2.672481   -0.433424    0.069395
      8          1           0        0.527406    1.419882    0.001478
 ---------------------------------------------------------------------

 SCF Done:  E(RB2PLYPD3) =  -191.615901836     A.U. after   12 cycles
 E2(B2PLYPD3) =    -0.2467267222D+00 E(B2PLYPD3) =    -0.19186262855792D+03

 The electronic state is 1-A.
 Alpha  occ. eigenvalues --  -19.72780 -10.71265 -10.65691 -10.64434  -1.20009
 Alpha  occ. eigenvalues --   -0.92507  -0.75086  -0.67249  -0.56383  -0.56270
 Alpha  occ. eigenvalues --   -0.50788  -0.47078  -0.46676  -0.34537  -0.33776
 Alpha virt. eigenvalues --   -0.01485   0.05721   0.07276   0.08084   0.09708
 Alpha virt. eigenvalues --    0.12496   0.13984   0.15407   0.17608   0.19531
 Alpha virt. eigenvalues --    0.19987   0.21576   0.25365   0.26617   0.28637

 Mulliken charges:
               1
     1  C    0.159157
     2  O   -0.345078
     3  C   -0.049470
     4  C   -0.134277
     5  H    0.106881
     6  H    0.084285
     7  H    0.102137
     8  H    0.076364
 Sum of Mulliken charges =   0.00000

 Dipole moment (field-independent basis, Debye):
    X=             -3.3792    Y=              0.7866    Z=             -0.0463  Tot=              3.4698
 Quadrupole moment (field-independent basis, Debye-Ang):
   XX=            -27.5124   YY=            -21.6381   ZZ=            -25.2408
   XY=              0.9225   XZ=             -0.1327   YZ=             -0.0607

 Normal termination of Gaussian 09 at Wed Aug 26 16:28:35 2020.
