 Gaussian 09, Revision D.01,
 Gaussian 09:  ES64L-G09RevD.01 24-Apr-2013

 --------------------
 #p B2PLYPD3/Def2QZVP
 --------------------

 --------
 acrolein
 --------
 Symbolic Z-matrix:
 Charge =  0 Multiplicity = 1

                         Standard orientation:
 ---------------------------------------------------------------------
 Center     Atomic      Atomic             Coordinates (Angstroms)
 Number     Number       Type             X           Y           Z
 ---------------------------------------------------------------------
      1          6           0       -0.681112    0.363412    0.010112
      2          8           0       -1.782373   -0.136444   -0.019579
      3          6           0        0.556586   -0.437874    0.004337
      4          6           0        1.759073    0.148808   -0.008464
      5          1           0        0.439435   -1.538628    0.052161
      6          1           0        1.823315    1.183423   -0.114868
      7          1           0        2.764578   -0.441386    0.038654
      8          1           0       -0.575626    1.442063    0.144782
 ---------------------------------------------------------------------

 SCF Done:  E(RB2PLYPD3) =  -191.609791609     A.U. after   12 cycles
 E2(B2PLYPD3) =    -0.2474436388D+00 E(B2PLYPD3) =    -0.19185723524781D+03

 The electronic state is 1-A.
 Alpha  occ. eigenvalues --  -19.72765 -10.71538 -10.65842 -10.64735  -1.19632
 Alpha  occ. eigenvalues --   -0.92612  -0.74966  -0.67110  -0.57051  -0.55517
 Alpha  occ. eigenvalues --   -0.50268  -0.46730  -0.46403  -0.34505  -0.33907
 Alpha virt. eigenvalues --   -0.01723   0.05626   0.07008   0.07983   0.09719
 Alpha virt. eigenvalues --    0.12327   0.14066   0.15368   0.17437   0.19456
 Alpha virt. eigenvalues --    0.20298   0.21180   0.25134   0.26553   0.28937

 Mulliken charges:
               1
     1  C    0.151772
     2  O   -0.346563
     3  C   -0.044848
     4  C   -0.133519
     5  H    0.107310
     6  H    0.088622
     7  H    0.097515
     8  H    0.079712
 Sum of Mulliken charges =   0.00000

 Dipole moment (field-independent basis, Debye):
    X=              3.3902    Y=              0.8644    Z=              0.0853  Tot=              3.4997
 Quadrupole moment (field-independent basis, Debye-Ang):
   XX=            -27.4147   YY=            -21.7264   ZZ=            -25.2852
   XY=             -1.1038   XZ=             -0.1753   YZ=             -0.1733

 Normal termination of Gaussian 09 at Wed Aug 26 09:33:19 2020.
