 Gaussian 09, Revision D.01,
 Gaussian 09:  ES64L-G09RevD.01 24-Apr-2013

 --------------------
 #p B2PLYPD3/Def2QZVP
 --------------------

 --------
 acrolein
 --------
 Symbolic Z-matrix:
 Charge =  0 Multiplicity = 1

                         Standard orientation:
 ---------------------------------------------------------------------
 Center     Atomic      Atomic             Coordinates (Angstroms)
 Number     Number       Type             X           Y           Z
 ---------------------------------------------------------------------
      1          6           0        0.655326   -0.321489    0.002849
      2          8           0        1.803210    0.082773   -0.026710
      3          6           0       -0.571648    0.491593    0.003503
      4          6           0       -1.747898   -0.189472   -0.003605
      5          1           0       -0.431032    1.660951    0.113487
      6          1           0       -1.829663   -1.188269   -0.119383
      7          1           0       -2.692073    0.364233   -0.023322
      8          1           0        0.512410   -1.382891    0.226414
 ---------------------------------------------------------------------

 SCF Done:  E(RB2PLYPD3) =  -191.600782749     A.U. after   14 cycles
 E2(B2PLYPD3) =    -0.2484736204D+00 E(B2PLYPD3) =    -0.19184925636906D+03

 The electronic state is 1-A.
 Alpha  occ. eigenvalues --  -19.72562 -10.71340 -10.66204 -10.65517  -1.18891
 Alpha  occ. eigenvalues --   -0.92783  -0.75770  -0.66600  -0.57135  -0.55725
 Alpha  occ. eigenvalues --   -0.49904  -0.47276  -0.46055  -0.34545  -0.33450
 Alpha virt. eigenvalues --   -0.02133   0.05839   0.06463   0.07746   0.09585
 Alpha virt. eigenvalues --    0.12822   0.14321   0.15070   0.16801   0.19534
 Alpha virt. eigenvalues --    0.20525   0.21701   0.24296   0.26863   0.28278

 Mulliken charges:
               1
     1  C    0.152455
     2  O   -0.352212
     3  C   -0.039368
     4  C   -0.128694
     5  H    0.104257
     6  H    0.096647
     7  H    0.096373
     8  H    0.070541
 Sum of Mulliken charges =   0.00000

 Dipole moment (field-independent basis, Debye):
    X=             -3.6206    Y=             -0.6622    Z=              0.1180  Tot=              3.6826
 Quadrupole moment (field-independent basis, Debye-Ang):
   XX=            -27.7206   YY=            -21.5780   ZZ=            -25.3018
   XY=             -0.4758   XZ=              0.3730   YZ=              0.2354

 Normal termination of Gaussian 09 at Wed Aug 26 12:33:50 2020.
