 Gaussian 09, Revision D.01,
 Gaussian 09:  ES64L-G09RevD.01 24-Apr-2013

 --------------------
 #p B2PLYPD3/Def2QZVP
 --------------------

 --------
 acrolein
 --------
 Symbolic Z-matrix:
 Charge =  0 Multiplicity = 1

                         Standard orientation:
 ---------------------------------------------------------------------
 Center     Atomic      Atomic             Coordinates (Angstroms)
 Number     Number       Type             X           Y           Z
 ---------------------------------------------------------------------
      1          6           0        0.668990    0.336848   -0.009840
      2          8           0        1.790604   -0.106582    0.011403
      3          6           0       -0.565383   -0.468709   -0.005800
      4          6           0       -1.743828    0.145938    0.005454
      5          1           0       -0.458719   -1.520213   -0.001651
      6          1           0       -1.877727    1.259803    0.073390
      7          1           0       -2.650784   -0.399973   -0.032299
      8          1           0        0.503726    1.428578   -0.069553
 ---------------------------------------------------------------------

 SCF Done:  E(RB2PLYPD3) =  -191.615134192     A.U. after   12 cycles
 E2(B2PLYPD3) =    -0.2467520534D+00 E(B2PLYPD3) =    -0.19186188624560D+03

 The electronic state is 1-A.
 Alpha  occ. eigenvalues --  -19.72719 -10.71406 -10.65596 -10.64228  -1.19688
 Alpha  occ. eigenvalues --   -0.93107  -0.75347  -0.67134  -0.56761  -0.56231
 Alpha  occ. eigenvalues --   -0.50756  -0.47040  -0.46768  -0.34800  -0.33684
 Alpha virt. eigenvalues --   -0.01574   0.05710   0.07279   0.08173   0.09653
 Alpha virt. eigenvalues --    0.12589   0.14111   0.15359   0.17599   0.19493
 Alpha virt. eigenvalues --    0.20081   0.21606   0.25343   0.26579   0.28542

 Mulliken charges:
               1
     1  C    0.157109
     2  O   -0.346938
     3  C   -0.044707
     4  C   -0.125469
     5  H    0.108437
     6  H    0.083992
     7  H    0.099039
     8  H    0.068537
 Sum of Mulliken charges =   0.00000

 Dipole moment (field-independent basis, Debye):
    X=             -3.5141    Y=              0.6859    Z=             -0.0272  Tot=              3.5805
 Quadrupole moment (field-independent basis, Debye-Ang):
   XX=            -27.4369   YY=            -21.7110   ZZ=            -25.1745
   XY=              0.7284   XZ=             -0.1000   YZ=              0.0832

 Normal termination of Gaussian 09 at Wed Aug 26 19:22:06 2020.
