 Gaussian 09, Revision D.01,
 Gaussian 09:  ES64L-G09RevD.01 24-Apr-2013

 --------------------
 #p B2PLYPD3/Def2QZVP
 --------------------

 --------
 acrolein
 --------
 Symbolic Z-matrix:
 Charge =  0 Multiplicity = 1

                         Standard orientation:
 ---------------------------------------------------------------------
 Center     Atomic      Atomic             Coordinates (Angstroms)
 Number     Number       Type             X           Y           Z
 ---------------------------------------------------------------------
      1          6           0       -0.671054    0.337219    0.035660
      2          8           0       -1.809963   -0.091445   -0.023415
      3          6           0        0.568123   -0.483993    0.002834
      4          6           0        1.766475    0.136965   -0.027345
      5          1           0        0.467040   -1.574817   -0.033168
      6          1           0        1.956069    1.406347   -0.148982
      7          1           0        2.563055   -0.431349    0.176736
      8          1           0       -0.487720    1.390234    0.125836
 ---------------------------------------------------------------------

 SCF Done:  E(RB2PLYPD3) =  -191.584705707     A.U. after   14 cycles
 E2(B2PLYPD3) =    -0.2489575644D+00 E(B2PLYPD3) =    -0.19183366327131D+03

 The electronic state is 1-A.
 Alpha  occ. eigenvalues --  -19.72780 -10.71407 -10.66814 -10.65169  -1.18937
 Alpha  occ. eigenvalues --   -0.92557  -0.75694  -0.66520  -0.56697  -0.54942
 Alpha  occ. eigenvalues --   -0.50580  -0.46535  -0.45762  -0.34485  -0.33615
 Alpha virt. eigenvalues --   -0.02141   0.04925   0.06990   0.07799   0.09473
 Alpha virt. eigenvalues --    0.11931   0.13954   0.15465   0.17327   0.18393
 Alpha virt. eigenvalues --    0.20017   0.22061   0.24746   0.26748   0.28343

 Mulliken charges:
               1
     1  C    0.163828
     2  O   -0.351667
     3  C   -0.057338
     4  C   -0.129828
     5  H    0.105646
     6  H    0.081364
     7  H    0.109590
     8  H    0.078405
 Sum of Mulliken charges =   0.00000

 Dipole moment (field-independent basis, Debye):
    X=              3.5511    Y=              0.6499    Z=              0.1461  Tot=              3.6130
 Quadrupole moment (field-independent basis, Debye-Ang):
   XX=            -27.9844   YY=            -21.4229   ZZ=            -25.3748
   XY=             -0.6906   XZ=              0.0587   YZ=             -0.2029

 Normal termination of Gaussian 09 at Wed Aug 26 11:47:24 2020.
