 Gaussian 09, Revision D.01,
 Gaussian 09:  ES64L-G09RevD.01 24-Apr-2013

 --------------------
 #p B2PLYPD3/Def2QZVP
 --------------------

 --------
 acrolein
 --------
 Symbolic Z-matrix:
 Charge =  0 Multiplicity = 1

                         Standard orientation:
 ---------------------------------------------------------------------
 Center     Atomic      Atomic             Coordinates (Angstroms)
 Number     Number       Type             X           Y           Z
 ---------------------------------------------------------------------
      1          6           0       -0.666946    0.340940   -0.030414
      2          8           0       -1.809410   -0.105329    0.029093
      3          6           0        0.574712   -0.476415   -0.012801
      4          6           0        1.749093    0.158779   -0.000864
      5          1           0        0.466497   -1.554555   -0.029523
      6          1           0        1.850434    1.264329    0.121384
      7          1           0        2.705058   -0.411455    0.035221
      8          1           0       -0.487861    1.404496   -0.095344
 ---------------------------------------------------------------------

 SCF Done:  E(RB2PLYPD3) =  -191.612490979     A.U. after   12 cycles
 E2(B2PLYPD3) =    -0.2483583619D+00 E(B2PLYPD3) =    -0.19186084934079D+03

 The electronic state is 1-A.
 Alpha  occ. eigenvalues --  -19.72848 -10.71695 -10.66270 -10.64856  -1.18414
 Alpha  occ. eigenvalues --   -0.92877  -0.75048  -0.67235  -0.56167  -0.55902
 Alpha  occ. eigenvalues --   -0.50390  -0.46647  -0.46087  -0.34719  -0.33861
 Alpha virt. eigenvalues --   -0.01894   0.05555   0.07096   0.07692   0.09608
 Alpha virt. eigenvalues --    0.12539   0.14011   0.15245   0.17493   0.19483
 Alpha virt. eigenvalues --    0.20090   0.21309   0.24905   0.26670   0.28496

 Mulliken charges:
               1
     1  C    0.157260
     2  O   -0.357610
     3  C   -0.043742
     4  C   -0.125094
     5  H    0.108349
     6  H    0.085469
     7  H    0.095944
     8  H    0.079423
 Sum of Mulliken charges =   0.00000

 Dipole moment (field-independent basis, Debye):
    X=              3.5921    Y=              0.7420    Z=             -0.0302  Tot=              3.6680
 Quadrupole moment (field-independent basis, Debye-Ang):
   XX=            -27.8108   YY=            -21.5895   ZZ=            -25.3183
   XY=             -0.7544   XZ=              0.4161   YZ=              0.1371

 Normal termination of Gaussian 09 at Wed Aug 26 09:06:31 2020.
