 Gaussian 09, Revision D.01,
 Gaussian 09:  ES64L-G09RevD.01 24-Apr-2013

 --------------------
 #p B2PLYPD3/Def2QZVP
 --------------------

 --------
 acrolein
 --------
 Symbolic Z-matrix:
 Charge =  0 Multiplicity = 1

                         Standard orientation:
 ---------------------------------------------------------------------
 Center     Atomic      Atomic             Coordinates (Angstroms)
 Number     Number       Type             X           Y           Z
 ---------------------------------------------------------------------
      1          6           0        0.663665    0.341302    0.028372
      2          8           0        1.787733   -0.137829   -0.025003
      3          6           0       -0.553335   -0.422798    0.020642
      4          6           0       -1.741810    0.137685   -0.036005
      5          1           0       -0.494112   -1.479006    0.013307
      6          1           0       -1.748420    1.167792   -0.082937
      7          1           0       -2.740840   -0.452134    0.090838
      8          1           0        0.470391    1.528851    0.100758
 ---------------------------------------------------------------------

 SCF Done:  E(RB2PLYPD3) =  -191.600857367     A.U. after   13 cycles
 E2(B2PLYPD3) =    -0.2486432599D+00 E(B2PLYPD3) =    -0.19184950062670D+03

 The electronic state is 1-A.
 Alpha  occ. eigenvalues --  -19.73226 -10.72658 -10.65679 -10.63761  -1.19056
 Alpha  occ. eigenvalues --   -0.94184  -0.75479  -0.66721  -0.56368  -0.55989
 Alpha  occ. eigenvalues --   -0.50088  -0.46879  -0.46716  -0.35084  -0.33955
 Alpha virt. eigenvalues --   -0.02210   0.05592   0.06708   0.08408   0.09857
 Alpha virt. eigenvalues --    0.12367   0.13567   0.15277   0.17413   0.19472
 Alpha virt. eigenvalues --    0.20263   0.21267   0.25539   0.26181   0.29042

 Mulliken charges:
               1
     1  C    0.151926
     2  O   -0.347702
     3  C   -0.014961
     4  C   -0.123060
     5  H    0.102022
     6  H    0.084014
     7  H    0.102682
     8  H    0.045079
 Sum of Mulliken charges =   0.00000

 Dipole moment (field-independent basis, Debye):
    X=             -3.5866    Y=              0.6505    Z=              0.1334  Tot=              3.6475
 Quadrupole moment (field-independent basis, Debye-Ang):
   XX=            -27.2931   YY=            -22.1244   ZZ=            -25.1994
   XY=              1.1474   XZ=             -0.0094   YZ=             -0.1187

 Normal termination of Gaussian 09 at Wed Aug 26 21:21:32 2020.
