 Gaussian 09, Revision D.01,
 Gaussian 09:  ES64L-G09RevD.01 24-Apr-2013

 --------------------
 #p B2PLYPD3/Def2QZVP
 --------------------

 --------
 acrolein
 --------
 Symbolic Z-matrix:
 Charge =  0 Multiplicity = 1

                         Standard orientation:
 ---------------------------------------------------------------------
 Center     Atomic      Atomic             Coordinates (Angstroms)
 Number     Number       Type             X           Y           Z
 ---------------------------------------------------------------------
      1          6           0       -0.680828    0.341191    0.026661
      2          8           0       -1.789100   -0.115561   -0.023231
      3          6           0        0.561424   -0.462434    0.027713
      4          6           0        1.753437    0.143235   -0.021577
      5          1           0        0.475689   -1.496378    0.010854
      6          1           0        1.882147    1.259893    0.003876
      7          1           0        2.666713   -0.420406   -0.036335
      8          1           0       -0.515946    1.449426    0.010669
 ---------------------------------------------------------------------

 SCF Done:  E(RB2PLYPD3) =  -191.614520488     A.U. after   13 cycles
 E2(B2PLYPD3) =    -0.2467320218D+00 E(B2PLYPD3) =    -0.19186125251023D+03

 The electronic state is 1-A.
 Alpha  occ. eigenvalues --  -19.72836 -10.71617 -10.65785 -10.64106  -1.20191
 Alpha  occ. eigenvalues --   -0.92767  -0.75070  -0.67149  -0.56580  -0.56272
 Alpha  occ. eigenvalues --   -0.50778  -0.47091  -0.47035  -0.34653  -0.33706
 Alpha virt. eigenvalues --   -0.01561   0.05717   0.07327   0.08190   0.09650
 Alpha virt. eigenvalues --    0.12500   0.14010   0.15401   0.17802   0.19568
 Alpha virt. eigenvalues --    0.19948   0.21460   0.25337   0.26466   0.28554

 Mulliken charges:
               1
     1  C    0.157726
     2  O   -0.340556
     3  C   -0.047878
     4  C   -0.127095
     5  H    0.109563
     6  H    0.082912
     7  H    0.098847
     8  H    0.066482
 Sum of Mulliken charges =   0.00000

 Dipole moment (field-independent basis, Debye):
    X=              3.4368    Y=              0.6937    Z=              0.0653  Tot=              3.5067
 Quadrupole moment (field-independent basis, Debye-Ang):
   XX=            -27.3408   YY=            -21.7633   ZZ=            -25.2234
   XY=             -0.8483   XZ=             -0.1885   YZ=              0.0247

 Normal termination of Gaussian 09 at Wed Aug 26 19:45:18 2020.
