 Gaussian 09, Revision D.01,
 Gaussian 09:  ES64L-G09RevD.01 24-Apr-2013

 --------------------
 #p B2PLYPD3/Def2QZVP
 --------------------

 --------
 acrolein
 --------
 Symbolic Z-matrix:
 Charge =  0 Multiplicity = 1

                         Standard orientation:
 ---------------------------------------------------------------------
 Center     Atomic      Atomic             Coordinates (Angstroms)
 Number     Number       Type             X           Y           Z
 ---------------------------------------------------------------------
      1          6           0       -0.672620    0.352839   -0.021932
      2          8           0       -1.800134   -0.112719    0.033399
      3          6           0        0.584182   -0.473390   -0.045384
      4          6           0        1.755614    0.160988    0.004731
      5          1           0        0.472030   -1.538105   -0.044252
      6          1           0        1.821620    1.250049    0.002052
      7          1           0        2.640629   -0.402587    0.188728
      8          1           0       -0.536264    1.349779   -0.038211
 ---------------------------------------------------------------------

 SCF Done:  E(RB2PLYPD3) =  -191.608314090     A.U. after   13 cycles
 E2(B2PLYPD3) =    -0.2469851833D+00 E(B2PLYPD3) =    -0.19185529927375D+03

 The electronic state is 1-A.
 Alpha  occ. eigenvalues --  -19.72671 -10.70884 -10.65221 -10.64508  -1.18760
 Alpha  occ. eigenvalues --   -0.92845  -0.75618  -0.68444  -0.56966  -0.56121
 Alpha  occ. eigenvalues --   -0.50629  -0.47417  -0.46096  -0.34608  -0.33792
 Alpha virt. eigenvalues --   -0.01569   0.05748   0.07403   0.07668   0.09667
 Alpha virt. eigenvalues --    0.12692   0.14110   0.15344   0.17712   0.19634
 Alpha virt. eigenvalues --    0.19840   0.21781   0.25033   0.26834   0.28692

 Mulliken charges:
               1
     1  C    0.155038
     2  O   -0.357354
     3  C   -0.049398
     4  C   -0.132246
     5  H    0.109105
     6  H    0.084373
     7  H    0.099533
     8  H    0.090949
 Sum of Mulliken charges =   0.00000

 Dipole moment (field-independent basis, Debye):
    X=              3.4696    Y=              0.8400    Z=              0.0123  Tot=              3.5698
 Quadrupole moment (field-independent basis, Debye-Ang):
   XX=            -27.9233   YY=            -21.4170   ZZ=            -25.1370
   XY=             -0.9356   XZ=              0.6244   YZ=             -0.0776

 Normal termination of Gaussian 09 at Wed Aug 26 08:36:05 2020.
