 Gaussian 09, Revision D.01,
 Gaussian 09:  ES64L-G09RevD.01 24-Apr-2013

 --------------------
 #p B2PLYPD3/Def2QZVP
 --------------------

 --------
 acrolein
 --------
 Symbolic Z-matrix:
 Charge =  0 Multiplicity = 1

                         Standard orientation:
 ---------------------------------------------------------------------
 Center     Atomic      Atomic             Coordinates (Angstroms)
 Number     Number       Type             X           Y           Z
 ---------------------------------------------------------------------
      1          6           0       -0.670599    0.341860    0.018400
      2          8           0       -1.795912   -0.107324   -0.014828
      3          6           0        0.563809   -0.461244   -0.000139
      4          6           0        1.758955    0.142334   -0.014070
      5          1           0        0.428806   -1.555793    0.044195
      6          1           0        1.887454    1.274291   -0.025071
      7          1           0        2.631445   -0.432576    0.024005
      8          1           0       -0.493404    1.434975    0.050347
 ---------------------------------------------------------------------

 SCF Done:  E(RB2PLYPD3) =  -191.613129775     A.U. after   12 cycles
 E2(B2PLYPD3) =    -0.2476205283D+00 E(B2PLYPD3) =    -0.19186075030364D+03

 The electronic state is 1-A.
 Alpha  occ. eigenvalues --  -19.72822 -10.71563 -10.65848 -10.64824  -1.19384
 Alpha  occ. eigenvalues --   -0.92803  -0.75570  -0.66456  -0.56666  -0.55863
 Alpha  occ. eigenvalues --   -0.50606  -0.46810  -0.46578  -0.34659  -0.33771
 Alpha virt. eigenvalues --   -0.01838   0.05666   0.07053   0.08171   0.09660
 Alpha virt. eigenvalues --    0.12492   0.13966   0.15328   0.17366   0.19407
 Alpha virt. eigenvalues --    0.20009   0.21805   0.25305   0.26592   0.28493

 Mulliken charges:
               1
     1  C    0.161518
     2  O   -0.349304
     3  C   -0.042919
     4  C   -0.129891
     5  H    0.102832
     6  H    0.085557
     7  H    0.105161
     8  H    0.067047
 Sum of Mulliken charges =   0.00000

 Dipole moment (field-independent basis, Debye):
    X=              3.5312    Y=              0.6996    Z=              0.1109  Tot=              3.6015
 Quadrupole moment (field-independent basis, Debye-Ang):
   XX=            -27.5537   YY=            -21.6649   ZZ=            -25.2927
   XY=             -0.7326   XZ=             -0.0257   YZ=             -0.0938

 Normal termination of Gaussian 09 at Wed Aug 26 15:49:19 2020.
