 Gaussian 09, Revision D.01,
 Gaussian 09:  ES64L-G09RevD.01 24-Apr-2013

 --------------------
 #p B2PLYPD3/Def2QZVP
 --------------------

 --------
 acrolein
 --------
 Symbolic Z-matrix:
 Charge =  0 Multiplicity = 1

                         Standard orientation:
 ---------------------------------------------------------------------
 Center     Atomic      Atomic             Coordinates (Angstroms)
 Number     Number       Type             X           Y           Z
 ---------------------------------------------------------------------
      1          6           0        0.648762    0.337295    0.025375
      2          8           0        1.796223   -0.100463   -0.031018
      3          6           0       -0.572576   -0.462761    0.027464
      4          6           0       -1.737577    0.139906   -0.028471
      5          1           0       -0.446425   -1.546135    0.069268
      6          1           0       -1.915919    1.300258   -0.001230
      7          1           0       -2.595676   -0.401128   -0.048908
      8          1           0        0.556590    1.364065    0.082805
 ---------------------------------------------------------------------

 SCF Done:  E(RB2PLYPD3) =  -191.603147818     A.U. after   12 cycles
 E2(B2PLYPD3) =    -0.2471997850D+00 E(B2PLYPD3) =    -0.19185034760263D+03

 The electronic state is 1-A.
 Alpha  occ. eigenvalues --  -19.72364 -10.70668 -10.65527 -10.64479  -1.18134
 Alpha  occ. eigenvalues --   -0.93748  -0.76241  -0.67590  -0.57160  -0.56397
 Alpha  occ. eigenvalues --   -0.50390  -0.46511  -0.45895  -0.35051  -0.33745
 Alpha virt. eigenvalues --   -0.01748   0.05553   0.07099   0.08201   0.09548
 Alpha virt. eigenvalues --    0.12482   0.14311   0.15237   0.17483   0.19299
 Alpha virt. eigenvalues --    0.20058   0.21971   0.25415   0.26571   0.28651

 Mulliken charges:
               1
     1  C    0.156940
     2  O   -0.365102
     3  C   -0.042863
     4  C   -0.120535
     5  H    0.106029
     6  H    0.081413
     7  H    0.101874
     8  H    0.082244
 Sum of Mulliken charges =   0.00000

 Dipole moment (field-independent basis, Debye):
    X=             -3.6875    Y=              0.7393    Z=              0.1527  Tot=              3.7640
 Quadrupole moment (field-independent basis, Debye-Ang):
   XX=            -27.6775   YY=            -21.4909   ZZ=            -25.1149
   XY=              0.7754   XZ=              0.2479   YZ=             -0.0278

 Normal termination of Gaussian 09 at Wed Aug 26 09:22:22 2020.
