 Gaussian 09, Revision D.01,
 Gaussian 09:  ES64L-G09RevD.01 24-Apr-2013

 --------------------
 #p B2PLYPD3/Def2QZVP
 --------------------

 --------
 acrolein
 --------
 Symbolic Z-matrix:
 Charge =  0 Multiplicity = 1

                         Standard orientation:
 ---------------------------------------------------------------------
 Center     Atomic      Atomic             Coordinates (Angstroms)
 Number     Number       Type             X           Y           Z
 ---------------------------------------------------------------------
      1          6           0       -0.684534    0.352130    0.042537
      2          8           0       -1.765400   -0.136071   -0.034759
      3          6           0        0.550990   -0.442698    0.048517
      4          6           0        1.757811    0.133108   -0.031810
      5          1           0        0.472055   -1.450986   -0.008239
      6          1           0        1.784200    1.169739    0.014426
      7          1           0        2.646541   -0.388607   -0.065213
      8          1           0       -0.525197    1.503186   -0.018365
 ---------------------------------------------------------------------

 SCF Done:  E(RB2PLYPD3) =  -191.608113006     A.U. after   12 cycles
 E2(B2PLYPD3) =    -0.2459123156D+00 E(B2PLYPD3) =    -0.19185402532180D+03

 The electronic state is 1-A.
 Alpha  occ. eigenvalues --  -19.72969 -10.71878 -10.64281 -10.63478  -1.21076
 Alpha  occ. eigenvalues --   -0.93148  -0.75699  -0.67353  -0.57430  -0.56600
 Alpha  occ. eigenvalues --   -0.51154  -0.47861  -0.47626  -0.34567  -0.33701
 Alpha virt. eigenvalues --   -0.01512   0.05998   0.07408   0.08279   0.09901
 Alpha virt. eigenvalues --    0.12713   0.14021   0.15401   0.17763   0.19789
 Alpha virt. eigenvalues --    0.20242   0.21712   0.25244   0.26495   0.29017

 Mulliken charges:
               1
     1  C    0.153257
     2  O   -0.330777
     3  C   -0.038293
     4  C   -0.131548
     5  H    0.108612
     6  H    0.081404
     7  H    0.102219
     8  H    0.055126
 Sum of Mulliken charges =   0.00000

 Dipole moment (field-independent basis, Debye):
    X=              3.3110    Y=              0.6947    Z=              0.0587  Tot=              3.3836
 Quadrupole moment (field-independent basis, Debye-Ang):
   XX=            -26.9830   YY=            -21.9800   ZZ=            -25.0496
   XY=             -1.0925   XZ=             -0.3223   YZ=              0.0763

 Normal termination of Gaussian 09 at Wed Aug 26 09:52:05 2020.
