 Gaussian 09, Revision D.01,
 Gaussian 09:  ES64L-G09RevD.01 24-Apr-2013

 --------------------
 #p B2PLYPD3/Def2QZVP
 --------------------

 --------
 acrolein
 --------
 Symbolic Z-matrix:
 Charge =  0 Multiplicity = 1

                         Standard orientation:
 ---------------------------------------------------------------------
 Center     Atomic      Atomic             Coordinates (Angstroms)
 Number     Number       Type             X           Y           Z
 ---------------------------------------------------------------------
      1          6           0        0.637037    0.327857    0.066573
      2          8           0        1.820834   -0.099939   -0.062373
      3          6           0       -0.582743   -0.490870    0.048281
      4          6           0       -1.721063    0.172382   -0.068106
      5          1           0       -0.488300   -1.611029    0.077377
      6          1           0       -1.771543    1.300611   -0.083372
      7          1           0       -2.810448   -0.377866    0.031217
      8          1           0        0.504237    1.431586    0.193283
 ---------------------------------------------------------------------

 SCF Done:  E(RB2PLYPD3) =  -191.592998756     A.U. after   13 cycles
 E2(B2PLYPD3) =    -0.2514798655D+00 E(B2PLYPD3) =    -0.19184447862127D+03

 The electronic state is 1-A.
 Alpha  occ. eigenvalues --  -19.72797 -10.72496 -10.67608 -10.65589  -1.16259
 Alpha  occ. eigenvalues --   -0.93600  -0.74320  -0.66496  -0.55822  -0.55006
 Alpha  occ. eigenvalues --   -0.49579  -0.45481  -0.44964  -0.35002  -0.33874
 Alpha virt. eigenvalues --   -0.02403   0.05149   0.06234   0.07453   0.09475
 Alpha virt. eigenvalues --    0.12047   0.13935   0.15161   0.17067   0.18867
 Alpha virt. eigenvalues --    0.20150   0.20870   0.24869   0.26163   0.29144

 Mulliken charges:
               1
     1  C    0.151197
     2  O   -0.374058
     3  C   -0.029791
     4  C   -0.109999
     5  H    0.110973
     6  H    0.085217
     7  H    0.087809
     8  H    0.078651
 Sum of Mulliken charges =   0.00000

 Dipole moment (field-independent basis, Debye):
    X=             -3.7967    Y=              0.7228    Z=              0.3234  Tot=              3.8784
 Quadrupole moment (field-independent basis, Debye-Ang):
   XX=            -28.2435   YY=            -21.4791   ZZ=            -25.5445
   XY=              0.7525   XZ=              0.2987   YZ=             -0.1220

 Normal termination of Gaussian 09 at Wed Aug 26 11:00:00 2020.
