 Gaussian 09, Revision D.01,
 Gaussian 09:  ES64L-G09RevD.01 24-Apr-2013

 --------------------
 #p B2PLYPD3/Def2QZVP
 --------------------

 --------
 acrolein
 --------
 Symbolic Z-matrix:
 Charge =  0 Multiplicity = 1

                         Standard orientation:
 ---------------------------------------------------------------------
 Center     Atomic      Atomic             Coordinates (Angstroms)
 Number     Number       Type             X           Y           Z
 ---------------------------------------------------------------------
      1          6           0        0.657800    0.326767    0.028521
      2          8           0        1.817348   -0.100155   -0.033410
      3          6           0       -0.582975   -0.473498    0.034418
      4          6           0       -1.749160    0.162445   -0.033720
      5          1           0       -0.451279   -1.546544    0.032287
      6          1           0       -1.848632    1.206731   -0.057254
      7          1           0       -2.651140   -0.407867    0.001669
      8          1           0        0.458283    1.454634    0.115261
 ---------------------------------------------------------------------

 SCF Done:  E(RB2PLYPD3) =  -191.611479530     A.U. after   13 cycles
 E2(B2PLYPD3) =    -0.2487027287D+00 E(B2PLYPD3) =    -0.19186018225842D+03

 The electronic state is 1-A.
 Alpha  occ. eigenvalues --  -19.73016 -10.72345 -10.65294 -10.64854  -1.17911
 Alpha  occ. eigenvalues --   -0.93556  -0.75809  -0.66821  -0.56528  -0.56247
 Alpha  occ. eigenvalues --   -0.50187  -0.47632  -0.45899  -0.34930  -0.33717
 Alpha virt. eigenvalues --   -0.02149   0.05742   0.06972   0.07894   0.09706
 Alpha virt. eigenvalues --    0.12696   0.13839   0.15246   0.17181   0.19667
 Alpha virt. eigenvalues --    0.20207   0.21714   0.25095   0.26528   0.28423

 Mulliken charges:
               1
     1  C    0.158136
     2  O   -0.360292
     3  C   -0.031527
     4  C   -0.124373
     5  H    0.106167
     6  H    0.093320
     7  H    0.099307
     8  H    0.059262
 Sum of Mulliken charges =   0.00000

 Dipole moment (field-independent basis, Debye):
    X=             -3.7202    Y=              0.6448    Z=              0.1238  Tot=              3.7777
 Quadrupole moment (field-independent basis, Debye-Ang):
   XX=            -27.7282   YY=            -21.7247   ZZ=            -25.2533
   XY=              0.5752   XZ=              0.2376   YZ=             -0.0606

 Normal termination of Gaussian 09 at Wed Aug 26 08:50:24 2020.
