 Gaussian 09, Revision D.01,
 Gaussian 09:  ES64L-G09RevD.01 24-Apr-2013

 --------------------
 #p B2PLYPD3/Def2QZVP
 --------------------

 --------
 acrolein
 --------
 Symbolic Z-matrix:
 Charge =  0 Multiplicity = 1

                         Standard orientation:
 ---------------------------------------------------------------------
 Center     Atomic      Atomic             Coordinates (Angstroms)
 Number     Number       Type             X           Y           Z
 ---------------------------------------------------------------------
      1          6           0        0.672922    0.338792   -0.015387
      2          8           0        1.785234   -0.107500    0.022595
      3          6           0       -0.559270   -0.483535   -0.054433
      4          6           0       -1.746893    0.157473    0.009547
      5          1           0       -0.473978   -1.538898    0.065956
      6          1           0       -1.888372    1.263342    0.029634
      7          1           0       -2.650296   -0.405611    0.094690
      8          1           0        0.530216    1.464782   -0.009395
 ---------------------------------------------------------------------

 SCF Done:  E(RB2PLYPD3) =  -191.612915877     A.U. after   12 cycles
 E2(B2PLYPD3) =    -0.2472203003D+00 E(B2PLYPD3) =    -0.19186013617703D+03

 The electronic state is 1-A.
 Alpha  occ. eigenvalues --  -19.72629 -10.71640 -10.65900 -10.64724  -1.20105
 Alpha  occ. eigenvalues --   -0.92475  -0.74878  -0.66726  -0.56359  -0.56253
 Alpha  occ. eigenvalues --   -0.50369  -0.47357  -0.46886  -0.34458  -0.33520
 Alpha virt. eigenvalues --   -0.01595   0.05734   0.07114   0.07985   0.09618
 Alpha virt. eigenvalues --    0.12506   0.13978   0.15338   0.17643   0.19663
 Alpha virt. eigenvalues --    0.19944   0.21487   0.24936   0.26424   0.28517

 Mulliken charges:
               1
     1  C    0.154860
     2  O   -0.339827
     3  C   -0.050891
     4  C   -0.124397
     5  H    0.111133
     6  H    0.088171
     7  H    0.096257
     8  H    0.064696
 Sum of Mulliken charges =   0.00000

 Dipole moment (field-independent basis, Debye):
    X=             -3.4685    Y=              0.6837    Z=              0.1032  Tot=              3.5367
 Quadrupole moment (field-independent basis, Debye-Ang):
   XX=            -27.4350   YY=            -21.6366   ZZ=            -25.2921
   XY=              0.7306   XZ=             -0.4445   YZ=             -0.1424

 Normal termination of Gaussian 09 at Wed Aug 26 10:13:06 2020.
