 Gaussian 09, Revision D.01,
 Gaussian 09:  ES64L-G09RevD.01 24-Apr-2013

 --------------------
 #p B2PLYPD3/Def2QZVP
 --------------------

 --------
 acrolein
 --------
 Symbolic Z-matrix:
 Charge =  0 Multiplicity = 1

                         Standard orientation:
 ---------------------------------------------------------------------
 Center     Atomic      Atomic             Coordinates (Angstroms)
 Number     Number       Type             X           Y           Z
 ---------------------------------------------------------------------
      1          6           0       -0.668370    0.340519    0.007351
      2          8           0       -1.787906   -0.109857   -0.015576
      3          6           0        0.573538   -0.463310    0.006378
      4          6           0        1.756031    0.154346   -0.014483
      5          1           0        0.434435   -1.570122    0.056681
      6          1           0        1.830185    1.221462   -0.032834
      7          1           0        2.629245   -0.380260    0.009896
      8          1           0       -0.557805    1.418444    0.095385
 ---------------------------------------------------------------------

 SCF Done:  E(RB2PLYPD3) =  -191.613634220     A.U. after   12 cycles
 E2(B2PLYPD3) =    -0.2465723079D+00 E(B2PLYPD3) =    -0.19186020652823D+03

 The electronic state is 1-A.
 Alpha  occ. eigenvalues --  -19.72608 -10.71221 -10.64918 -10.64707  -1.19617
 Alpha  occ. eigenvalues --   -0.92983  -0.75760  -0.66935  -0.56903  -0.56721
 Alpha  occ. eigenvalues --   -0.50662  -0.47292  -0.46615  -0.34699  -0.33655
 Alpha virt. eigenvalues --   -0.01583   0.05895   0.07116   0.08188   0.09718
 Alpha virt. eigenvalues --    0.12711   0.14242   0.15333   0.17210   0.19735
 Alpha virt. eigenvalues --    0.20144   0.21950   0.25310   0.26495   0.28801

 Mulliken charges:
               1
     1  C    0.155029
     2  O   -0.347548
     3  C   -0.042235
     4  C   -0.130654
     5  H    0.102437
     6  H    0.087257
     7  H    0.104323
     8  H    0.071392
 Sum of Mulliken charges =   0.00000

 Dipole moment (field-independent basis, Debye):
    X=              3.4765    Y=              0.7442    Z=              0.1072  Tot=              3.5569
 Quadrupole moment (field-independent basis, Debye-Ang):
   XX=            -27.4684   YY=            -21.6290   ZZ=            -25.1629
   XY=             -0.8353   XZ=             -0.0873   YZ=             -0.0903

 Normal termination of Gaussian 09 at Wed Aug 26 17:10:22 2020.
