 Gaussian 09, Revision D.01,
 Gaussian 09:  ES64L-G09RevD.01 24-Apr-2013

 --------------------
 #p B2PLYPD3/Def2QZVP
 --------------------

 --------
 acrolein
 --------
 Symbolic Z-matrix:
 Charge =  0 Multiplicity = 1

                         Standard orientation:
 ---------------------------------------------------------------------
 Center     Atomic      Atomic             Coordinates (Angstroms)
 Number     Number       Type             X           Y           Z
 ---------------------------------------------------------------------
      1          6           0        0.664592    0.356545    0.051402
      2          8           0        1.792069   -0.134665   -0.035850
      3          6           0       -0.551802   -0.423647    0.019694
      4          6           0       -1.749023    0.137831   -0.027233
      5          1           0       -0.470077   -1.507671    0.036240
      6          1           0       -1.784241    1.203351   -0.061712
      7          1           0       -2.764466   -0.463456    0.008942
      8          1           0        0.499628    1.420725    0.040149
 ---------------------------------------------------------------------

 SCF Done:  E(RB2PLYPD3) =  -191.606900998     A.U. after   13 cycles
 E2(B2PLYPD3) =    -0.2484649271D+00 E(B2PLYPD3) =    -0.19185536592508D+03

 The electronic state is 1-A.
 Alpha  occ. eigenvalues --  -19.72875 -10.71568 -10.66255 -10.64133  -1.18269
 Alpha  occ. eigenvalues --   -0.93612  -0.75613  -0.67421  -0.56801  -0.55625
 Alpha  occ. eigenvalues --   -0.50080  -0.46318  -0.46136  -0.34833  -0.34132
 Alpha virt. eigenvalues --   -0.02221   0.05437   0.06945   0.08154   0.09737
 Alpha virt. eigenvalues --    0.12368   0.13885   0.15313   0.17649   0.19728
 Alpha virt. eigenvalues --    0.19908   0.21071   0.25638   0.26361   0.29145

 Mulliken charges:
               1
     1  C    0.148920
     2  O   -0.360104
     3  C   -0.023573
     4  C   -0.130382
     5  H    0.103325
     6  H    0.081834
     7  H    0.101435
     8  H    0.078546
 Sum of Mulliken charges =   0.00000

 Dipole moment (field-independent basis, Debye):
    X=             -3.6053    Y=              0.8415    Z=              0.1433  Tot=              3.7050
 Quadrupole moment (field-independent basis, Debye-Ang):
   XX=            -27.5295   YY=            -21.8077   ZZ=            -25.2449
   XY=              1.1948   XZ=              0.2038   YZ=             -0.0993

 Normal termination of Gaussian 09 at Wed Aug 26 09:15:38 2020.
