 Gaussian 09, Revision D.01,
 Gaussian 09:  ES64L-G09RevD.01 24-Apr-2013

 --------------------
 #p B2PLYPD3/Def2QZVP
 --------------------

 --------
 acrolein
 --------
 Symbolic Z-matrix:
 Charge =  0 Multiplicity = 1

                         Standard orientation:
 ---------------------------------------------------------------------
 Center     Atomic      Atomic             Coordinates (Angstroms)
 Number     Number       Type             X           Y           Z
 ---------------------------------------------------------------------
      1          6           0        0.676193    0.378739    0.028466
      2          8           0        1.786430   -0.138162   -0.028200
      3          6           0       -0.568406   -0.439567    0.049236
      4          6           0       -1.762494    0.121181   -0.036378
      5          1           0       -0.390076   -1.529202   -0.026222
      6          1           0       -1.811188    1.211722   -0.018952
      7          1           0       -2.635550   -0.423301   -0.004948
      8          1           0        0.473613    1.483960    0.027777
 ---------------------------------------------------------------------

 SCF Done:  E(RB2PLYPD3) =  -191.611174840     A.U. after   13 cycles
 E2(B2PLYPD3) =    -0.2480515910D+00 E(B2PLYPD3) =    -0.19185922643057D+03

 The electronic state is 1-A.
 Alpha  occ. eigenvalues --  -19.73233 -10.72320 -10.64732 -10.64450  -1.18853
 Alpha  occ. eigenvalues --   -0.93044  -0.75615  -0.66545  -0.57122  -0.55777
 Alpha  occ. eigenvalues --   -0.50986  -0.46534  -0.46207  -0.34845  -0.33988
 Alpha virt. eigenvalues --   -0.01780   0.05782   0.07184   0.07787   0.09873
 Alpha virt. eigenvalues --    0.12518   0.13724   0.15303   0.17284   0.19702
 Alpha virt. eigenvalues --    0.19859   0.22008   0.25267   0.26583   0.28793

 Mulliken charges:
               1
     1  C    0.162875
     2  O   -0.352694
     3  C   -0.042705
     4  C   -0.127273
     5  H    0.103803
     6  H    0.075569
     7  H    0.106902
     8  H    0.073524
 Sum of Mulliken charges =   0.00000

 Dipole moment (field-independent basis, Debye):
    X=             -3.4183    Y=              0.8399    Z=              0.0582  Tot=              3.5205
 Quadrupole moment (field-independent basis, Debye-Ang):
   XX=            -27.5568   YY=            -21.7406   ZZ=            -25.2422
   XY=              0.9946   XZ=              0.1911   YZ=              0.0698

 Normal termination of Gaussian 09 at Wed Aug 26 09:23:12 2020.
