 Gaussian 09, Revision D.01,
 Gaussian 09:  ES64L-G09RevD.01 24-Apr-2013

 --------------------
 #p B2PLYPD3/Def2QZVP
 --------------------

 --------
 acrolein
 --------
 Symbolic Z-matrix:
 Charge =  0 Multiplicity = 1

                         Standard orientation:
 ---------------------------------------------------------------------
 Center     Atomic      Atomic             Coordinates (Angstroms)
 Number     Number       Type             X           Y           Z
 ---------------------------------------------------------------------
      1          6           0        0.664315    0.346935    0.017642
      2          8           0        1.786919   -0.123436   -0.018481
      3          6           0       -0.562592   -0.442235    0.018856
      4          6           0       -1.739467    0.148761   -0.019832
      5          1           0       -0.471180   -1.515951    0.010175
      6          1           0       -1.792928    1.200738   -0.041344
      7          1           0       -2.712596   -0.428959    0.018295
      8          1           0        0.507810    1.410893    0.060726
 ---------------------------------------------------------------------

 SCF Done:  E(RB2PLYPD3) =  -191.614084669     A.U. after   12 cycles
 E2(B2PLYPD3) =    -0.2469806385D+00 E(B2PLYPD3) =    -0.19186106530704D+03

 The electronic state is 1-A.
 Alpha  occ. eigenvalues --  -19.72734 -10.71287 -10.65444 -10.63997  -1.19049
 Alpha  occ. eigenvalues --   -0.93641  -0.75494  -0.67631  -0.57031  -0.56059
 Alpha  occ. eigenvalues --   -0.50417  -0.46791  -0.46605  -0.34938  -0.33945
 Alpha virt. eigenvalues --   -0.01719   0.05687   0.07114   0.08248   0.09752
 Alpha virt. eigenvalues --    0.12609   0.14004   0.15323   0.17593   0.19743
 Alpha virt. eigenvalues --    0.20114   0.21373   0.25659   0.26455   0.28919

 Mulliken charges:
               1
     1  C    0.148473
     2  O   -0.354284
     3  C   -0.028568
     4  C   -0.130708
     5  H    0.104751
     6  H    0.085079
     7  H    0.098938
     8  H    0.076318
 Sum of Mulliken charges =   0.00000

 Dipole moment (field-independent basis, Debye):
    X=             -3.5338    Y=              0.7948    Z=              0.0730  Tot=              3.6228
 Quadrupole moment (field-independent basis, Debye-Ang):
   XX=            -27.5333   YY=            -21.7358   ZZ=            -25.1315
   XY=              1.0176   XZ=              0.1044   YZ=             -0.0382

 Normal termination of Gaussian 09 at Wed Aug 26 19:54:16 2020.
