 Gaussian 09, Revision D.01,
 Gaussian 09:  ES64L-G09RevD.01 24-Apr-2013

 --------------------
 #p B2PLYPD3/Def2QZVP
 --------------------

 --------
 acrolein
 --------
 Symbolic Z-matrix:
 Charge =  0 Multiplicity = 1

                         Standard orientation:
 ---------------------------------------------------------------------
 Center     Atomic      Atomic             Coordinates (Angstroms)
 Number     Number       Type             X           Y           Z
 ---------------------------------------------------------------------
      1          6           0        0.671644    0.343145   -0.003914
      2          8           0        1.796269   -0.113981   -0.003726
      3          6           0       -0.570897   -0.452639    0.011568
      4          6           0       -1.758796    0.149820   -0.010058
      5          1           0       -0.436971   -1.565752    0.023016
      6          1           0       -1.853989    1.235449    0.041543
      7          1           0       -2.653864   -0.430902   -0.031642
      8          1           0        0.522967    1.431101    0.011318
 ---------------------------------------------------------------------

 SCF Done:  E(RB2PLYPD3) =  -191.615429219     A.U. after   12 cycles
 E2(B2PLYPD3) =    -0.2473891608D+00 E(B2PLYPD3) =    -0.19186281838025D+03

 The electronic state is 1-A.
 Alpha  occ. eigenvalues --  -19.72804 -10.71539 -10.65470 -10.64891  -1.19273
 Alpha  occ. eigenvalues --   -0.92947  -0.75520  -0.66599  -0.56458  -0.56387
 Alpha  occ. eigenvalues --   -0.50507  -0.46857  -0.46506  -0.34753  -0.33784
 Alpha virt. eigenvalues --   -0.01776   0.05759   0.07000   0.08176   0.09708
 Alpha virt. eigenvalues --    0.12571   0.13997   0.15332   0.17245   0.19736
 Alpha virt. eigenvalues --    0.19986   0.21736   0.25372   0.26496   0.28578

 Mulliken charges:
               1
     1  C    0.158742
     2  O   -0.350260
     3  C   -0.039136
     4  C   -0.131843
     5  H    0.100642
     6  H    0.088153
     7  H    0.104527
     8  H    0.069175
 Sum of Mulliken charges =   0.00000

 Dipole moment (field-independent basis, Debye):
    X=             -3.5178    Y=              0.7464    Z=              0.0360  Tot=              3.5963
 Quadrupole moment (field-independent basis, Debye-Ang):
   XX=            -27.5599   YY=            -21.6752   ZZ=            -25.2565
   XY=              0.8492   XZ=              0.0211   YZ=              0.0499

 Normal termination of Gaussian 09 at Wed Aug 26 09:35:13 2020.
