 Gaussian 09, Revision D.01,
 Gaussian 09:  ES64L-G09RevD.01 24-Apr-2013

 --------------------
 #p B2PLYPD3/Def2QZVP
 --------------------

 --------
 acrolein
 --------
 Symbolic Z-matrix:
 Charge =  0 Multiplicity = 1

                         Standard orientation:
 ---------------------------------------------------------------------
 Center     Atomic      Atomic             Coordinates (Angstroms)
 Number     Number       Type             X           Y           Z
 ---------------------------------------------------------------------
      1          6           0       -0.674280    0.362075   -0.013306
      2          8           0       -1.784268   -0.134887    0.015421
      3          6           0        0.560588   -0.433306   -0.030468
      4          6           0        1.758189    0.138862    0.006120
      5          1           0        0.435553   -1.535372    0.025838
      6          1           0        1.807531    1.198454    0.023487
      7          1           0        2.702060   -0.438888    0.055289
      8          1           0       -0.537982    1.449123   -0.002055
 ---------------------------------------------------------------------

 SCF Done:  E(RB2PLYPD3) =  -191.615061579     A.U. after   12 cycles
 E2(B2PLYPD3) =    -0.2473953991D+00 E(B2PLYPD3) =    -0.19186245697761D+03

 The electronic state is 1-A.
 Alpha  occ. eigenvalues --  -19.72844 -10.71632 -10.65387 -10.64509  -1.19227
 Alpha  occ. eigenvalues --   -0.93047  -0.75401  -0.66936  -0.56710  -0.56189
 Alpha  occ. eigenvalues --   -0.50502  -0.46706  -0.46369  -0.34718  -0.33981
 Alpha virt. eigenvalues --   -0.01770   0.05734   0.07037   0.08157   0.09787
 Alpha virt. eigenvalues --    0.12472   0.13945   0.15356   0.17389   0.19874
 Alpha virt. eigenvalues --    0.19922   0.21510   0.25491   0.26456   0.28981

 Mulliken charges:
               1
     1  C    0.153792
     2  O   -0.351126
     3  C   -0.036634
     4  C   -0.132139
     5  H    0.102709
     6  H    0.083472
     7  H    0.104389
     8  H    0.075537
 Sum of Mulliken charges =   0.00000

 Dipole moment (field-independent basis, Debye):
    X=              3.4614    Y=              0.8413    Z=              0.0430  Tot=              3.5624
 Quadrupole moment (field-independent basis, Debye-Ang):
   XX=            -27.4477   YY=            -21.7393   ZZ=            -25.2341
   XY=             -1.1118   XZ=              0.2697   YZ=             -0.0589

 Normal termination of Gaussian 09 at Wed Aug 26 15:27:27 2020.
