 Gaussian 09, Revision D.01,
 Gaussian 09:  ES64L-G09RevD.01 24-Apr-2013

 --------------------
 #p B2PLYPD3/Def2QZVP
 --------------------

 --------
 acrolein
 --------
 Symbolic Z-matrix:
 Charge =  0 Multiplicity = 1

                         Standard orientation:
 ---------------------------------------------------------------------
 Center     Atomic      Atomic             Coordinates (Angstroms)
 Number     Number       Type             X           Y           Z
 ---------------------------------------------------------------------
      1          6           0       -0.666886    0.344006   -0.018938
      2          8           0       -1.795168   -0.111419    0.016924
      3          6           0        0.558569   -0.455804   -0.005148
      4          6           0        1.750990    0.146461    0.005726
      5          1           0        0.435027   -1.569230   -0.021861
      6          1           0        1.847753    1.242611    0.070949
      7          1           0        2.705809   -0.426467   -0.010389
      8          1           0       -0.483282    1.436463   -0.063931
 ---------------------------------------------------------------------

 SCF Done:  E(RB2PLYPD3) =  -191.614090488     A.U. after   12 cycles
 E2(B2PLYPD3) =    -0.2480778256D+00 E(B2PLYPD3) =    -0.19186216831408D+03

 The electronic state is 1-A.
 Alpha  occ. eigenvalues --  -19.72836 -10.71661 -10.66206 -10.64917  -1.19100
 Alpha  occ. eigenvalues --   -0.92938  -0.75294  -0.66495  -0.56404  -0.55862
 Alpha  occ. eigenvalues --   -0.50312  -0.46595  -0.46380  -0.34699  -0.33879
 Alpha virt. eigenvalues --   -0.01942   0.05613   0.06899   0.08126   0.09678
 Alpha virt. eigenvalues --    0.12478   0.13983   0.15304   0.17253   0.19617
 Alpha virt. eigenvalues --    0.20058   0.21378   0.25305   0.26544   0.28671

 Mulliken charges:
               1
     1  C    0.158210
     2  O   -0.351966
     3  C   -0.035158
     4  C   -0.129018
     5  H    0.102642
     6  H    0.085514
     7  H    0.101419
     8  H    0.068358
 Sum of Mulliken charges =   0.00000

 Dipole moment (field-independent basis, Debye):
    X=              3.5672    Y=              0.7322    Z=             -0.0493  Tot=              3.6419
 Quadrupole moment (field-independent basis, Debye-Ang):
   XX=            -27.5249   YY=            -21.7379   ZZ=            -25.3250
   XY=             -0.7793   XZ=              0.1591   YZ=              0.1005

 Normal termination of Gaussian 09 at Wed Aug 26 15:50:41 2020.
