 Gaussian 09, Revision D.01,
 Gaussian 09:  ES64L-G09RevD.01 24-Apr-2013

 --------------------
 #p B2PLYPD3/Def2QZVP
 --------------------

 --------
 acrolein
 --------
 Symbolic Z-matrix:
 Charge =  0 Multiplicity = 1

                         Standard orientation:
 ---------------------------------------------------------------------
 Center     Atomic      Atomic             Coordinates (Angstroms)
 Number     Number       Type             X           Y           Z
 ---------------------------------------------------------------------
      1          6           0        0.675075    0.342371   -0.019018
      2          8           0        1.787265   -0.109138    0.019400
      3          6           0       -0.564054   -0.458829   -0.019471
      4          6           0       -1.759342    0.150836    0.014396
      5          1           0       -0.408682   -1.554242   -0.043016
      6          1           0       -1.852941    1.260416   -0.030838
      7          1           0       -2.681339   -0.435206    0.069278
      8          1           0        0.534764    1.395865   -0.006064
 ---------------------------------------------------------------------

 SCF Done:  E(RB2PLYPD3) =  -191.614287374     A.U. after   12 cycles
 E2(B2PLYPD3) =    -0.2468569180D+00 E(B2PLYPD3) =    -0.19186114429235D+03

 The electronic state is 1-A.
 Alpha  occ. eigenvalues --  -19.72618 -10.70886 -10.66084 -10.64790  -1.19994
 Alpha  occ. eigenvalues --   -0.92539  -0.75258  -0.67117  -0.56467  -0.56094
 Alpha  occ. eigenvalues --   -0.50621  -0.47044  -0.46590  -0.34541  -0.33720
 Alpha virt. eigenvalues --   -0.01636   0.05682   0.07156   0.08243   0.09688
 Alpha virt. eigenvalues --    0.12488   0.13966   0.15369   0.17498   0.19512
 Alpha virt. eigenvalues --    0.19995   0.21518   0.25332   0.26693   0.28688

 Mulliken charges:
               1
     1  C    0.160426
     2  O   -0.347233
     3  C   -0.044237
     4  C   -0.134740
     5  H    0.103627
     6  H    0.087680
     7  H    0.103428
     8  H    0.071049
 Sum of Mulliken charges =   0.00000

 Dipole moment (field-independent basis, Debye):
    X=             -3.4373    Y=              0.7537    Z=             -0.0715  Tot=              3.5197
 Quadrupole moment (field-independent basis, Debye-Ang):
   XX=            -27.5099   YY=            -21.6509   ZZ=            -25.2631
   XY=              0.8165   XZ=             -0.1948   YZ=             -0.0286

 Normal termination of Gaussian 09 at Wed Aug 26 15:35:45 2020.
