 Gaussian 09, Revision D.01,
 Gaussian 09:  ES64L-G09RevD.01 24-Apr-2013

 --------------------
 #p B2PLYPD3/Def2QZVP
 --------------------

 --------
 acrolein
 --------
 Symbolic Z-matrix:
 Charge =  0 Multiplicity = 1

                         Standard orientation:
 ---------------------------------------------------------------------
 Center     Atomic      Atomic             Coordinates (Angstroms)
 Number     Number       Type             X           Y           Z
 ---------------------------------------------------------------------
      1          6           0        0.658818    0.345026    0.033276
      2          8           0        1.796381   -0.107725   -0.022604
      3          6           0       -0.560226   -0.471227    0.004385
      4          6           0       -1.747311    0.144968   -0.018830
      5          1           0       -0.439775   -1.539267    0.037973
      6          1           0       -1.856804    1.257497   -0.043234
      7          1           0       -2.674491   -0.401205    0.028083
      8          1           0        0.492331    1.432166    0.045031
 ---------------------------------------------------------------------

 SCF Done:  E(RB2PLYPD3) =  -191.614504472     A.U. after   12 cycles
 E2(B2PLYPD3) =    -0.2480675633D+00 E(B2PLYPD3) =    -0.19186257203534D+03

 The electronic state is 1-A.
 Alpha  occ. eigenvalues --  -19.72703 -10.71602 -10.66009 -10.64635  -1.18519
 Alpha  occ. eigenvalues --   -0.93046  -0.75424  -0.67133  -0.56486  -0.56066
 Alpha  occ. eigenvalues --   -0.50328  -0.46919  -0.46242  -0.34638  -0.33820
 Alpha virt. eigenvalues --   -0.01975   0.05618   0.07138   0.07923   0.09656
 Alpha virt. eigenvalues --    0.12509   0.14081   0.15289   0.17468   0.19597
 Alpha virt. eigenvalues --    0.20019   0.21517   0.25269   0.26520   0.28813

 Mulliken charges:
               1
     1  C    0.156569
     2  O   -0.358152
     3  C   -0.039982
     4  C   -0.126070
     5  H    0.109488
     6  H    0.083915
     7  H    0.099946
     8  H    0.074285
 Sum of Mulliken charges =   0.00000

 Dipole moment (field-independent basis, Debye):
    X=             -3.6229    Y=              0.7318    Z=              0.1278  Tot=              3.6983
 Quadrupole moment (field-independent basis, Debye-Ang):
   XX=            -27.6161   YY=            -21.6182   ZZ=            -25.2772
   XY=              0.7454   XZ=              0.0794   YZ=             -0.1057

 Normal termination of Gaussian 09 at Wed Aug 26 18:36:54 2020.
