 Gaussian 09, Revision D.01,
 Gaussian 09:  ES64L-G09RevD.01 24-Apr-2013

 --------------------
 #p B2PLYPD3/Def2QZVP
 --------------------

 --------
 acrolein
 --------
 Symbolic Z-matrix:
 Charge =  0 Multiplicity = 1

                         Standard orientation:
 ---------------------------------------------------------------------
 Center     Atomic      Atomic             Coordinates (Angstroms)
 Number     Number       Type             X           Y           Z
 ---------------------------------------------------------------------
      1          6           0        0.657467    0.339337    0.012346
      2          8           0        1.794545   -0.106456   -0.012009
      3          6           0       -0.568285   -0.458741    0.002739
      4          6           0       -1.751369    0.153036   -0.017887
      5          1           0       -0.414600   -1.573319    0.024929
      6          1           0       -1.817241    1.206915   -0.040358
      7          1           0       -2.670920   -0.390744    0.057852
      8          1           0        0.519525    1.406996    0.070457
 ---------------------------------------------------------------------

 SCF Done:  E(RB2PLYPD3) =  -191.614059587     A.U. after   13 cycles
 E2(B2PLYPD3) =    -0.2474558461D+00 E(B2PLYPD3) =    -0.19186151543263D+03

 The electronic state is 1-A.
 Alpha  occ. eigenvalues --  -19.72626 -10.71229 -10.65291 -10.64935  -1.18722
 Alpha  occ. eigenvalues --   -0.93314  -0.75915  -0.67091  -0.56830  -0.56451
 Alpha  occ. eigenvalues --   -0.50370  -0.46954  -0.46346  -0.34750  -0.33807
 Alpha virt. eigenvalues --   -0.01954   0.05779   0.07040   0.08158   0.09731
 Alpha virt. eigenvalues --    0.12686   0.14134   0.15295   0.17148   0.19767
 Alpha virt. eigenvalues --    0.20133   0.21766   0.25331   0.26587   0.28860

 Mulliken charges:
               1
     1  C    0.154036
     2  O   -0.357977
     3  C   -0.031927
     4  C   -0.130170
     5  H    0.102227
     6  H    0.088188
     7  H    0.103302
     8  H    0.072320
 Sum of Mulliken charges =   0.00000

 Dipole moment (field-independent basis, Debye):
    X=             -3.6055    Y=              0.7566    Z=              0.1037  Tot=              3.6854
 Quadrupole moment (field-independent basis, Debye-Ang):
   XX=            -27.5651   YY=            -21.6703   ZZ=            -25.1908
   XY=              0.7610   XZ=             -0.0296   YZ=             -0.0857

 Normal termination of Gaussian 09 at Wed Aug 26 15:57:43 2020.
