 Gaussian 09, Revision D.01,
 Gaussian 09:  ES64L-G09RevD.01 24-Apr-2013

 --------------------
 #p B2PLYPD3/Def2QZVP
 --------------------

 --------
 acrolein
 --------
 Symbolic Z-matrix:
 Charge =  0 Multiplicity = 1

                         Standard orientation:
 ---------------------------------------------------------------------
 Center     Atomic      Atomic             Coordinates (Angstroms)
 Number     Number       Type             X           Y           Z
 ---------------------------------------------------------------------
      1          6           0        0.672203    0.357976    0.033016
      2          8           0        1.780932   -0.137757   -0.026135
      3          6           0       -0.548415   -0.442452    0.001296
      4          6           0       -1.736589    0.131000   -0.030453
      5          1           0       -0.511779   -1.448937    0.108475
      6          1           0       -1.818336    1.167629   -0.000692
      7          1           0       -2.680808   -0.424026    0.017301
      8          1           0        0.440273    1.528245    0.060842
 ---------------------------------------------------------------------

 SCF Done:  E(RB2PLYPD3) =  -191.605475829     A.U. after   12 cycles
 E2(B2PLYPD3) =    -0.2476276601D+00 E(B2PLYPD3) =    -0.19185310348904D+03

 The electronic state is 1-A.
 Alpha  occ. eigenvalues --  -19.73240 -10.72646 -10.64813 -10.63336  -1.19499
 Alpha  occ. eigenvalues --   -0.93766  -0.75380  -0.67438  -0.56652  -0.56294
 Alpha  occ. eigenvalues --   -0.50523  -0.47616  -0.46693  -0.34878  -0.33951
 Alpha virt. eigenvalues --   -0.01771   0.05758   0.07085   0.08092   0.09798
 Alpha virt. eigenvalues --    0.12667   0.13709   0.15242   0.17849   0.19850
 Alpha virt. eigenvalues --    0.20149   0.21353   0.25560   0.26373   0.28722

 Mulliken charges:
               1
     1  C    0.154596
     2  O   -0.343000
     3  C   -0.026781
     4  C   -0.123113
     5  H    0.106936
     6  H    0.079860
     7  H    0.094398
     8  H    0.057105
 Sum of Mulliken charges =   0.00000

 Dipole moment (field-independent basis, Debye):
    X=             -3.4904    Y=              0.7135    Z=              0.2284  Tot=              3.5699
 Quadrupole moment (field-independent basis, Debye-Ang):
   XX=            -27.2673   YY=            -21.9705   ZZ=            -25.1146
   XY=              0.9781   XZ=             -0.0079   YZ=             -0.1368

 Normal termination of Gaussian 09 at Wed Aug 26 09:36:41 2020.
