 Gaussian 09, Revision D.01,
 Gaussian 09:  ES64L-G09RevD.01 24-Apr-2013

 --------------------
 #p B2PLYPD3/Def2QZVP
 --------------------

 --------
 acrolein
 --------
 Symbolic Z-matrix:
 Charge =  0 Multiplicity = 1

                         Standard orientation:
 ---------------------------------------------------------------------
 Center     Atomic      Atomic             Coordinates (Angstroms)
 Number     Number       Type             X           Y           Z
 ---------------------------------------------------------------------
      1          6           0        0.666568    0.348497    0.018814
      2          8           0        1.798026   -0.111017   -0.023122
      3          6           0       -0.566456   -0.458815    0.015676
      4          6           0       -1.759142    0.143610   -0.010644
      5          1           0       -0.417507   -1.542728    0.029157
      6          1           0       -1.832538    1.241122   -0.083034
      7          1           0       -2.673445   -0.410904   -0.003482
      8          1           0        0.493456    1.400895    0.099263
 ---------------------------------------------------------------------

 SCF Done:  E(RB2PLYPD3) =  -191.615008939     A.U. after   12 cycles
 E2(B2PLYPD3) =    -0.2476448215D+00 E(B2PLYPD3) =    -0.19186265376023D+03

 The electronic state is 1-A.
 Alpha  occ. eigenvalues --  -19.72797 -10.71347 -10.65710 -10.64664  -1.18784
 Alpha  occ. eigenvalues --   -0.92967  -0.75723  -0.67286  -0.56534  -0.56218
 Alpha  occ. eigenvalues --   -0.50636  -0.46856  -0.46319  -0.34636  -0.33913
 Alpha virt. eigenvalues --   -0.01928   0.05693   0.07211   0.07988   0.09708
 Alpha virt. eigenvalues --    0.12608   0.13994   0.15330   0.17427   0.19458
 Alpha virt. eigenvalues --    0.20135   0.21626   0.25239   0.26747   0.28768

 Mulliken charges:
               1
     1  C    0.158702
     2  O   -0.357395
     3  C   -0.040764
     4  C   -0.131472
     5  H    0.105289
     6  H    0.083737
     7  H    0.104531
     8  H    0.077370
 Sum of Mulliken charges =   0.00000

 Dipole moment (field-independent basis, Debye):
    X=             -3.5617    Y=              0.7690    Z=              0.0629  Tot=              3.6443
 Quadrupole moment (field-independent basis, Debye-Ang):
   XX=            -27.6025   YY=            -21.6709   ZZ=            -25.2350
   XY=              0.8132   XZ=              0.2469   YZ=             -0.0963

 Normal termination of Gaussian 09 at Wed Aug 26 16:06:29 2020.
