 Gaussian 09, Revision D.01,
 Gaussian 09:  ES64L-G09RevD.01 24-Apr-2013

 --------------------
 #p B2PLYPD3/Def2QZVP
 --------------------

 --------
 acrolein
 --------
 Symbolic Z-matrix:
 Charge =  0 Multiplicity = 1

                         Standard orientation:
 ---------------------------------------------------------------------
 Center     Atomic      Atomic             Coordinates (Angstroms)
 Number     Number       Type             X           Y           Z
 ---------------------------------------------------------------------
      1          6           0       -0.695189    0.368690    0.004437
      2          8           0       -1.788331   -0.144528    0.016867
      3          6           0        0.540883   -0.446255   -0.063719
      4          6           0        1.753618    0.105230    0.029618
      5          1           0        0.516340   -1.305741   -0.010427
      6          1           0        1.901615    1.198196   -0.144560
      7          1           0        2.717438   -0.422336    0.165288
      8          1           0       -0.424614    1.520121    0.032746
 ---------------------------------------------------------------------

 SCF Done:  E(RB2PLYPD3) =  -191.556987533     A.U. after   13 cycles
 E2(B2PLYPD3) =    -0.2476872366D+00 E(B2PLYPD3) =    -0.19180467476977D+03

 The electronic state is 1-A.
 Alpha  occ. eigenvalues --  -19.73435 -10.72811 -10.65880 -10.62006  -1.20146
 Alpha  occ. eigenvalues --   -0.93646  -0.74896  -0.69532  -0.56897  -0.55991
 Alpha  occ. eigenvalues --   -0.51170  -0.47404  -0.46856  -0.34521  -0.33967
 Alpha virt. eigenvalues --   -0.01824   0.05595   0.07568   0.07833   0.09646
 Alpha virt. eigenvalues --    0.12340   0.13534   0.15337   0.18531   0.19468
 Alpha virt. eigenvalues --    0.20071   0.20964   0.24438   0.26569   0.28589

 Mulliken charges:
               1
     1  C    0.168972
     2  O   -0.337553
     3  C   -0.105055
     4  C   -0.110925
     5  H    0.158510
     6  H    0.070502
     7  H    0.089508
     8  H    0.066041
 Sum of Mulliken charges =   0.00000

 Dipole moment (field-independent basis, Debye):
    X=              3.4099    Y=              0.7435    Z=              0.0095  Tot=              3.4900
 Quadrupole moment (field-independent basis, Debye-Ang):
   XX=            -26.9758   YY=            -22.1469   ZZ=            -25.0559
   XY=             -0.9576   XZ=              0.2892   YZ=             -0.2672

 Normal termination of Gaussian 09 at Wed Aug 26 12:19:35 2020.
