 Gaussian 09, Revision D.01,
 Gaussian 09:  ES64L-G09RevD.01 24-Apr-2013

 --------------------
 #p B2PLYPD3/Def2QZVP
 --------------------

 --------
 acrolein
 --------
 Symbolic Z-matrix:
 Charge =  0 Multiplicity = 1

                         Standard orientation:
 ---------------------------------------------------------------------
 Center     Atomic      Atomic             Coordinates (Angstroms)
 Number     Number       Type             X           Y           Z
 ---------------------------------------------------------------------
      1          6           0        0.679023    0.369748    0.023244
      2          8           0        1.786156   -0.134680   -0.018934
      3          6           0       -0.559623   -0.441095    0.011205
      4          6           0       -1.750839    0.134005   -0.020576
      5          1           0       -0.461366   -1.532100    0.015531
      6          1           0       -1.846106    1.218534   -0.056617
      7          1           0       -2.704190   -0.425675    0.048485
      8          1           0        0.511052    1.440739    0.060840
 ---------------------------------------------------------------------

 SCF Done:  E(RB2PLYPD3) =  -191.615187560     A.U. after   12 cycles
 E2(B2PLYPD3) =    -0.2473634402D+00 E(B2PLYPD3) =    -0.19186255099995D+03

 The electronic state is 1-A.
 Alpha  occ. eigenvalues --  -19.72947 -10.71729 -10.65446 -10.64335  -1.19220
 Alpha  occ. eigenvalues --   -0.92896  -0.75195  -0.67144  -0.56597  -0.56064
 Alpha  occ. eigenvalues --   -0.50661  -0.46594  -0.46204  -0.34742  -0.34009
 Alpha virt. eigenvalues --   -0.01633   0.05683   0.07143   0.08000   0.09709
 Alpha virt. eigenvalues --    0.12463   0.14087   0.15408   0.17501   0.19583
 Alpha virt. eigenvalues --    0.19965   0.21509   0.25573   0.26492   0.28743

 Mulliken charges:
               1
     1  C    0.155159
     2  O   -0.349717
     3  C   -0.042972
     4  C   -0.128862
     5  H    0.105565
     6  H    0.077681
     7  H    0.099371
     8  H    0.083775
 Sum of Mulliken charges =   0.00000

 Dipole moment (field-independent basis, Debye):
    X=             -3.4285    Y=              0.8665    Z=              0.1000  Tot=              3.5377
 Quadrupole moment (field-independent basis, Debye-Ang):
   XX=            -27.4972   YY=            -21.6816   ZZ=            -25.2387
   XY=              1.0369   XZ=              0.0470   YZ=             -0.0783

 Normal termination of Gaussian 09 at Wed Aug 26 18:38:22 2020.
