 Gaussian 09, Revision D.01,
 Gaussian 09:  ES64L-G09RevD.01 24-Apr-2013

 --------------------
 #p B2PLYPD3/Def2QZVP
 --------------------

 --------
 acrolein
 --------
 Symbolic Z-matrix:
 Charge =  0 Multiplicity = 1

                         Standard orientation:
 ---------------------------------------------------------------------
 Center     Atomic      Atomic             Coordinates (Angstroms)
 Number     Number       Type             X           Y           Z
 ---------------------------------------------------------------------
      1          6           0       -0.677685    0.365079   -0.037189
      2          8           0       -1.780948   -0.140677    0.035938
      3          6           0        0.560860   -0.440943   -0.037230
      4          6           0        1.750279    0.130816    0.003515
      5          1           0        0.489225   -1.416171   -0.024437
      6          1           0        1.854237    1.195013    0.064383
      7          1           0        2.647529   -0.432222    0.123778
      8          1           0       -0.544131    1.449082   -0.025805
 ---------------------------------------------------------------------

 SCF Done:  E(RB2PLYPD3) =  -191.608063013     A.U. after   12 cycles
 E2(B2PLYPD3) =    -0.2463073197D+00 E(B2PLYPD3) =    -0.19185437033237D+03

 The electronic state is 1-A.
 Alpha  occ. eigenvalues --  -19.72825 -10.71613 -10.64696 -10.63049  -1.19265
 Alpha  occ. eigenvalues --   -0.93499  -0.75513  -0.68630  -0.57183  -0.56624
 Alpha  occ. eigenvalues --   -0.50824  -0.47583  -0.46615  -0.34763  -0.33936
 Alpha virt. eigenvalues --   -0.01568   0.05793   0.07607   0.08030   0.09755
 Alpha virt. eigenvalues --    0.12639   0.14012   0.15402   0.18177   0.19794
 Alpha virt. eigenvalues --    0.19802   0.21661   0.25483   0.26419   0.28733

 Mulliken charges:
               1
     1  C    0.151311
     2  O   -0.351212
     3  C   -0.048902
     4  C   -0.123183
     5  H    0.115883
     6  H    0.078263
     7  H    0.094174
     8  H    0.083668
 Sum of Mulliken charges =   0.00000

 Dipole moment (field-independent basis, Debye):
    X=              3.4223    Y=              0.8443    Z=              0.0093  Tot=              3.5249
 Quadrupole moment (field-independent basis, Debye-Ang):
   XX=            -27.4395   YY=            -21.6865   ZZ=            -25.0084
   XY=             -1.1399   XZ=              0.5706   YZ=              0.0148

 Normal termination of Gaussian 09 at Wed Aug 26 09:15:15 2020.
