 Gaussian 09, Revision D.01,
 Gaussian 09:  ES64L-G09RevD.01 24-Apr-2013

 --------------------
 #p B2PLYPD3/Def2QZVP
 --------------------

 --------
 acrolein
 --------
 Symbolic Z-matrix:
 Charge =  0 Multiplicity = 1

                         Standard orientation:
 ---------------------------------------------------------------------
 Center     Atomic      Atomic             Coordinates (Angstroms)
 Number     Number       Type             X           Y           Z
 ---------------------------------------------------------------------
      1          6           0        0.697303    0.377556   -0.015875
      2          8           0        1.767672   -0.159201    0.027561
      3          6           0       -0.537817   -0.400788   -0.038308
      4          6           0       -1.795876    0.129326   -0.013582
      5          1           0       -0.326895   -1.538803   -0.052037
      6          1           0       -1.700856    1.080109   -0.028479
      7          1           0       -2.845090   -0.442890    0.237219
      8          1           0        0.549801    1.538623    0.029396
 ---------------------------------------------------------------------

 SCF Done:  E(RB2PLYPD3) =  -191.575494658     A.U. after   13 cycles
 E2(B2PLYPD3) =    -0.2491928456D+00 E(B2PLYPD3) =    -0.19182468750354D+03

 The electronic state is 1-A.
 Alpha  occ. eigenvalues --  -19.73280 -10.72358 -10.65889 -10.65328  -1.20775
 Alpha  occ. eigenvalues --   -0.92635  -0.75489  -0.65889  -0.56498  -0.55557
 Alpha  occ. eigenvalues --   -0.50490  -0.47560  -0.45338  -0.34261  -0.33941
 Alpha virt. eigenvalues --   -0.02350   0.05436   0.06716   0.08257   0.09912
 Alpha virt. eigenvalues --    0.11928   0.13659   0.15364   0.16871   0.19077
 Alpha virt. eigenvalues --    0.20368   0.21457   0.25346   0.26181   0.29204

 Mulliken charges:
               1
     1  C    0.154910
     2  O   -0.334309
     3  C   -0.027598
     4  C   -0.149818
     5  H    0.094480
     6  H    0.093023
     7  H    0.115805
     8  H    0.053506
 Sum of Mulliken charges =   0.00000

 Dipole moment (field-independent basis, Debye):
    X=             -3.2700    Y=              0.8458    Z=              0.0877  Tot=              3.3787
 Quadrupole moment (field-independent basis, Debye-Ang):
   XX=            -26.7926   YY=            -22.2818   ZZ=            -25.3873
   XY=              1.3144   XZ=             -0.7395   YZ=             -0.1081

 Normal termination of Gaussian 09 at Wed Aug 26 12:39:36 2020.
