 Gaussian 09, Revision D.01,
 Gaussian 09:  ES64L-G09RevD.01 24-Apr-2013

 --------------------
 #p B2PLYPD3/Def2QZVP
 --------------------

 --------
 acrolein
 --------
 Symbolic Z-matrix:
 Charge =  0 Multiplicity = 1

                         Standard orientation:
 ---------------------------------------------------------------------
 Center     Atomic      Atomic             Coordinates (Angstroms)
 Number     Number       Type             X           Y           Z
 ---------------------------------------------------------------------
      1          6           0       -0.666553    0.341270   -0.009462
      2          8           0       -1.797567   -0.113791    0.012934
      3          6           0        0.577334   -0.462748   -0.019515
      4          6           0        1.748807    0.150110    0.000881
      5          1           0        0.461994   -1.505545    0.018663
      6          1           0        1.854442    1.241721    0.056064
      7          1           0        2.633927   -0.418245    0.028106
      8          1           0       -0.527360    1.420609   -0.037724
 ---------------------------------------------------------------------

 SCF Done:  E(RB2PLYPD3) =  -191.615069508     A.U. after   12 cycles
 E2(B2PLYPD3) =    -0.2469101481D+00 E(B2PLYPD3) =    -0.19186197965617D+03

 The electronic state is 1-A.
 Alpha  occ. eigenvalues --  -19.72728 -10.71461 -10.65161 -10.64118  -1.18893
 Alpha  occ. eigenvalues --   -0.93368  -0.75531  -0.67540  -0.56790  -0.56461
 Alpha  occ. eigenvalues --   -0.50614  -0.47384  -0.46364  -0.34902  -0.33738
 Alpha virt. eigenvalues --   -0.01630   0.05758   0.07317   0.08043   0.09703
 Alpha virt. eigenvalues --    0.12659   0.13988   0.15329   0.17653   0.19616
 Alpha virt. eigenvalues --    0.20033   0.21758   0.25402   0.26513   0.28614

 Mulliken charges:
               1
     1  C    0.155045
     2  O   -0.354788
     3  C   -0.043896
     4  C   -0.126526
     5  H    0.108721
     6  H    0.086995
     7  H    0.099807
     8  H    0.074641
 Sum of Mulliken charges =   0.00000

 Dipole moment (field-independent basis, Debye):
    X=              3.5479    Y=              0.7420    Z=              0.0370  Tot=              3.6249
 Quadrupole moment (field-independent basis, Debye-Ang):
   XX=            -27.6377   YY=            -21.6156   ZZ=            -25.1358
   XY=             -0.8640   XZ=              0.2431   YZ=              0.0040

 Normal termination of Gaussian 09 at Wed Aug 26 10:46:59 2020.
