 Gaussian 09, Revision D.01,
 Gaussian 09:  ES64L-G09RevD.01 24-Apr-2013

 --------------------
 #p B2PLYPD3/Def2QZVP
 --------------------

 --------
 acrolein
 --------
 Symbolic Z-matrix:
 Charge =  0 Multiplicity = 1

                         Standard orientation:
 ---------------------------------------------------------------------
 Center     Atomic      Atomic             Coordinates (Angstroms)
 Number     Number       Type             X           Y           Z
 ---------------------------------------------------------------------
      1          6           0        0.664527    0.347642    0.012377
      2          8           0        1.792568   -0.115337   -0.014598
      3          6           0       -0.562688   -0.450499    0.018196
      4          6           0       -1.753450    0.139195   -0.019833
      5          1           0       -0.458385   -1.538178    0.037887
      6          1           0       -1.865161    1.223352    0.042065
      7          1           0       -2.603786   -0.413487   -0.039447
      8          1           0        0.496457    1.432984    0.011839
 ---------------------------------------------------------------------

 SCF Done:  E(RB2PLYPD3) =  -191.613465277     A.U. after   13 cycles
 E2(B2PLYPD3) =    -0.2471903707D+00 E(B2PLYPD3) =    -0.19186065564796D+03

 The electronic state is 1-A.
 Alpha  occ. eigenvalues --  -19.72772 -10.71527 -10.64848 -10.64444  -1.18914
 Alpha  occ. eigenvalues --   -0.93376  -0.76205  -0.66974  -0.57063  -0.56467
 Alpha  occ. eigenvalues --   -0.50615  -0.47203  -0.46427  -0.34738  -0.33881
 Alpha virt. eigenvalues --   -0.01888   0.05804   0.07153   0.08176   0.09726
 Alpha virt. eigenvalues --    0.12712   0.14151   0.15316   0.17345   0.19821
 Alpha virt. eigenvalues --    0.20025   0.22034   0.25387   0.26507   0.28544

 Mulliken charges:
               1
     1  C    0.155706
     2  O   -0.353935
     3  C   -0.035683
     4  C   -0.129226
     5  H    0.102028
     6  H    0.084069
     7  H    0.103949
     8  H    0.073092
 Sum of Mulliken charges =   0.00000

 Dipole moment (field-independent basis, Debye):
    X=             -3.5818    Y=              0.7453    Z=              0.0859  Tot=              3.6596
 Quadrupole moment (field-independent basis, Debye-Ang):
   XX=            -27.5210   YY=            -21.6633   ZZ=            -25.1434
   XY=              0.8608   XZ=              0.0787   YZ=              0.0353

 Normal termination of Gaussian 09 at Wed Aug 26 18:48:11 2020.
