 Gaussian 09, Revision D.01,
 Gaussian 09:  ES64L-G09RevD.01 24-Apr-2013

 --------------------
 #p B2PLYPD3/Def2QZVP
 --------------------

 --------
 acrolein
 --------
 Symbolic Z-matrix:
 Charge =  0 Multiplicity = 1

                         Standard orientation:
 ---------------------------------------------------------------------
 Center     Atomic      Atomic             Coordinates (Angstroms)
 Number     Number       Type             X           Y           Z
 ---------------------------------------------------------------------
      1          6           0       -0.644761    0.357614   -0.104391
      2          8           0       -1.785114   -0.127851    0.083862
      3          6           0        0.530019   -0.410626   -0.038813
      4          6           0        1.759379    0.138508    0.040484
      5          1           0        0.418907   -1.494937   -0.111105
      6          1           0        1.750402    1.192125    0.223276
      7          1           0        2.760525   -0.500173    0.018127
      8          1           0       -0.516747    1.312820   -0.184873
 ---------------------------------------------------------------------

 SCF Done:  E(RB2PLYPD3) =  -191.585677561     A.U. after   13 cycles
 E2(B2PLYPD3) =    -0.2496560964D+00 E(B2PLYPD3) =    -0.19183533365773D+03

 The electronic state is 1-A.
 Alpha  occ. eigenvalues --  -19.72468 -10.70085 -10.67012 -10.64229  -1.16964
 Alpha  occ. eigenvalues --   -0.93807  -0.77065  -0.68874  -0.57438  -0.55312
 Alpha  occ. eigenvalues --   -0.49730  -0.46449  -0.45577  -0.34501  -0.33944
 Alpha virt. eigenvalues --   -0.03104   0.05242   0.07010   0.08005   0.09697
 Alpha virt. eigenvalues --    0.12515   0.13804   0.15167   0.17813   0.18833
 Alpha virt. eigenvalues --    0.20269   0.21129   0.25080   0.26865   0.29636

 Mulliken charges:
               1
     1  C    0.147083
     2  O   -0.377885
     3  C   -0.014704
     4  C   -0.140081
     5  H    0.103801
     6  H    0.085416
     7  H    0.107387
     8  H    0.088983
 Sum of Mulliken charges =   0.00000

 Dipole moment (field-independent basis, Debye):
    X=              3.7668    Y=              0.8835    Z=             -0.2895  Tot=              3.8798
 Quadrupole moment (field-independent basis, Debye-Ang):
   XX=            -27.6754   YY=            -21.6920   ZZ=            -25.1620
   XY=             -1.3201   XZ=              0.7202   YZ=              0.2935

 Normal termination of Gaussian 09 at Wed Aug 26 12:51:32 2020.
