 Gaussian 09, Revision D.01,
 Gaussian 09:  ES64L-G09RevD.01 24-Apr-2013

 --------------------
 #p B2PLYPD3/Def2QZVP
 --------------------

 --------
 acrolein
 --------
 Symbolic Z-matrix:
 Charge =  0 Multiplicity = 1

                         Standard orientation:
 ---------------------------------------------------------------------
 Center     Atomic      Atomic             Coordinates (Angstroms)
 Number     Number       Type             X           Y           Z
 ---------------------------------------------------------------------
      1          6           0       -0.670005    0.355487   -0.004879
      2          8           0       -1.788029   -0.115075    0.027409
      3          6           0        0.569852   -0.452599   -0.045751
      4          6           0        1.749697    0.149779    0.005194
      5          1           0        0.437930   -1.610949   -0.047044
      6          1           0        1.841789    1.270355    0.008509
      7          1           0        2.632710   -0.445609    0.167527
      8          1           0       -0.505462    1.390796   -0.075650
 ---------------------------------------------------------------------

 SCF Done:  E(RB2PLYPD3) =  -191.608037351     A.U. after   13 cycles
 E2(B2PLYPD3) =    -0.2475389781D+00 E(B2PLYPD3) =    -0.19185557632860D+03

 The electronic state is 1-A.
 Alpha  occ. eigenvalues --  -19.72760 -10.71154 -10.65660 -10.65063  -1.19285
 Alpha  occ. eigenvalues --   -0.92880  -0.75455  -0.66635  -0.56310  -0.56080
 Alpha  occ. eigenvalues --   -0.50503  -0.46718  -0.45864  -0.34797  -0.33817
 Alpha virt. eigenvalues --   -0.01603   0.05683   0.06780   0.08000   0.09673
 Alpha virt. eigenvalues --    0.12519   0.14023   0.15314   0.17167   0.19487
 Alpha virt. eigenvalues --    0.19786   0.21808   0.25284   0.26759   0.28506

 Mulliken charges:
               1
     1  C    0.161491
     2  O   -0.351230
     3  C   -0.043752
     4  C   -0.130610
     5  H    0.097166
     6  H    0.082461
     7  H    0.104467
     8  H    0.080008
 Sum of Mulliken charges =   0.00000

 Dipole moment (field-independent basis, Debye):
    X=              3.4440    Y=              0.8143    Z=              0.0181  Tot=              3.5390
 Quadrupole moment (field-independent basis, Debye-Ang):
   XX=            -27.8249   YY=            -21.5143   ZZ=            -25.2588
   XY=             -0.8962   XZ=              0.5584   YZ=             -0.0778

 Normal termination of Gaussian 09 at Wed Aug 26 09:08:36 2020.
