 Gaussian 09, Revision D.01,
 Gaussian 09:  ES64L-G09RevD.01 24-Apr-2013

 --------------------
 #p B2PLYPD3/Def2QZVP
 --------------------

 --------
 acrolein
 --------
 Symbolic Z-matrix:
 Charge =  0 Multiplicity = 1

                         Standard orientation:
 ---------------------------------------------------------------------
 Center     Atomic      Atomic             Coordinates (Angstroms)
 Number     Number       Type             X           Y           Z
 ---------------------------------------------------------------------
      1          6           0        0.650505    0.312202    0.008689
      2          8           0        1.799634   -0.073050   -0.027003
      3          6           0       -0.548229   -0.502974   -0.005919
      4          6           0       -1.746079    0.133204    0.009193
      5          1           0       -0.432558   -1.512740    0.100548
      6          1           0       -1.953286    1.377498   -0.171623
      7          1           0       -2.610716   -0.363856   -0.013153
      8          1           0        0.462305    1.428909    0.228469
 ---------------------------------------------------------------------

 SCF Done:  E(RB2PLYPD3) =  -191.583823483     A.U. after   13 cycles
 E2(B2PLYPD3) =    -0.2488625795D+00 E(B2PLYPD3) =    -0.19183268606233D+03

 The electronic state is 1-A.
 Alpha  occ. eigenvalues --  -19.72631 -10.71598 -10.67112 -10.64675  -1.19231
 Alpha  occ. eigenvalues --   -0.93186  -0.76033  -0.66588  -0.57564  -0.55131
 Alpha  occ. eigenvalues --   -0.50586  -0.46540  -0.46031  -0.34733  -0.33392
 Alpha virt. eigenvalues --   -0.02311   0.05041   0.07134   0.07740   0.09483
 Alpha virt. eigenvalues --    0.12220   0.14128   0.15047   0.17686   0.18999
 Alpha virt. eigenvalues --    0.19999   0.21626   0.24099   0.27017   0.28520

 Mulliken charges:
               1
     1  C    0.159384
     2  O   -0.348646
     3  C   -0.050669
     4  C   -0.115451
     5  H    0.115729
     6  H    0.076911
     7  H    0.103811
     8  H    0.058932
 Sum of Mulliken charges =   0.00000

 Dipole moment (field-independent basis, Debye):
    X=             -3.7053    Y=              0.4399    Z=              0.0962  Tot=              3.7326
 Quadrupole moment (field-independent basis, Debye-Ang):
   XX=            -27.3875   YY=            -21.8240   ZZ=            -25.2810
   XY=              0.4080   XZ=              0.3881   YZ=             -0.3006

 Normal termination of Gaussian 09 at Wed Aug 26 13:54:25 2020.
