 Gaussian 09, Revision D.01,
 Gaussian 09:  ES64L-G09RevD.01 24-Apr-2013

 --------------------
 #p B2PLYPD3/Def2QZVP
 --------------------

 --------
 acrolein
 --------
 Symbolic Z-matrix:
 Charge =  0 Multiplicity = 1

                         Standard orientation:
 ---------------------------------------------------------------------
 Center     Atomic      Atomic             Coordinates (Angstroms)
 Number     Number       Type             X           Y           Z
 ---------------------------------------------------------------------
      1          6           0        0.676373    0.350718   -0.015228
      2          8           0        1.783265   -0.125653    0.021197
      3          6           0       -0.540602   -0.437106   -0.020856
      4          6           0       -1.764910    0.132054    0.007360
      5          1           0       -0.439914   -1.502228   -0.012021
      6          1           0       -1.842375    1.212881    0.084430
      7          1           0       -2.716772   -0.435836    0.013857
      8          1           0        0.507772    1.456407   -0.083492
 ---------------------------------------------------------------------

 SCF Done:  E(RB2PLYPD3) =  -191.615051330     A.U. after   13 cycles
 E2(B2PLYPD3) =    -0.2474768347D+00 E(B2PLYPD3) =    -0.19186252816422D+03

 The electronic state is 1-A.
 Alpha  occ. eigenvalues --  -19.72813 -10.71540 -10.66138 -10.64337  -1.19881
 Alpha  occ. eigenvalues --   -0.92765  -0.75564  -0.66925  -0.56549  -0.56215
 Alpha  occ. eigenvalues --   -0.50559  -0.47046  -0.46765  -0.34391  -0.33929
 Alpha virt. eigenvalues --   -0.02091   0.05672   0.07189   0.08348   0.09740
 Alpha virt. eigenvalues --    0.12454   0.13954   0.15413   0.17627   0.19546
 Alpha virt. eigenvalues --    0.20082   0.21338   0.25429   0.26340   0.28850

 Mulliken charges:
               1
     1  C    0.155277
     2  O   -0.345594
     3  C   -0.036429
     4  C   -0.131335
     5  H    0.106276
     6  H    0.082120
     7  H    0.103487
     8  H    0.066198
 Sum of Mulliken charges =   0.00000

 Dipole moment (field-independent basis, Debye):
    X=             -3.5047    Y=              0.7408    Z=             -0.0168  Tot=              3.5822
 Quadrupole moment (field-independent basis, Debye-Ang):
   XX=            -27.1914   YY=            -21.9022   ZZ=            -25.2601
   XY=              0.9818   XZ=             -0.2723   YZ=              0.0698

 Normal termination of Gaussian 09 at Wed Aug 26 20:17:44 2020.
