 Gaussian 09, Revision D.01,
 Gaussian 09:  ES64L-G09RevD.01 24-Apr-2013

 --------------------
 #p B2PLYPD3/Def2QZVP
 --------------------

 --------
 acrolein
 --------
 Symbolic Z-matrix:
 Charge =  0 Multiplicity = 1

                         Standard orientation:
 ---------------------------------------------------------------------
 Center     Atomic      Atomic             Coordinates (Angstroms)
 Number     Number       Type             X           Y           Z
 ---------------------------------------------------------------------
      1          6           0       -0.678998    0.354062    0.018364
      2          8           0       -1.780951   -0.127413   -0.034230
      3          6           0        0.564925   -0.455860    0.023523
      4          6           0        1.758255    0.139480   -0.042508
      5          1           0        0.493253   -1.491882    0.112953
      6          1           0        1.860422    1.266857   -0.030796
      7          1           0        2.643074   -0.397494    0.023772
      8          1           0       -0.614233    1.415733    0.171633
 ---------------------------------------------------------------------

 SCF Done:  E(RB2PLYPD3) =  -191.611145551     A.U. after   12 cycles
 E2(B2PLYPD3) =    -0.2462993035D+00 E(B2PLYPD3) =    -0.19185744485459D+03

 The electronic state is 1-A.
 Alpha  occ. eigenvalues --  -19.72574 -10.71192 -10.65234 -10.64128  -1.19895
 Alpha  occ. eigenvalues --   -0.92723  -0.75249  -0.67644  -0.57020  -0.56590
 Alpha  occ. eigenvalues --   -0.50822  -0.47182  -0.46446  -0.34573  -0.33744
 Alpha virt. eigenvalues --   -0.01462   0.05815   0.07208   0.08195   0.09622
 Alpha virt. eigenvalues --    0.12443   0.14372   0.15403   0.17816   0.19193
 Alpha virt. eigenvalues --    0.20073   0.21705   0.25235   0.26447   0.28907

 Mulliken charges:
               1
     1  C    0.153374
     2  O   -0.342883
     3  C   -0.057712
     4  C   -0.123515
     5  H    0.110443
     6  H    0.076477
     7  H    0.100010
     8  H    0.083807
 Sum of Mulliken charges =   0.00000

 Dipole moment (field-independent basis, Debye):
    X=              3.3744    Y=              0.7946    Z=              0.2605  Tot=              3.4765
 Quadrupole moment (field-independent basis, Debye-Ang):
   XX=            -27.4117   YY=            -21.6218   ZZ=            -25.1447
   XY=             -1.1553   XZ=             -0.1098   YZ=             -0.1261

 Normal termination of Gaussian 09 at Wed Aug 26 08:38:13 2020.
