 Gaussian 09, Revision D.01,
 Gaussian 09:  ES64L-G09RevD.01 24-Apr-2013

 --------------------
 #p B2PLYPD3/Def2QZVP
 --------------------

 --------
 acrolein
 --------
 Symbolic Z-matrix:
 Charge =  0 Multiplicity = 1

                         Standard orientation:
 ---------------------------------------------------------------------
 Center     Atomic      Atomic             Coordinates (Angstroms)
 Number     Number       Type             X           Y           Z
 ---------------------------------------------------------------------
      1          6           0       -0.675863    0.375483   -0.048752
      2          8           0       -1.784226   -0.144790    0.043901
      3          6           0        0.561738   -0.441893   -0.055575
      4          6           0        1.756027    0.133748    0.010800
      5          1           0        0.477404   -1.482068    0.013619
      6          1           0        1.844283    1.194607    0.080528
      7          1           0        2.668572   -0.422672    0.127673
      8          1           0       -0.567865    1.464425   -0.011870
 ---------------------------------------------------------------------

 SCF Done:  E(RB2PLYPD3) =  -191.613427784     A.U. after   12 cycles
 E2(B2PLYPD3) =    -0.2474856554D+00 E(B2PLYPD3) =    -0.19186091343924D+03

 The electronic state is 1-A.
 Alpha  occ. eigenvalues --  -19.72830 -10.71920 -10.64920 -10.64057  -1.18569
 Alpha  occ. eigenvalues --   -0.93047  -0.75343  -0.67773  -0.56911  -0.56376
 Alpha  occ. eigenvalues --   -0.50416  -0.47099  -0.46179  -0.34628  -0.33968
 Alpha virt. eigenvalues --   -0.01762   0.05750   0.07306   0.07784   0.09752
 Alpha virt. eigenvalues --    0.12504   0.14066   0.15403   0.17781   0.19787
 Alpha virt. eigenvalues --    0.19878   0.21646   0.25182   0.26408   0.28878

 Mulliken charges:
               1
     1  C    0.152598
     2  O   -0.355944
     3  C   -0.048469
     4  C   -0.124039
     5  H    0.112901
     6  H    0.078622
     7  H    0.097077
     8  H    0.087254
 Sum of Mulliken charges =   0.00000

 Dipole moment (field-independent basis, Debye):
    X=              3.4555    Y=              0.9011    Z=              0.0376  Tot=              3.5713
 Quadrupole moment (field-independent basis, Debye-Ang):
   XX=            -27.5425   YY=            -21.6041   ZZ=            -25.1665
   XY=             -1.2053   XZ=              0.6689   YZ=             -0.0266

 Normal termination of Gaussian 09 at Wed Aug 26 20:50:49 2020.
