 Gaussian 09, Revision D.01,
 Gaussian 09:  ES64L-G09RevD.01 24-Apr-2013

 --------------------
 #p B2PLYPD3/Def2QZVP
 --------------------

 --------
 acrolein
 --------
 Symbolic Z-matrix:
 Charge =  0 Multiplicity = 1

                         Standard orientation:
 ---------------------------------------------------------------------
 Center     Atomic      Atomic             Coordinates (Angstroms)
 Number     Number       Type             X           Y           Z
 ---------------------------------------------------------------------
      1          6           0       -0.673383    0.358167    0.015931
      2          8           0       -1.778063   -0.128207   -0.014859
      3          6           0        0.552131   -0.446125    0.015278
      4          6           0        1.753927    0.143833   -0.017300
      5          1           0        0.431356   -1.542903    0.040958
      6          1           0        1.799829    1.220953    0.050877
      7          1           0        2.731846   -0.429551   -0.047436
      8          1           0       -0.534573    1.441906   -0.008981
 ---------------------------------------------------------------------

 SCF Done:  E(RB2PLYPD3) =  -191.614154902     A.U. after   12 cycles
 E2(B2PLYPD3) =    -0.2473681163D+00 E(B2PLYPD3) =    -0.19186152301811D+03

 The electronic state is 1-A.
 Alpha  occ. eigenvalues --  -19.72713 -10.71388 -10.66003 -10.64598  -1.19723
 Alpha  occ. eigenvalues --   -0.92718  -0.75022  -0.66983  -0.56596  -0.55901
 Alpha  occ. eigenvalues --   -0.50357  -0.46981  -0.46401  -0.34501  -0.33906
 Alpha virt. eigenvalues --   -0.01719   0.05663   0.07035   0.08132   0.09746
 Alpha virt. eigenvalues --    0.12396   0.14006   0.15364   0.17431   0.19747
 Alpha virt. eigenvalues --    0.20052   0.21232   0.25421   0.26426   0.29042

 Mulliken charges:
               1
     1  C    0.154082
     2  O   -0.347269
     3  C   -0.039242
     4  C   -0.132648
     5  H    0.105206
     6  H    0.084013
     7  H    0.101796
     8  H    0.074062
 Sum of Mulliken charges =   0.00000

 Dipole moment (field-independent basis, Debye):
    X=              3.4279    Y=              0.8048    Z=              0.0864  Tot=              3.5221
 Quadrupole moment (field-independent basis, Debye-Ang):
   XX=            -27.4176   YY=            -21.7227   ZZ=            -25.2875
   XY=             -1.0634   XZ=             -0.0857   YZ=              0.0356

 Normal termination of Gaussian 09 at Wed Aug 26 18:41:37 2020.
