 Gaussian 09, Revision D.01,
 Gaussian 09:  ES64L-G09RevD.01 24-Apr-2013

 --------------------
 #p B2PLYPD3/Def2QZVP
 --------------------

 --------
 acrolein
 --------
 Symbolic Z-matrix:
 Charge =  0 Multiplicity = 1

                         Standard orientation:
 ---------------------------------------------------------------------
 Center     Atomic      Atomic             Coordinates (Angstroms)
 Number     Number       Type             X           Y           Z
 ---------------------------------------------------------------------
      1          6           0       -0.683503    0.361390    0.044561
      2          8           0       -1.764789   -0.156247   -0.053604
      3          6           0        0.540059   -0.419284    0.048372
      4          6           0        1.751223    0.108754   -0.053702
      5          1           0        0.459772   -1.363737    0.171062
      6          1           0        1.696215    1.162346    0.039027
      7          1           0        2.718916   -0.445306   -0.101880
      8          1           0       -0.403259    1.591516    0.085239
 ---------------------------------------------------------------------

 SCF Done:  E(RB2PLYPD3) =  -191.583188564     A.U. after   13 cycles
 E2(B2PLYPD3) =    -0.2483485040D+00 E(B2PLYPD3) =    -0.19183153706778D+03

 The electronic state is 1-A.
 Alpha  occ. eigenvalues --  -19.73760 -10.73164 -10.65298 -10.62553  -1.20741
 Alpha  occ. eigenvalues --   -0.93942  -0.75281  -0.67494  -0.57151  -0.55319
 Alpha  occ. eigenvalues --   -0.51067  -0.48271  -0.46646  -0.34758  -0.33919
 Alpha virt. eigenvalues --   -0.01847   0.05707   0.07002   0.08271   0.09953
 Alpha virt. eigenvalues --    0.12437   0.13023   0.15249   0.17984   0.19731
 Alpha virt. eigenvalues --    0.20187   0.20982   0.25566   0.26154   0.28799

 Mulliken charges:
               1
     1  C    0.162279
     2  O   -0.330087
     3  C   -0.018130
     4  C   -0.131572
     5  H    0.105163
     6  H    0.076236
     7  H    0.107417
     8  H    0.028694
 Sum of Mulliken charges =   0.00000

 Dipole moment (field-independent basis, Debye):
    X=              3.3443    Y=              0.5497    Z=              0.2779  Tot=              3.4005
 Quadrupole moment (field-independent basis, Debye-Ang):
   XX=            -26.8469   YY=            -22.4818   ZZ=            -25.1133
   XY=             -1.2651   XZ=             -0.3361   YZ=             -0.0483

 Normal termination of Gaussian 09 at Wed Aug 26 12:49:19 2020.
