 Gaussian 09, Revision D.01,
 Gaussian 09:  ES64L-G09RevD.01 24-Apr-2013

 --------------------
 #p B2PLYPD3/Def2QZVP
 --------------------

 --------
 acrolein
 --------
 Symbolic Z-matrix:
 Charge =  0 Multiplicity = 1

                         Standard orientation:
 ---------------------------------------------------------------------
 Center     Atomic      Atomic             Coordinates (Angstroms)
 Number     Number       Type             X           Y           Z
 ---------------------------------------------------------------------
      1          6           0        0.658388    0.332851    0.016386
      2          8           0        1.794972   -0.106095   -0.024115
      3          6           0       -0.559311   -0.456852    0.016404
      4          6           0       -1.754995    0.145793   -0.009346
      5          1           0       -0.421187   -1.541693    0.039803
      6          1           0       -1.810323    1.246748   -0.087458
      7          1           0       -2.684302   -0.415781   -0.014964
      8          1           0        0.491544    1.428731    0.114876
 ---------------------------------------------------------------------

 SCF Done:  E(RB2PLYPD3) =  -191.615118346     A.U. after   13 cycles
 E2(B2PLYPD3) =    -0.2479859677D+00 E(B2PLYPD3) =    -0.19186310431351D+03

 The electronic state is 1-A.
 Alpha  occ. eigenvalues --  -19.72735 -10.71499 -10.66146 -10.64675  -1.18931
 Alpha  occ. eigenvalues --   -0.93231  -0.75690  -0.66680  -0.56519  -0.56109
 Alpha  occ. eigenvalues --   -0.50381  -0.46931  -0.46497  -0.34701  -0.33802
 Alpha virt. eigenvalues --   -0.02127   0.05673   0.07018   0.08213   0.09729
 Alpha virt. eigenvalues --    0.12564   0.13900   0.15279   0.17349   0.19474
 Alpha virt. eigenvalues --    0.20158   0.21472   0.25214   0.26599   0.28892

 Mulliken charges:
               1
     1  C    0.157504
     2  O   -0.355070
     3  C   -0.032791
     4  C   -0.128158
     5  H    0.103793
     6  H    0.086196
     7  H    0.105759
     8  H    0.062767
 Sum of Mulliken charges =   0.00000

 Dipole moment (field-independent basis, Debye):
    X=             -3.6267    Y=              0.6720    Z=              0.0593  Tot=              3.6889
 Quadrupole moment (field-independent basis, Debye-Ang):
   XX=            -27.4996   YY=            -21.7996   ZZ=            -25.2591
   XY=              0.8090   XZ=              0.2803   YZ=             -0.1106

 Normal termination of Gaussian 09 at Wed Aug 26 15:44:38 2020.
