 Gaussian 09, Revision D.01,
 Gaussian 09:  ES64L-G09RevD.01 24-Apr-2013

 --------------------
 #p B2PLYPD3/Def2QZVP
 --------------------

 --------
 acrolein
 --------
 Symbolic Z-matrix:
 Charge =  0 Multiplicity = 1

                         Standard orientation:
 ---------------------------------------------------------------------
 Center     Atomic      Atomic             Coordinates (Angstroms)
 Number     Number       Type             X           Y           Z
 ---------------------------------------------------------------------
      1          6           0       -0.662172    0.332329   -0.029909
      2          8           0       -1.803240   -0.102009    0.029562
      3          6           0        0.592909   -0.462504   -0.037153
      4          6           0        1.742711    0.151484    0.028229
      5          1           0        0.467612   -1.514932   -0.041245
      6          1           0        1.886876    1.243961   -0.041289
      7          1           0        2.539303   -0.407118    0.092532
      8          1           0       -0.508559    1.366306   -0.013499
 ---------------------------------------------------------------------

 SCF Done:  E(RB2PLYPD3) =  -191.603114116     A.U. after   13 cycles
 E2(B2PLYPD3) =    -0.2462424637D+00 E(B2PLYPD3) =    -0.19184935657994D+03

 The electronic state is 1-A.
 Alpha  occ. eigenvalues --  -19.72687 -10.70973 -10.64124 -10.63928  -1.18619
 Alpha  occ. eigenvalues --   -0.94054  -0.76516  -0.67886  -0.57571  -0.56625
 Alpha  occ. eigenvalues --   -0.50863  -0.47639  -0.46177  -0.35195  -0.33691
 Alpha virt. eigenvalues --   -0.01473   0.05835   0.07397   0.08104   0.09686
 Alpha virt. eigenvalues --    0.12868   0.14160   0.15271   0.17599   0.19689
 Alpha virt. eigenvalues --    0.20075   0.22347   0.25230   0.26885   0.28170

 Mulliken charges:
               1
     1  C    0.155793
     2  O   -0.358876
     3  C   -0.041229
     4  C   -0.128544
     5  H    0.103347
     6  H    0.089372
     7  H    0.101647
     8  H    0.078490
 Sum of Mulliken charges =   0.00000

 Dipole moment (field-independent basis, Debye):
    X=              3.5977    Y=              0.7310    Z=             -0.0995  Tot=              3.6726
 Quadrupole moment (field-independent basis, Debye-Ang):
   XX=            -27.7375   YY=            -21.5354   ZZ=            -24.9543
   XY=             -0.7183   XZ=              0.2720   YZ=             -0.0710

 Normal termination of Gaussian 09 at Wed Aug 26 09:25:47 2020.
