 Gaussian 09, Revision D.01,
 Gaussian 09:  ES64L-G09RevD.01 24-Apr-2013

 --------------------
 #p B2PLYPD3/Def2QZVP
 --------------------

 --------
 acrolein
 --------
 Symbolic Z-matrix:
 Charge =  0 Multiplicity = 1

                         Standard orientation:
 ---------------------------------------------------------------------
 Center     Atomic      Atomic             Coordinates (Angstroms)
 Number     Number       Type             X           Y           Z
 ---------------------------------------------------------------------
      1          6           0        0.669340    0.338269   -0.019630
      2          8           0        1.784466   -0.108941    0.024428
      3          6           0       -0.564115   -0.461170   -0.029354
      4          6           0       -1.751461    0.149094    0.010443
      5          1           0       -0.428347   -1.538734   -0.041388
      6          1           0       -1.860216    1.271181   -0.015865
      7          1           0       -2.663527   -0.424075    0.111364
      8          1           0        0.553783    1.405994   -0.018296
 ---------------------------------------------------------------------

 SCF Done:  E(RB2PLYPD3) =  -191.614720921     A.U. after   13 cycles
 E2(B2PLYPD3) =    -0.2466778421D+00 E(B2PLYPD3) =    -0.19186139876353D+03

 The electronic state is 1-A.
 Alpha  occ. eigenvalues --  -19.72508 -10.70906 -10.66002 -10.64549  -1.19868
 Alpha  occ. eigenvalues --   -0.92818  -0.75233  -0.67143  -0.56522  -0.56295
 Alpha  occ. eigenvalues --   -0.50577  -0.47054  -0.46625  -0.34661  -0.33647
 Alpha virt. eigenvalues --   -0.01586   0.05679   0.07190   0.08288   0.09671
 Alpha virt. eigenvalues --    0.12457   0.14054   0.15353   0.17572   0.19473
 Alpha virt. eigenvalues --    0.19957   0.21588   0.25346   0.26553   0.28756

 Mulliken charges:
               1
     1  C    0.157524
     2  O   -0.347865
     3  C   -0.044436
     4  C   -0.129933
     5  H    0.106366
     6  H    0.086460
     7  H    0.101848
     8  H    0.070036
 Sum of Mulliken charges =   0.00000

 Dipole moment (field-independent basis, Debye):
    X=             -3.4695    Y=              0.7288    Z=             -0.0365  Tot=              3.5454
 Quadrupole moment (field-independent basis, Debye-Ang):
   XX=            -27.4997   YY=            -21.6399   ZZ=            -25.2141
   XY=              0.8409   XZ=             -0.3525   YZ=             -0.0404

 Normal termination of Gaussian 09 at Wed Aug 26 20:04:52 2020.
