 Gaussian 09, Revision D.01,
 Gaussian 09:  ES64L-G09RevD.01 24-Apr-2013

 --------------------
 #p B2PLYPD3/Def2QZVP
 --------------------

 --------
 acrolein
 --------
 Symbolic Z-matrix:
 Charge =  0 Multiplicity = 1

                         Standard orientation:
 ---------------------------------------------------------------------
 Center     Atomic      Atomic             Coordinates (Angstroms)
 Number     Number       Type             X           Y           Z
 ---------------------------------------------------------------------
      1          6           0        0.671252    0.352989   -0.011873
      2          8           0        1.784877   -0.122885    0.010997
      3          6           0       -0.547843   -0.441944   -0.004840
      4          6           0       -1.757745    0.136094   -0.003449
      5          1           0       -0.423186   -1.547596   -0.024833
      6          1           0       -1.820985    1.190998    0.019469
      7          1           0       -2.702218   -0.418565    0.048718
      8          1           0        0.473382    1.475413   -0.010361
 ---------------------------------------------------------------------

 SCF Done:  E(RB2PLYPD3) =  -191.614211406     A.U. after   12 cycles
 E2(B2PLYPD3) =    -0.2478181148D+00 E(B2PLYPD3) =    -0.19186202952124D+03

 The electronic state is 1-A.
 Alpha  occ. eigenvalues --  -19.72962 -10.71900 -10.65584 -10.64704  -1.19593
 Alpha  occ. eigenvalues --   -0.92988  -0.75646  -0.66429  -0.56567  -0.56188
 Alpha  occ. eigenvalues --   -0.50528  -0.46951  -0.46604  -0.34584  -0.33935
 Alpha virt. eigenvalues --   -0.02017   0.05738   0.06979   0.08264   0.09785
 Alpha virt. eigenvalues --    0.12559   0.13943   0.15330   0.17213   0.19883
 Alpha virt. eigenvalues --    0.20006   0.21598   0.25508   0.26354   0.28799

 Mulliken charges:
               1
     1  C    0.157066
     2  O   -0.346774
     3  C   -0.030016
     4  C   -0.131459
     5  H    0.101634
     6  H    0.083789
     7  H    0.104185
     8  H    0.061574
 Sum of Mulliken charges =   0.00000

 Dipole moment (field-independent basis, Debye):
    X=             -3.5164    Y=              0.7373    Z=             -0.0039  Tot=              3.5929
 Quadrupole moment (field-independent basis, Debye-Ang):
   XX=            -27.2765   YY=            -21.8900   ZZ=            -25.2723
   XY=              0.8637   XZ=             -0.1937   YZ=              0.0295

 Normal termination of Gaussian 09 at Wed Aug 26 10:25:10 2020.
