 Gaussian 09, Revision D.01,
 Gaussian 09:  ES64L-G09RevD.01 24-Apr-2013

 --------------------
 #p B2PLYPD3/Def2QZVP
 --------------------

 --------
 acrolein
 --------
 Symbolic Z-matrix:
 Charge =  0 Multiplicity = 1

                         Standard orientation:
 ---------------------------------------------------------------------
 Center     Atomic      Atomic             Coordinates (Angstroms)
 Number     Number       Type             X           Y           Z
 ---------------------------------------------------------------------
      1          6           0        0.669966    0.353233    0.007849
      2          8           0        1.781473   -0.131485   -0.005048
      3          6           0       -0.565499   -0.438211    0.013579
      4          6           0       -1.746811    0.146902   -0.009397
      5          1           0       -0.452091   -1.530140   -0.007965
      6          1           0       -1.783763    1.184115    0.042784
      7          1           0       -2.692766   -0.428799   -0.029800
      8          1           0        0.530900    1.455158   -0.036826
 ---------------------------------------------------------------------

 SCF Done:  E(RB2PLYPD3) =  -191.614874993     A.U. after   12 cycles
 E2(B2PLYPD3) =    -0.2469287822D+00 E(B2PLYPD3) =    -0.19186180377514D+03

 The electronic state is 1-A.
 Alpha  occ. eigenvalues --  -19.72832 -10.71663 -10.64979 -10.64238  -1.19436
 Alpha  occ. eigenvalues --   -0.93444  -0.75347  -0.67001  -0.56924  -0.56259
 Alpha  occ. eigenvalues --   -0.50484  -0.46806  -0.46786  -0.34908  -0.33883
 Alpha virt. eigenvalues --   -0.01596   0.05803   0.07032   0.08213   0.09825
 Alpha virt. eigenvalues --    0.12581   0.13975   0.15323   0.17333   0.19825
 Alpha virt. eigenvalues --    0.20224   0.21540   0.25516   0.26449   0.28947

 Mulliken charges:
               1
     1  C    0.151167
     2  O   -0.348649
     3  C   -0.031377
     4  C   -0.133058
     5  H    0.102654
     6  H    0.086550
     7  H    0.102736
     8  H    0.069978
 Sum of Mulliken charges =   0.00000

 Dipole moment (field-independent basis, Debye):
    X=             -3.4552    Y=              0.7897    Z=              0.0116  Tot=              3.5443
 Quadrupole moment (field-independent basis, Debye-Ang):
   XX=            -27.4490   YY=            -21.7646   ZZ=            -25.1593
   XY=              1.0860   XZ=              0.0311   YZ=              0.0725

 Normal termination of Gaussian 09 at Wed Aug 26 16:23:11 2020.
