 Gaussian 09, Revision D.01,
 Gaussian 09:  ES64L-G09RevD.01 24-Apr-2013

 --------------------
 #p B2PLYPD3/Def2QZVP
 --------------------

 --------
 acrolein
 --------
 Symbolic Z-matrix:
 Charge =  0 Multiplicity = 1

                         Standard orientation:
 ---------------------------------------------------------------------
 Center     Atomic      Atomic             Coordinates (Angstroms)
 Number     Number       Type             X           Y           Z
 ---------------------------------------------------------------------
      1          6           0       -0.696288    0.380222    0.016790
      2          8           0       -1.749696   -0.155106   -0.045304
      3          6           0        0.516064   -0.455680    0.079542
      4          6           0        1.755468    0.141121   -0.069033
      5          1           0        0.477246   -1.436673    0.063073
      6          1           0        1.791094    1.169386    0.032211
      7          1           0        2.789241   -0.453549   -0.035781
      8          1           0       -0.511482    1.567706    0.139138
 ---------------------------------------------------------------------

 SCF Done:  E(RB2PLYPD3) =  -191.585780920     A.U. after   13 cycles
 E2(B2PLYPD3) =    -0.2482264701D+00 E(B2PLYPD3) =    -0.19183400739006D+03

 The electronic state is 1-A.
 Alpha  occ. eigenvalues --  -19.73114 -10.72493 -10.66262 -10.63805  -1.21665
 Alpha  occ. eigenvalues --   -0.91888  -0.74178  -0.67592  -0.56571  -0.55644
 Alpha  occ. eigenvalues --   -0.49955  -0.47860  -0.47506  -0.33768  -0.33685
 Alpha virt. eigenvalues --   -0.01819   0.05598   0.06893   0.07918   0.09811
 Alpha virt. eigenvalues --    0.12144   0.13588   0.15327   0.18051   0.19571
 Alpha virt. eigenvalues --    0.20240   0.20872   0.24786   0.25804   0.28623

 Mulliken charges:
               1
     1  C    0.161352
     2  O   -0.322344
     3  C   -0.057887
     4  C   -0.129563
     5  H    0.119104
     6  H    0.084076
     7  H    0.087706
     8  H    0.057556
 Sum of Mulliken charges =   0.00000

 Dipole moment (field-independent basis, Debye):
    X=              3.1426    Y=              0.7559    Z=              0.2018  Tot=              3.2385
 Quadrupole moment (field-independent basis, Debye-Ang):
   XX=            -27.0658   YY=            -21.9141   ZZ=            -25.3981
   XY=             -1.1970   XZ=             -0.2199   YZ=              0.0700

 Normal termination of Gaussian 09 at Wed Aug 26 11:09:57 2020.
