 Gaussian 09, Revision D.01,
 Gaussian 09:  ES64L-G09RevD.01 24-Apr-2013

 --------------------
 #p B2PLYPD3/Def2QZVP
 --------------------

 --------
 acrolein
 --------
 Symbolic Z-matrix:
 Charge =  0 Multiplicity = 1

                         Standard orientation:
 ---------------------------------------------------------------------
 Center     Atomic      Atomic             Coordinates (Angstroms)
 Number     Number       Type             X           Y           Z
 ---------------------------------------------------------------------
      1          6           0       -0.670313    0.359059   -0.030591
      2          8           0       -1.788497   -0.138742    0.040584
      3          6           0        0.565912   -0.420841   -0.049284
      4          6           0        1.759821    0.144459    0.010353
      5          1           0        0.466388   -1.475252   -0.078741
      6          1           0        1.753467    1.119419   -0.001108
      7          1           0        2.648502   -0.456570    0.203496
      8          1           0       -0.492899    1.426282   -0.031186
 ---------------------------------------------------------------------

 SCF Done:  E(RB2PLYPD3) =  -191.603522329     A.U. after   13 cycles
 E2(B2PLYPD3) =    -0.2471625956D+00 E(B2PLYPD3) =    -0.19185068492419D+03

 The electronic state is 1-A.
 Alpha  occ. eigenvalues --  -19.72972 -10.71618 -10.64195 -10.63696  -1.18684
 Alpha  occ. eigenvalues --   -0.94028  -0.76321  -0.68178  -0.57730  -0.56203
 Alpha  occ. eigenvalues --   -0.50606  -0.47748  -0.46317  -0.34762  -0.34052
 Alpha virt. eigenvalues --   -0.02026   0.05853   0.07257   0.08153   0.09921
 Alpha virt. eigenvalues --    0.12758   0.13773   0.15330   0.17626   0.19589
 Alpha virt. eigenvalues --    0.20416   0.21937   0.25387   0.26577   0.28943

 Mulliken charges:
               1
     1  C    0.142504
     2  O   -0.356634
     3  C   -0.016550
     4  C   -0.142706
     5  H    0.102003
     6  H    0.087231
     7  H    0.107297
     8  H    0.076854
 Sum of Mulliken charges =   0.00000

 Dipole moment (field-independent basis, Debye):
    X=              3.5129    Y=              0.8342    Z=             -0.0245  Tot=              3.6106
 Quadrupole moment (field-independent basis, Debye-Ang):
   XX=            -27.6060   YY=            -21.7881   ZZ=            -24.9829
   XY=             -1.2140   XZ=              0.6678   YZ=             -0.0631

 Normal termination of Gaussian 09 at Wed Aug 26 08:37:53 2020.
