 Gaussian 09, Revision D.01,
 Gaussian 09:  ES64L-G09RevD.01 24-Apr-2013

 --------------------
 #p B2PLYPD3/Def2QZVP
 --------------------

 --------
 acrolein
 --------
 Symbolic Z-matrix:
 Charge =  0 Multiplicity = 1

                         Standard orientation:
 ---------------------------------------------------------------------
 Center     Atomic      Atomic             Coordinates (Angstroms)
 Number     Number       Type             X           Y           Z
 ---------------------------------------------------------------------
      1          6           0       -0.680239    0.359027   -0.010272
      2          8           0       -1.786040   -0.129054    0.014258
      3          6           0        0.569952   -0.452964   -0.016673
      4          6           0        1.755984    0.144005    0.000871
      5          1           0        0.466925   -1.504454   -0.036718
      6          1           0        1.817899    1.224815   -0.018278
      7          1           0        2.653216   -0.422065    0.097895
      8          1           0       -0.523904    1.433731   -0.000525
 ---------------------------------------------------------------------

 SCF Done:  E(RB2PLYPD3) =  -191.616363275     A.U. after   12 cycles
 E2(B2PLYPD3) =    -0.2465826076D+00 E(B2PLYPD3) =    -0.19186294588234D+03

 The electronic state is 1-A.
 Alpha  occ. eigenvalues --  -19.72873 -10.71555 -10.64964 -10.64017  -1.19654
 Alpha  occ. eigenvalues --   -0.92929  -0.75225  -0.67557  -0.56789  -0.56358
 Alpha  occ. eigenvalues --   -0.50802  -0.47318  -0.46684  -0.34670  -0.33842
 Alpha virt. eigenvalues --   -0.01450   0.05818   0.07346   0.08007   0.09769
 Alpha virt. eigenvalues --    0.12609   0.13991   0.15397   0.17682   0.19698
 Alpha virt. eigenvalues --    0.19940   0.21705   0.25487   0.26538   0.28773

 Mulliken charges:
               1
     1  C    0.154100
     2  O   -0.346633
     3  C   -0.045222
     4  C   -0.133470
     5  H    0.107566
     6  H    0.082577
     7  H    0.102064
     8  H    0.079019
 Sum of Mulliken charges =   0.00000

 Dipole moment (field-independent basis, Debye):
    X=              3.3855    Y=              0.8070    Z=             -0.0052  Tot=              3.4804
 Quadrupole moment (field-independent basis, Debye-Ang):
   XX=            -27.5583   YY=            -21.6382   ZZ=            -25.1528
   XY=             -1.0561   XZ=              0.2673   YZ=             -0.0344

 Normal termination of Gaussian 09 at Wed Aug 26 15:44:49 2020.
