 Gaussian 09, Revision D.01,
 Gaussian 09:  ES64L-G09RevD.01 24-Apr-2013

 --------------------
 #p B2PLYPD3/Def2QZVP
 --------------------

 --------
 acrolein
 --------
 Symbolic Z-matrix:
 Charge =  0 Multiplicity = 1

                         Standard orientation:
 ---------------------------------------------------------------------
 Center     Atomic      Atomic             Coordinates (Angstroms)
 Number     Number       Type             X           Y           Z
 ---------------------------------------------------------------------
      1          6           0        0.659374    0.350218    0.042158
      2          8           0        1.787140   -0.128872   -0.044468
      3          6           0       -0.551165   -0.449020    0.013496
      4          6           0       -1.735135    0.139294   -0.020711
      5          1           0       -0.515415   -1.436659    0.138710
      6          1           0       -1.776620    1.221756   -0.101091
      7          1           0       -2.693977   -0.445412   -0.044850
      8          1           0        0.450442    1.448340    0.153312
 ---------------------------------------------------------------------

 SCF Done:  E(RB2PLYPD3) =  -191.606631457     A.U. after   13 cycles
 E2(B2PLYPD3) =    -0.2479412030D+00 E(B2PLYPD3) =    -0.19185457266043D+03

 The electronic state is 1-A.
 Alpha  occ. eigenvalues --  -19.72931 -10.71969 -10.65740 -10.63164  -1.18535
 Alpha  occ. eigenvalues --   -0.93939  -0.75324  -0.68125  -0.56646  -0.56061
 Alpha  occ. eigenvalues --   -0.50363  -0.47453  -0.46186  -0.34851  -0.34019
 Alpha virt. eigenvalues --   -0.01930   0.05658   0.07109   0.07959   0.09733
 Alpha virt. eigenvalues --    0.12622   0.13680   0.15106   0.18098   0.19466
 Alpha virt. eigenvalues --    0.20105   0.21187   0.25123   0.26702   0.29093

 Mulliken charges:
               1
     1  C    0.147808
     2  O   -0.355678
     3  C   -0.028806
     4  C   -0.123997
     5  H    0.109924
     6  H    0.079552
     7  H    0.096831
     8  H    0.074368
 Sum of Mulliken charges =   0.00000

 Dipole moment (field-independent basis, Debye):
    X=             -3.5908    Y=              0.7430    Z=              0.2092  Tot=              3.6728
 Quadrupole moment (field-independent basis, Debye-Ang):
   XX=            -27.5971   YY=            -21.8033   ZZ=            -25.1115
   XY=              1.1056   XZ=              0.3766   YZ=             -0.2137

 Normal termination of Gaussian 09 at Wed Aug 26 09:27:05 2020.
