 Gaussian 09, Revision D.01,
 Gaussian 09:  ES64L-G09RevD.01 24-Apr-2013

 --------------------
 #p B2PLYPD3/Def2QZVP
 --------------------

 --------
 acrolein
 --------
 Symbolic Z-matrix:
 Charge =  0 Multiplicity = 1

                         Standard orientation:
 ---------------------------------------------------------------------
 Center     Atomic      Atomic             Coordinates (Angstroms)
 Number     Number       Type             X           Y           Z
 ---------------------------------------------------------------------
      1          6           0        0.662277    0.349037    0.038993
      2          8           0        1.806750   -0.110173   -0.036260
      3          6           0       -0.577295   -0.458768   -0.006845
      4          6           0       -1.751431    0.145598   -0.014691
      5          1           0       -0.481382   -1.578359    0.137043
      6          1           0       -1.874679    1.251169   -0.088934
      7          1           0       -2.574718   -0.413048   -0.008214
      8          1           0        0.475469    1.406415    0.145444
 ---------------------------------------------------------------------

 SCF Done:  E(RB2PLYPD3) =  -191.605222333     A.U. after   13 cycles
 E2(B2PLYPD3) =    -0.2481075949D+00 E(B2PLYPD3) =    -0.19185332992825D+03

 The electronic state is 1-A.
 Alpha  occ. eigenvalues --  -19.72920 -10.71778 -10.64914 -10.64677  -1.18001
 Alpha  occ. eigenvalues --   -0.93486  -0.76297  -0.66693  -0.57031  -0.56178
 Alpha  occ. eigenvalues --   -0.50528  -0.46875  -0.45664  -0.34924  -0.33946
 Alpha virt. eigenvalues --   -0.01893   0.05781   0.06831   0.07800   0.09626
 Alpha virt. eigenvalues --    0.12733   0.14066   0.15076   0.17356   0.19471
 Alpha virt. eigenvalues --    0.20129   0.22182   0.24922   0.26902   0.28442

 Mulliken charges:
               1
     1  C    0.156595
     2  O   -0.358875
     3  C   -0.038234
     4  C   -0.127445
     5  H    0.097461
     6  H    0.083343
     7  H    0.104715
     8  H    0.082439
 Sum of Mulliken charges =   0.00000

 Dipole moment (field-independent basis, Debye):
    X=             -3.6318    Y=              0.7826    Z=              0.2235  Tot=              3.7219
 Quadrupole moment (field-independent basis, Debye-Ang):
   XX=            -27.8252   YY=            -21.5402   ZZ=            -25.1775
   XY=              0.8019   XZ=              0.2581   YZ=             -0.2494

 Normal termination of Gaussian 09 at Wed Aug 26 08:44:02 2020.
