 Gaussian 09, Revision D.01,
 Gaussian 09:  ES64L-G09RevD.01 24-Apr-2013

 --------------------
 #p B2PLYPD3/Def2QZVP
 --------------------

 --------
 acrolein
 --------
 Symbolic Z-matrix:
 Charge =  0 Multiplicity = 1

                         Standard orientation:
 ---------------------------------------------------------------------
 Center     Atomic      Atomic             Coordinates (Angstroms)
 Number     Number       Type             X           Y           Z
 ---------------------------------------------------------------------
      1          6           0        0.667822    0.343052   -0.015422
      2          8           0        1.781953   -0.120058    0.016491
      3          6           0       -0.546366   -0.441059   -0.014905
      4          6           0       -1.753614    0.142837    0.007806
      5          1           0       -0.445511   -1.534500    0.005020
      6          1           0       -1.845148    1.233777    0.077151
      7          1           0       -2.715384   -0.444236   -0.014572
      8          1           0        0.543363    1.436441   -0.064402
 ---------------------------------------------------------------------

 SCF Done:  E(RB2PLYPD3) =  -191.614514702     A.U. after   13 cycles
 E2(B2PLYPD3) =    -0.2473771726D+00 E(B2PLYPD3) =    -0.19186189187412D+03

 The electronic state is 1-A.
 Alpha  occ. eigenvalues --  -19.72574 -10.71199 -10.66348 -10.64566  -1.19660
 Alpha  occ. eigenvalues --   -0.92949  -0.75377  -0.66785  -0.56727  -0.55984
 Alpha  occ. eigenvalues --   -0.50225  -0.46968  -0.46482  -0.34566  -0.33819
 Alpha virt. eigenvalues --   -0.01972   0.05614   0.07003   0.08418   0.09701
 Alpha virt. eigenvalues --    0.12387   0.14019   0.15375   0.17508   0.19527
 Alpha virt. eigenvalues --    0.20054   0.21293   0.25508   0.26316   0.28903

 Mulliken charges:
               1
     1  C    0.153248
     2  O   -0.348339
     3  C   -0.035529
     4  C   -0.128883
     5  H    0.104441
     6  H    0.085754
     7  H    0.101430
     8  H    0.067879
 Sum of Mulliken charges =   0.00000

 Dipole moment (field-independent basis, Debye):
    X=             -3.5336    Y=              0.7450    Z=             -0.0173  Tot=              3.6113
 Quadrupole moment (field-independent basis, Debye-Ang):
   XX=            -27.3383   YY=            -21.7804   ZZ=            -25.2678
   XY=              0.9820   XZ=             -0.1771   YZ=              0.0652

 Normal termination of Gaussian 09 at Wed Aug 26 15:02:53 2020.
