 Gaussian 09, Revision D.01,
 Gaussian 09:  ES64L-G09RevD.01 24-Apr-2013

 --------------------
 #p B2PLYPD3/Def2QZVP
 --------------------

 --------
 acrolein
 --------
 Symbolic Z-matrix:
 Charge =  0 Multiplicity = 1

                         Standard orientation:
 ---------------------------------------------------------------------
 Center     Atomic      Atomic             Coordinates (Angstroms)
 Number     Number       Type             X           Y           Z
 ---------------------------------------------------------------------
      1          6           0        0.696467    0.369648   -0.047766
      2          8           0        1.777877   -0.144659    0.042357
      3          6           0       -0.544298   -0.432735   -0.017510
      4          6           0       -1.758643    0.142072    0.008155
      5          1           0       -0.450537   -1.502570   -0.071791
      6          1           0       -1.816007    1.183568    0.133655
      7          1           0       -2.824510   -0.469177    0.040287
      8          1           0        0.506888    1.471545   -0.098275
 ---------------------------------------------------------------------

 SCF Done:  E(RB2PLYPD3) =  -191.601975586     A.U. after   13 cycles
 E2(B2PLYPD3) =    -0.2478697958D+00 E(B2PLYPD3) =    -0.19184984538190D+03

 The electronic state is 1-A.
 Alpha  occ. eigenvalues --  -19.73145 -10.71991 -10.66433 -10.64320  -1.20424
 Alpha  occ. eigenvalues --   -0.92357  -0.74543  -0.67114  -0.56691  -0.55330
 Alpha  occ. eigenvalues --   -0.50222  -0.47245  -0.46017  -0.34414  -0.34014
 Alpha virt. eigenvalues --   -0.01699   0.05352   0.07045   0.07992   0.09710
 Alpha virt. eigenvalues --    0.12140   0.13808   0.15340   0.17746   0.19584
 Alpha virt. eigenvalues --    0.20106   0.20840   0.25136   0.26269   0.28782

 Mulliken charges:
               1
     1  C    0.155306
     2  O   -0.337587
     3  C   -0.042028
     4  C   -0.135396
     5  H    0.108323
     6  H    0.084463
     7  H    0.092596
     8  H    0.074323
 Sum of Mulliken charges =   0.00000

 Dipole moment (field-independent basis, Debye):
    X=             -3.2652    Y=              0.8561    Z=             -0.0952  Tot=              3.3769
 Quadrupole moment (field-independent basis, Debye-Ang):
   XX=            -27.3214   YY=            -21.8880   ZZ=            -25.3577
   XY=              1.1069   XZ=             -0.4735   YZ=              0.1947

 Normal termination of Gaussian 09 at Wed Aug 26 08:02:45 2020.
