 Gaussian 09, Revision D.01,
 Gaussian 09:  ES64L-G09RevD.01 24-Apr-2013

 --------------------
 #p B2PLYPD3/Def2QZVP
 --------------------

 --------
 acrolein
 --------
 Symbolic Z-matrix:
 Charge =  0 Multiplicity = 1

                         Standard orientation:
 ---------------------------------------------------------------------
 Center     Atomic      Atomic             Coordinates (Angstroms)
 Number     Number       Type             X           Y           Z
 ---------------------------------------------------------------------
      1          6           0        0.670798   -0.315793    0.087514
      2          8           0        1.779002    0.076161   -0.064368
      3          6           0       -0.570714    0.454889    0.019624
      4          6           0       -1.770206   -0.176129   -0.032907
      5          1           0       -0.348472    1.722984    0.079135
      6          1           0       -1.803783   -1.217210   -0.117077
      7          1           0       -2.582639    0.403578   -0.013408
      8          1           0        0.523614   -1.296453    0.120903
 ---------------------------------------------------------------------

 SCF Done:  E(RB2PLYPD3) =  -191.576883331     A.U. after   13 cycles
 E2(B2PLYPD3) =    -0.2466765932D+00 E(B2PLYPD3) =    -0.19182355992462D+03

 The electronic state is 1-A.
 Alpha  occ. eigenvalues --  -19.72484 -10.69730 -10.66313 -10.64762  -1.20893
 Alpha  occ. eigenvalues --   -0.92832  -0.77033  -0.67017  -0.57503  -0.56807
 Alpha  occ. eigenvalues --   -0.51178  -0.47434  -0.45319  -0.34458  -0.33603
 Alpha virt. eigenvalues --   -0.01899   0.05971   0.06376   0.08514   0.09573
 Alpha virt. eigenvalues --    0.12830   0.14045   0.15244   0.16849   0.19675
 Alpha virt. eigenvalues --    0.20085   0.22162   0.25048   0.26706   0.28703

 Mulliken charges:
               1
     1  C    0.166020
     2  O   -0.340133
     3  C   -0.035776
     4  C   -0.143162
     5  H    0.079317
     6  H    0.095480
     7  H    0.115119
     8  H    0.063135
 Sum of Mulliken charges =   0.00000

 Dipole moment (field-independent basis, Debye):
    X=             -3.3797    Y=             -0.7764    Z=              0.2393  Tot=              3.4760
 Quadrupole moment (field-independent basis, Debye-Ang):
   XX=            -27.4952   YY=            -21.6488   ZZ=            -25.1777
   XY=             -0.5000   XZ=              0.5222   YZ=              0.2256

 Normal termination of Gaussian 09 at Wed Aug 26 14:54:53 2020.
