 Gaussian 09, Revision D.01,
 Gaussian 09:  ES64L-G09RevD.01 24-Apr-2013

 --------------------
 #p B2PLYPD3/Def2QZVP
 --------------------

 --------
 acrolein
 --------
 Symbolic Z-matrix:
 Charge =  0 Multiplicity = 1

                         Standard orientation:
 ---------------------------------------------------------------------
 Center     Atomic      Atomic             Coordinates (Angstroms)
 Number     Number       Type             X           Y           Z
 ---------------------------------------------------------------------
      1          6           0       -0.683795    0.359723    0.013512
      2          8           0       -1.781086   -0.131339   -0.016630
      3          6           0        0.546987   -0.442382    0.013210
      4          6           0        1.768681    0.128466   -0.018579
      5          1           0        0.441788   -1.510690    0.022785
      6          1           0        1.843662    1.228708   -0.050459
      7          1           0        2.675865   -0.431443    0.035102
      8          1           0       -0.503869    1.489304    0.076755
 ---------------------------------------------------------------------

 SCF Done:  E(RB2PLYPD3) =  -191.614918086     A.U. after   12 cycles
 E2(B2PLYPD3) =    -0.2474474036D+00 E(B2PLYPD3) =    -0.19186236548955D+03

 The electronic state is 1-A.
 Alpha  occ. eigenvalues --  -19.73007 -10.71977 -10.65681 -10.64406  -1.20187
 Alpha  occ. eigenvalues --   -0.92491  -0.75334  -0.66515  -0.56650  -0.56063
 Alpha  occ. eigenvalues --   -0.50811  -0.47130  -0.46774  -0.34376  -0.33897
 Alpha virt. eigenvalues --   -0.01860   0.05755   0.07151   0.08226   0.09772
 Alpha virt. eigenvalues --    0.12437   0.13906   0.15444   0.17492   0.19529
 Alpha virt. eigenvalues --    0.19981   0.21607   0.25435   0.26358   0.28800

 Mulliken charges:
               1
     1  C    0.159347
     2  O   -0.339897
     3  C   -0.042899
     4  C   -0.132268
     5  H    0.105781
     6  H    0.079755
     7  H    0.105966
     8  H    0.064215
 Sum of Mulliken charges =   0.00000

 Dipole moment (field-independent basis, Debye):
    X=              3.4025    Y=              0.7367    Z=              0.0840  Tot=              3.4823
 Quadrupole moment (field-independent basis, Debye-Ang):
   XX=            -27.2514   YY=            -21.8480   ZZ=            -25.2952
   XY=             -1.0114   XZ=             -0.0567   YZ=             -0.0749

 Normal termination of Gaussian 09 at Wed Aug 26 19:04:48 2020.
