 Gaussian 09, Revision D.01,
 Gaussian 09:  ES64L-G09RevD.01 24-Apr-2013

 --------------------
 #p B2PLYPD3/Def2QZVP
 --------------------

 --------
 acrolein
 --------
 Symbolic Z-matrix:
 Charge =  0 Multiplicity = 1

                         Standard orientation:
 ---------------------------------------------------------------------
 Center     Atomic      Atomic             Coordinates (Angstroms)
 Number     Number       Type             X           Y           Z
 ---------------------------------------------------------------------
      1          6           0       -0.662027    0.317990    0.018848
      2          8           0       -1.790519   -0.090588   -0.023157
      3          6           0        0.567266   -0.472748   -0.006013
      4          6           0        1.739896    0.159168   -0.013118
      5          1           0        0.418636   -1.522661    0.111156
      6          1           0        1.862759    1.251227   -0.040531
      7          1           0        2.705553   -0.389897   -0.002592
      8          1           0       -0.533600    1.359576    0.118924
 ---------------------------------------------------------------------

 SCF Done:  E(RB2PLYPD3) =  -191.612564937     A.U. after   13 cycles
 E2(B2PLYPD3) =    -0.2463269971D+00 E(B2PLYPD3) =    -0.19185889193404D+03

 The electronic state is 1-A.
 Alpha  occ. eigenvalues --  -19.72409 -10.70485 -10.66141 -10.64391  -1.19859
 Alpha  occ. eigenvalues --   -0.93201  -0.75452  -0.67741  -0.57016  -0.56149
 Alpha  occ. eigenvalues --   -0.50841  -0.47093  -0.46529  -0.34880  -0.33511
 Alpha virt. eigenvalues --   -0.01627   0.05670   0.07271   0.08367   0.09617
 Alpha virt. eigenvalues --    0.12605   0.14106   0.15233   0.17734   0.19554
 Alpha virt. eigenvalues --    0.20066   0.21392   0.25159   0.26892   0.28707

 Mulliken charges:
               1
     1  C    0.153770
     2  O   -0.349233
     3  C   -0.037775
     4  C   -0.126814
     5  H    0.108461
     6  H    0.089261
     7  H    0.095214
     8  H    0.067116
 Sum of Mulliken charges =   0.00000

 Dipole moment (field-independent basis, Debye):
    X=              3.5492    Y=              0.6908    Z=              0.1798  Tot=              3.6203
 Quadrupole moment (field-independent basis, Debye-Ang):
   XX=            -27.4101   YY=            -21.7635   ZZ=            -25.1190
   XY=             -0.5569   XZ=             -0.1418   YZ=             -0.1848

 Normal termination of Gaussian 09 at Wed Aug 26 21:09:40 2020.
