 Gaussian 09, Revision D.01,
 Gaussian 09:  ES64L-G09RevD.01 24-Apr-2013

 --------------------
 #p B2PLYPD3/Def2QZVP
 --------------------

 --------
 acrolein
 --------
 Symbolic Z-matrix:
 Charge =  0 Multiplicity = 1

                         Standard orientation:
 ---------------------------------------------------------------------
 Center     Atomic      Atomic             Coordinates (Angstroms)
 Number     Number       Type             X           Y           Z
 ---------------------------------------------------------------------
      1          6           0        0.675732    0.379460    0.040226
      2          8           0        1.761353   -0.154715   -0.053660
      3          6           0       -0.551613   -0.398557    0.104641
      4          6           0       -1.732153    0.103606   -0.064574
      5          1           0       -0.463580   -1.452947   -0.027369
      6          1           0       -1.833393    1.261312   -0.023245
      7          1           0       -2.685439   -0.477584   -0.066335
      8          1           0        0.539799    1.399881    0.064467
 ---------------------------------------------------------------------

 SCF Done:  E(RB2PLYPD3) =  -191.602623741     A.U. after   13 cycles
 E2(B2PLYPD3) =    -0.2467278259D+00 E(B2PLYPD3) =    -0.19184935156708D+03

 The electronic state is 1-A.
 Alpha  occ. eigenvalues --  -19.72810 -10.70933 -10.65795 -10.63132  -1.19474
 Alpha  occ. eigenvalues --   -0.93801  -0.75797  -0.67617  -0.56732  -0.56383
 Alpha  occ. eigenvalues --   -0.51052  -0.46935  -0.44690  -0.35307  -0.34190
 Alpha virt. eigenvalues --   -0.01520   0.05576   0.07265   0.08147   0.09770
 Alpha virt. eigenvalues --    0.12225   0.13709   0.15304   0.18257   0.19044
 Alpha virt. eigenvalues --    0.19750   0.21566   0.24743   0.26867   0.28941

 Mulliken charges:
               1
     1  C    0.160461
     2  O   -0.351506
     3  C   -0.048147
     4  C   -0.109159
     5  H    0.104354
     6  H    0.058230
     7  H    0.100532
     8  H    0.085236
 Sum of Mulliken charges =   0.00000

 Dipole moment (field-independent basis, Debye):
    X=             -3.3653    Y=              0.9139    Z=              0.0877  Tot=              3.4883
 Quadrupole moment (field-independent basis, Debye-Ang):
   XX=            -27.3531   YY=            -21.8449   ZZ=            -25.0582
   XY=              1.4607   XZ=              0.4814   YZ=              0.1725

 Normal termination of Gaussian 09 at Wed Aug 26 12:16:29 2020.
