 Gaussian 09, Revision D.01,
 Gaussian 09:  ES64L-G09RevD.01 24-Apr-2013

 --------------------
 #p B2PLYPD3/Def2QZVP
 --------------------

 --------
 acrolein
 --------
 Symbolic Z-matrix:
 Charge =  0 Multiplicity = 1

                         Standard orientation:
 ---------------------------------------------------------------------
 Center     Atomic      Atomic             Coordinates (Angstroms)
 Number     Number       Type             X           Y           Z
 ---------------------------------------------------------------------
      1          6           0       -0.660318    0.341691   -0.007357
      2          8           0       -1.790022   -0.112233    0.009222
      3          6           0        0.568698   -0.455103   -0.009385
      4          6           0        1.749776    0.145349   -0.002290
      5          1           0        0.455617   -1.535563   -0.026573
      6          1           0        1.852173    1.245056   -0.011888
      7          1           0        2.592842   -0.418058    0.075225
      8          1           0       -0.529391    1.414806    0.003660
 ---------------------------------------------------------------------

 SCF Done:  E(RB2PLYPD3) =  -191.613223426     A.U. after   12 cycles
 E2(B2PLYPD3) =    -0.2468388517D+00 E(B2PLYPD3) =    -0.19186006227766D+03

 The electronic state is 1-A.
 Alpha  occ. eigenvalues --  -19.72594 -10.71189 -10.64932 -10.64350  -1.18945
 Alpha  occ. eigenvalues --   -0.93478  -0.76053  -0.67170  -0.57060  -0.56544
 Alpha  occ. eigenvalues --   -0.50496  -0.47297  -0.46446  -0.34827  -0.33764
 Alpha virt. eigenvalues --   -0.01750   0.05802   0.07181   0.08223   0.09723
 Alpha virt. eigenvalues --    0.12665   0.14115   0.15316   0.17435   0.19645
 Alpha virt. eigenvalues --    0.20005   0.22060   0.25478   0.26499   0.28686

 Mulliken charges:
               1
     1  C    0.154557
     2  O   -0.355146
     3  C   -0.038291
     4  C   -0.129016
     5  H    0.103442
     6  H    0.086391
     7  H    0.104369
     8  H    0.073694
 Sum of Mulliken charges =   0.00000

 Dipole moment (field-independent basis, Debye):
    X=              3.5684    Y=              0.7397    Z=              0.0038  Tot=              3.6442
 Quadrupole moment (field-independent basis, Debye-Ang):
   XX=            -27.6268   YY=            -21.5787   ZZ=            -25.1154
   XY=             -0.8929   XZ=              0.1963   YZ=             -0.0198

 Normal termination of Gaussian 09 at Wed Aug 26 13:07:06 2020.
