 Gaussian 09, Revision D.01,
 Gaussian 09:  ES64L-G09RevD.01 24-Apr-2013

 --------------------
 #p B2PLYPD3/Def2QZVP
 --------------------

 --------
 acrolein
 --------
 Symbolic Z-matrix:
 Charge =  0 Multiplicity = 1

                         Standard orientation:
 ---------------------------------------------------------------------
 Center     Atomic      Atomic             Coordinates (Angstroms)
 Number     Number       Type             X           Y           Z
 ---------------------------------------------------------------------
      1          6           0        0.661183    0.347008    0.025752
      2          8           0        1.791005   -0.123934   -0.016570
      3          6           0       -0.562104   -0.446052    0.020474
      4          6           0       -1.746296    0.133564   -0.014798
      5          1           0       -0.458448   -1.507862   -0.010864
      6          1           0       -1.824219    1.214873    0.006471
      7          1           0       -2.655009   -0.409179   -0.025899
      8          1           0        0.492934    1.486522   -0.025719
 ---------------------------------------------------------------------

 SCF Done:  E(RB2PLYPD3) =  -191.614225083     A.U. after   12 cycles
 E2(B2PLYPD3) =    -0.2477669854D+00 E(B2PLYPD3) =    -0.19186199206825D+03

 The electronic state is 1-A.
 Alpha  occ. eigenvalues --  -19.72949 -10.72157 -10.65149 -10.64120  -1.18743
 Alpha  occ. eigenvalues --   -0.93681  -0.75732  -0.66714  -0.56960  -0.56191
 Alpha  occ. eigenvalues --   -0.50446  -0.46999  -0.46493  -0.34985  -0.33865
 Alpha virt. eigenvalues --   -0.01923   0.05758   0.07066   0.08150   0.09772
 Alpha virt. eigenvalues --    0.12581   0.13957   0.15292   0.17385   0.19832
 Alpha virt. eigenvalues --    0.20026   0.21665   0.25466   0.26435   0.28867

 Mulliken charges:
               1
     1  C    0.157174
     2  O   -0.353513
     3  C   -0.031927
     4  C   -0.124189
     5  H    0.105932
     6  H    0.082002
     7  H    0.102913
     8  H    0.061609
 Sum of Mulliken charges =   0.00000

 Dipole moment (field-independent basis, Debye):
    X=             -3.5975    Y=              0.7052    Z=              0.0291  Tot=              3.6661
 Quadrupole moment (field-independent basis, Debye-Ang):
   XX=            -27.4174   YY=            -21.8332   ZZ=            -25.1737
   XY=              0.9333   XZ=              0.1335   YZ=              0.0339

 Normal termination of Gaussian 09 at Wed Aug 26 18:37:33 2020.
