 Gaussian 09, Revision D.01,
 Gaussian 09:  ES64L-G09RevD.01 24-Apr-2013

 --------------------
 #p B2PLYPD3/Def2QZVP
 --------------------

 --------
 acrolein
 --------
 Symbolic Z-matrix:
 Charge =  0 Multiplicity = 1

                         Standard orientation:
 ---------------------------------------------------------------------
 Center     Atomic      Atomic             Coordinates (Angstroms)
 Number     Number       Type             X           Y           Z
 ---------------------------------------------------------------------
      1          6           0        0.669806    0.351661    0.004753
      2          8           0        1.785663   -0.121654   -0.004675
      3          6           0       -0.549411   -0.442665    0.001238
      4          6           0       -1.755476    0.135052   -0.009224
      5          1           0       -0.412721   -1.532553    0.043745
      6          1           0       -1.837174    1.188174    0.058733
      7          1           0       -2.712376   -0.414013   -0.032138
      8          1           0        0.487457    1.467329   -0.013538
 ---------------------------------------------------------------------

 SCF Done:  E(RB2PLYPD3) =  -191.614784641     A.U. after   12 cycles
 E2(B2PLYPD3) =    -0.2476170849D+00 E(B2PLYPD3) =    -0.19186240172560D+03

 The electronic state is 1-A.
 Alpha  occ. eigenvalues --  -19.72891 -10.71757 -10.65648 -10.64576  -1.19498
 Alpha  occ. eigenvalues --   -0.93065  -0.75656  -0.66669  -0.56718  -0.56119
 Alpha  occ. eigenvalues --   -0.50523  -0.47040  -0.46531  -0.34622  -0.33898
 Alpha virt. eigenvalues --   -0.01995   0.05712   0.07076   0.08255   0.09769
 Alpha virt. eigenvalues --    0.12529   0.13983   0.15342   0.17296   0.19839
 Alpha virt. eigenvalues --    0.20094   0.21532   0.25478   0.26393   0.28789

 Mulliken charges:
               1
     1  C    0.157140
     2  O   -0.348993
     3  C   -0.032073
     4  C   -0.130124
     5  H    0.104060
     6  H    0.084529
     7  H    0.102020
     8  H    0.063442
 Sum of Mulliken charges =   0.00000

 Dipole moment (field-independent basis, Debye):
    X=             -3.5323    Y=              0.7466    Z=              0.0726  Tot=              3.6110
 Quadrupole moment (field-independent basis, Debye-Ang):
   XX=            -27.2505   YY=            -21.8997   ZZ=            -25.2382
   XY=              0.8206   XZ=             -0.0161   YZ=              0.0198

 Normal termination of Gaussian 09 at Wed Aug 26 15:11:17 2020.
