 Gaussian 09, Revision D.01,
 Gaussian 09:  ES64L-G09RevD.01 24-Apr-2013

 --------------------
 #p B2PLYPD3/Def2QZVP
 --------------------

 --------
 acrolein
 --------
 Symbolic Z-matrix:
 Charge =  0 Multiplicity = 1

                         Standard orientation:
 ---------------------------------------------------------------------
 Center     Atomic      Atomic             Coordinates (Angstroms)
 Number     Number       Type             X           Y           Z
 ---------------------------------------------------------------------
      1          6           0        0.668092    0.371391    0.007554
      2          8           0        1.765955   -0.138506   -0.033588
      3          6           0       -0.522056   -0.412564    0.062653
      4          6           0       -1.751186    0.100907   -0.049048
      5          1           0       -0.419863   -1.424586    0.088581
      6          1           0       -1.839934    1.228692    0.087547
      7          1           0       -2.713193   -0.454072   -0.106535
      8          1           0        0.476255    1.399606    0.072152
 ---------------------------------------------------------------------

 SCF Done:  E(RB2PLYPD3) =  -191.603792132     A.U. after   13 cycles
 E2(B2PLYPD3) =    -0.2472133732D+00 E(B2PLYPD3) =    -0.19185100550495D+03

 The electronic state is 1-A.
 Alpha  occ. eigenvalues --  -19.72673 -10.70706 -10.66442 -10.63160  -1.19542
 Alpha  occ. eigenvalues --   -0.93425  -0.76126  -0.68327  -0.56799  -0.56346
 Alpha  occ. eigenvalues --   -0.51007  -0.47241  -0.45753  -0.34465  -0.34110
 Alpha virt. eigenvalues --   -0.02181   0.05539   0.07382   0.08424   0.09747
 Alpha virt. eigenvalues --    0.12303   0.14140   0.15302   0.18086   0.19586
 Alpha virt. eigenvalues --    0.19840   0.21278   0.25187   0.26596   0.28822

 Mulliken charges:
               1
     1  C    0.158348
     2  O   -0.354551
     3  C   -0.035489
     4  C   -0.128518
     5  H    0.109920
     6  H    0.066979
     7  H    0.102360
     8  H    0.080952
 Sum of Mulliken charges =   0.00000

 Dipole moment (field-independent basis, Debye):
    X=             -3.5131    Y=              0.8178    Z=              0.1616  Tot=              3.6107
 Quadrupole moment (field-independent basis, Debye-Ang):
   XX=            -27.1568   YY=            -21.9491   ZZ=            -25.0720
   XY=              1.1987   XZ=              0.2725   YZ=              0.1322

 Normal termination of Gaussian 09 at Wed Aug 26 10:59:00 2020.
