 Gaussian 09, Revision D.01,
 Gaussian 09:  ES64L-G09RevD.01 24-Apr-2013

 --------------------
 #p B2PLYPD3/Def2QZVP
 --------------------

 --------
 acrolein
 --------
 Symbolic Z-matrix:
 Charge =  0 Multiplicity = 1

                         Standard orientation:
 ---------------------------------------------------------------------
 Center     Atomic      Atomic             Coordinates (Angstroms)
 Number     Number       Type             X           Y           Z
 ---------------------------------------------------------------------
      1          6           0       -0.670735    0.351414   -0.028095
      2          8           0       -1.788083   -0.131713    0.025166
      3          6           0        0.556292   -0.441195   -0.021004
      4          6           0        1.748543    0.135559    0.008599
      5          1           0        0.485951   -1.476733   -0.014533
      6          1           0        1.827081    1.204956    0.067720
      7          1           0        2.686096   -0.432934    0.032777
      8          1           0       -0.499066    1.483742   -0.044288
 ---------------------------------------------------------------------

 SCF Done:  E(RB2PLYPD3) =  -191.613937263     A.U. after   12 cycles
 E2(B2PLYPD3) =    -0.2474836753D+00 E(B2PLYPD3) =    -0.19186142093841D+03

 The electronic state is 1-A.
 Alpha  occ. eigenvalues --  -19.72969 -10.72103 -10.65393 -10.63788  -1.19157
 Alpha  occ. eigenvalues --   -0.93468  -0.75397  -0.67218  -0.56541  -0.56409
 Alpha  occ. eigenvalues --   -0.50458  -0.47122  -0.46683  -0.34827  -0.33927
 Alpha virt. eigenvalues --   -0.01853   0.05720   0.07166   0.08188   0.09756
 Alpha virt. eigenvalues --    0.12536   0.13871   0.15360   0.17693   0.19774
 Alpha virt. eigenvalues --    0.20019   0.21397   0.25580   0.26250   0.28834

 Mulliken charges:
               1
     1  C    0.153927
     2  O   -0.349656
     3  C   -0.033538
     4  C   -0.126527
     5  H    0.108058
     6  H    0.082180
     7  H    0.099498
     8  H    0.066058
 Sum of Mulliken charges =   0.00000

 Dipole moment (field-independent basis, Debye):
    X=              3.5311    Y=              0.7387    Z=             -0.0287  Tot=              3.6077
 Quadrupole moment (field-independent basis, Debye-Ang):
   XX=            -27.3811   YY=            -21.8401   ZZ=            -25.1769
   XY=             -1.0419   XZ=              0.2987   YZ=              0.0580

 Normal termination of Gaussian 09 at Wed Aug 26 16:36:03 2020.
