 Gaussian 09, Revision D.01,
 Gaussian 09:  ES64L-G09RevD.01 24-Apr-2013

 --------------------
 #p B2PLYPD3/Def2QZVP
 --------------------

 --------
 acrolein
 --------
 Symbolic Z-matrix:
 Charge =  0 Multiplicity = 1

                         Standard orientation:
 ---------------------------------------------------------------------
 Center     Atomic      Atomic             Coordinates (Angstroms)
 Number     Number       Type             X           Y           Z
 ---------------------------------------------------------------------
      1          6           0        0.663316    0.373113    0.059816
      2          8           0        1.770778   -0.147444   -0.062974
      3          6           0       -0.561991   -0.400702    0.013251
      4          6           0       -1.742503    0.129337   -0.009681
      5          1           0       -0.401177   -1.570843    0.203705
      6          1           0       -1.676434    1.068852   -0.174479
      7          1           0       -2.715538   -0.394684   -0.107245
      8          1           0        0.473992    1.465737    0.201491
 ---------------------------------------------------------------------

 SCF Done:  E(RB2PLYPD3) =  -191.584819416     A.U. after   14 cycles
 E2(B2PLYPD3) =    -0.2482516274D+00 E(B2PLYPD3) =    -0.19183307104325D+03

 The electronic state is 1-A.
 Alpha  occ. eigenvalues --  -19.73274 -10.72198 -10.64604 -10.63679  -1.18736
 Alpha  occ. eigenvalues --   -0.94743  -0.76348  -0.66462  -0.57183  -0.56661
 Alpha  occ. eigenvalues --   -0.51101  -0.46803  -0.44414  -0.35356  -0.34312
 Alpha virt. eigenvalues --   -0.01976   0.05895   0.06465   0.08099   0.09866
 Alpha virt. eigenvalues --    0.12724   0.13881   0.14701   0.16902   0.19004
 Alpha virt. eigenvalues --    0.20733   0.22333   0.24695   0.26899   0.29020

 Mulliken charges:
               1
     1  C    0.147642
     2  O   -0.350873
     3  C   -0.014417
     4  C   -0.126789
     5  H    0.085695
     6  H    0.077250
     7  H    0.106755
     8  H    0.074736
 Sum of Mulliken charges =   0.00000

 Dipole moment (field-independent basis, Debye):
    X=             -3.4475    Y=              0.9218    Z=              0.1941  Tot=              3.5739
 Quadrupole moment (field-independent basis, Debye-Ang):
   XX=            -27.2792   YY=            -22.1147   ZZ=            -24.9997
   XY=              1.1808   XZ=              0.7254   YZ=             -0.2998

 Normal termination of Gaussian 09 at Wed Aug 26 11:39:16 2020.
