 Gaussian 09, Revision D.01,
 Gaussian 09:  ES64L-G09RevD.01 24-Apr-2013

 --------------------
 #p B2PLYPD3/Def2QZVP
 --------------------

 --------
 acrolein
 --------
 Symbolic Z-matrix:
 Charge =  0 Multiplicity = 1

                         Standard orientation:
 ---------------------------------------------------------------------
 Center     Atomic      Atomic             Coordinates (Angstroms)
 Number     Number       Type             X           Y           Z
 ---------------------------------------------------------------------
      1          6           0       -0.671377    0.341549    0.006530
      2          8           0       -1.788718   -0.108883   -0.010498
      3          6           0        0.564481   -0.461433    0.003165
      4          6           0        1.763934    0.148217   -0.018962
      5          1           0        0.400145   -1.557317    0.038830
      6          1           0        1.852563    1.258296   -0.015371
      7          1           0        2.671065   -0.415113    0.044489
      8          1           0       -0.556256    1.415197    0.071635
 ---------------------------------------------------------------------

 SCF Done:  E(RB2PLYPD3) =  -191.614551811     A.U. after   12 cycles
 E2(B2PLYPD3) =    -0.2471148717D+00 E(B2PLYPD3) =    -0.19186166668256D+03

 The electronic state is 1-A.
 Alpha  occ. eigenvalues --  -19.72594 -10.71087 -10.65939 -10.64979  -1.19760
 Alpha  occ. eigenvalues --   -0.92533  -0.75379  -0.66871  -0.56486  -0.56232
 Alpha  occ. eigenvalues --   -0.50584  -0.46910  -0.46676  -0.34523  -0.33687
 Alpha virt. eigenvalues --   -0.01773   0.05724   0.07128   0.08238   0.09690
 Alpha virt. eigenvalues --    0.12471   0.14040   0.15370   0.17381   0.19479
 Alpha virt. eigenvalues --    0.20005   0.21637   0.25278   0.26574   0.28808

 Mulliken charges:
               1
     1  C    0.159642
     2  O   -0.348209
     3  C   -0.045860
     4  C   -0.130651
     5  H    0.104574
     6  H    0.086619
     7  H    0.104625
     8  H    0.069260
 Sum of Mulliken charges =   0.00000

 Dipole moment (field-independent basis, Debye):
    X=              3.4680    Y=              0.7383    Z=              0.1162  Tot=              3.5476
 Quadrupole moment (field-independent basis, Debye-Ang):
   XX=            -27.4737   YY=            -21.6616   ZZ=            -25.2802
   XY=             -0.8123   XZ=              0.0488   YZ=             -0.0719

 Normal termination of Gaussian 09 at Wed Aug 26 15:26:34 2020.
