 Gaussian 09, Revision D.01,
 Gaussian 09:  ES64L-G09RevD.01 24-Apr-2013

 --------------------
 #p B2PLYPD3/Def2QZVP
 --------------------

 --------
 acrolein
 --------
 Symbolic Z-matrix:
 Charge =  0 Multiplicity = 1

                         Standard orientation:
 ---------------------------------------------------------------------
 Center     Atomic      Atomic             Coordinates (Angstroms)
 Number     Number       Type             X           Y           Z
 ---------------------------------------------------------------------
      1          6           0       -0.663612    0.331393    0.033495
      2          8           0       -1.798159   -0.099403   -0.038623
      3          6           0        0.563674   -0.473495    0.068558
      4          6           0        1.760377    0.158593   -0.025466
      5          1           0        0.410651   -1.588318   -0.052879
      6          1           0        1.867452    1.263892   -0.052345
      7          1           0        2.670030   -0.424283   -0.090586
      8          1           0       -0.525488    1.444987    0.045277
 ---------------------------------------------------------------------

 SCF Done:  E(RB2PLYPD3) =  -191.610824411     A.U. after   12 cycles
 E2(B2PLYPD3) =    -0.2485691583D+00 E(B2PLYPD3) =    -0.19185939356924D+03

 The electronic state is 1-A.
 Alpha  occ. eigenvalues --  -19.72634 -10.71613 -10.66489 -10.65542  -1.19059
 Alpha  occ. eigenvalues --   -0.92524  -0.75322  -0.66119  -0.56228  -0.55925
 Alpha  occ. eigenvalues --   -0.50000  -0.46976  -0.46394  -0.34488  -0.33586
 Alpha virt. eigenvalues --   -0.02132   0.05646   0.06826   0.07997   0.09649
 Alpha virt. eigenvalues --    0.12406   0.13755   0.15307   0.17278   0.19551
 Alpha virt. eigenvalues --    0.19985   0.21489   0.24749   0.26503   0.28701

 Mulliken charges:
               1
     1  C    0.158384
     2  O   -0.351965
     3  C   -0.042871
     4  C   -0.125172
     5  H    0.105491
     6  H    0.092028
     7  H    0.103243
     8  H    0.060862
 Sum of Mulliken charges =   0.00000

 Dipole moment (field-independent basis, Debye):
    X=              3.6125    Y=              0.6830    Z=             -0.0379  Tot=              3.6767
 Quadrupole moment (field-independent basis, Debye-Ang):
   XX=            -27.5644   YY=            -21.6627   ZZ=            -25.4042
   XY=             -0.6549   XZ=             -0.5402   YZ=              0.1139

 Normal termination of Gaussian 09 at Wed Aug 26 09:00:11 2020.
