 Gaussian 09, Revision D.01,
 Gaussian 09:  ES64L-G09RevD.01 24-Apr-2013

 --------------------
 #p B2PLYPD3/Def2QZVP
 --------------------

 --------
 acrolein
 --------
 Symbolic Z-matrix:
 Charge =  0 Multiplicity = 1

                         Standard orientation:
 ---------------------------------------------------------------------
 Center     Atomic      Atomic             Coordinates (Angstroms)
 Number     Number       Type             X           Y           Z
 ---------------------------------------------------------------------
      1          6           0        0.667855    0.340315    0.011283
      2          8           0        1.783104   -0.109220    0.010173
      3          6           0       -0.574902   -0.470719   -0.031646
      4          6           0       -1.739142    0.163253    0.007096
      5          1           0       -0.444106   -1.535393   -0.012000
      6          1           0       -1.795613    1.261894   -0.013181
      7          1           0       -2.709451   -0.404976    0.081804
      8          1           0        0.561469    1.355135   -0.058403
 ---------------------------------------------------------------------

 SCF Done:  E(RB2PLYPD3) =  -191.610259349     A.U. after   12 cycles
 E2(B2PLYPD3) =    -0.2462316081D+00 E(B2PLYPD3) =    -0.19185649095703D+03

 The electronic state is 1-A.
 Alpha  occ. eigenvalues --  -19.72438 -10.70467 -10.65901 -10.64272  -1.19826
 Alpha  occ. eigenvalues --   -0.92951  -0.74932  -0.68147  -0.56935  -0.55941
 Alpha  occ. eigenvalues --   -0.50685  -0.46886  -0.46653  -0.34801  -0.33634
 Alpha virt. eigenvalues --   -0.01283   0.05673   0.07277   0.08051   0.09674
 Alpha virt. eigenvalues --    0.12560   0.14061   0.15324   0.17695   0.19642
 Alpha virt. eigenvalues --    0.19944   0.21315   0.25405   0.26653   0.28975

 Mulliken charges:
               1
     1  C    0.157373
     2  O   -0.350047
     3  C   -0.047212
     4  C   -0.130361
     5  H    0.109024
     6  H    0.086496
     7  H    0.096627
     8  H    0.078100
 Sum of Mulliken charges =   0.00000

 Dipole moment (field-independent basis, Debye):
    X=             -3.4116    Y=              0.7863    Z=              0.0193  Tot=              3.5011
 Quadrupole moment (field-independent basis, Debye-Ang):
   XX=            -27.6590   YY=            -21.5518   ZZ=            -25.1515
   XY=              0.9174   XZ=             -0.2495   YZ=             -0.0825

 Normal termination of Gaussian 09 at Wed Aug 26 09:28:49 2020.
