 Gaussian 09, Revision D.01,
 Gaussian 09:  ES64L-G09RevD.01 24-Apr-2013

 --------------------
 #p B2PLYPD3/Def2QZVP
 --------------------

 --------
 acrolein
 --------
 Symbolic Z-matrix:
 Charge =  0 Multiplicity = 1

                         Standard orientation:
 ---------------------------------------------------------------------
 Center     Atomic      Atomic             Coordinates (Angstroms)
 Number     Number       Type             X           Y           Z
 ---------------------------------------------------------------------
      1          6           0        0.674730    0.348259   -0.019582
      2          8           0        1.793010   -0.115090    0.024554
      3          6           0       -0.568693   -0.469444   -0.025977
      4          6           0       -1.754168    0.145500    0.006635
      5          1           0       -0.440553   -1.539859   -0.049152
      6          1           0       -1.850309    1.236772   -0.007473
      7          1           0       -2.667364   -0.390637    0.118084
      8          1           0        0.502938    1.468563   -0.024345
 ---------------------------------------------------------------------

 SCF Done:  E(RB2PLYPD3) =  -191.615442564     A.U. after   12 cycles
 E2(B2PLYPD3) =    -0.2474747373D+00 E(B2PLYPD3) =    -0.19186291730096D+03

 The electronic state is 1-A.
 Alpha  occ. eigenvalues --  -19.72933 -10.71993 -10.65442 -10.64665  -1.19519
 Alpha  occ. eigenvalues --   -0.92746  -0.75118  -0.66723  -0.56601  -0.56036
 Alpha  occ. eigenvalues --   -0.50659  -0.47183  -0.46591  -0.34655  -0.33723
 Alpha virt. eigenvalues --   -0.01638   0.05748   0.07182   0.07944   0.09695
 Alpha virt. eigenvalues --    0.12533   0.14019   0.15342   0.17371   0.19783
 Alpha virt. eigenvalues --    0.19898   0.21660   0.25255   0.26472   0.28649

 Mulliken charges:
               1
     1  C    0.159044
     2  O   -0.346218
     3  C   -0.044462
     4  C   -0.127491
     5  H    0.108151
     6  H    0.083739
     7  H    0.100676
     8  H    0.066561
 Sum of Mulliken charges =   0.00000

 Dipole moment (field-independent basis, Debye):
    X=             -3.4689    Y=              0.7177    Z=             -0.0313  Tot=              3.5425
 Quadrupole moment (field-independent basis, Debye-Ang):
   XX=            -27.4733   YY=            -21.7213   ZZ=            -25.2635
   XY=              0.7674   XZ=             -0.3785   YZ=             -0.0171

 Normal termination of Gaussian 09 at Wed Aug 26 18:51:38 2020.
