 Gaussian 09, Revision D.01,
 Gaussian 09:  ES64L-G09RevD.01 24-Apr-2013

 --------------------
 #p B2PLYPD3/Def2QZVP
 --------------------

 --------
 acrolein
 --------
 Symbolic Z-matrix:
 Charge =  0 Multiplicity = 1

                         Standard orientation:
 ---------------------------------------------------------------------
 Center     Atomic      Atomic             Coordinates (Angstroms)
 Number     Number       Type             X           Y           Z
 ---------------------------------------------------------------------
      1          6           0       -0.679174    0.310699    0.051585
      2          8           0       -1.802331   -0.075575   -0.067812
      3          6           0        0.546004   -0.475304    0.063620
      4          6           0        1.755794    0.135241   -0.029978
      5          1           0        0.415385   -1.523027    0.014970
      6          1           0        2.043351    1.343744   -0.213845
      7          1           0        2.723442   -0.411132   -0.035550
      8          1           0       -0.499275    1.371199    0.265557
 ---------------------------------------------------------------------

 SCF Done:  E(RB2PLYPD3) =  -191.592810582     A.U. after   13 cycles
 E2(B2PLYPD3) =    -0.2481226519D+00 E(B2PLYPD3) =    -0.19184093323387D+03

 The electronic state is 1-A.
 Alpha  occ. eigenvalues --  -19.72664 -10.70930 -10.68211 -10.64920  -1.20413
 Alpha  occ. eigenvalues --   -0.92451  -0.75149  -0.66626  -0.56878  -0.55203
 Alpha  occ. eigenvalues --   -0.51064  -0.47108  -0.45017  -0.34535  -0.33525
 Alpha virt. eigenvalues --   -0.02189   0.04965   0.07205   0.08306   0.09400
 Alpha virt. eigenvalues --    0.11978   0.13984   0.15510   0.17903   0.18375
 Alpha virt. eigenvalues --    0.19972   0.21120   0.24697   0.26607   0.28105

 Mulliken charges:
               1
     1  C    0.163404
     2  O   -0.341591
     3  C   -0.051978
     4  C   -0.115937
     5  H    0.110249
     6  H    0.079706
     7  H    0.095239
     8  H    0.060909
 Sum of Mulliken charges =   0.00000

 Dipole moment (field-independent basis, Debye):
    X=              3.6006    Y=              0.5375    Z=              0.0975  Tot=              3.6418
 Quadrupole moment (field-independent basis, Debye-Ang):
   XX=            -27.0098   YY=            -22.0360   ZZ=            -25.3587
   XY=             -0.2754   XZ=             -0.8137   YZ=             -0.1825

 Normal termination of Gaussian 09 at Wed Aug 26 11:03:44 2020.
