 Gaussian 09, Revision D.01,
 Gaussian 09:  ES64L-G09RevD.01 24-Apr-2013

 --------------------
 #p B2PLYPD3/Def2QZVP
 --------------------

 --------
 acrolein
 --------
 Symbolic Z-matrix:
 Charge =  0 Multiplicity = 1

                         Standard orientation:
 ---------------------------------------------------------------------
 Center     Atomic      Atomic             Coordinates (Angstroms)
 Number     Number       Type             X           Y           Z
 ---------------------------------------------------------------------
      1          6           0        0.668685    0.341384    0.043639
      2          8           0        1.800312   -0.102384   -0.043174
      3          6           0       -0.576129   -0.471070    0.014086
      4          6           0       -1.760769    0.149215   -0.009100
      5          1           0       -0.467498   -1.538955    0.103828
      6          1           0       -1.886775    1.322645   -0.090056
      7          1           0       -2.567405   -0.434057   -0.082963
      8          1           0        0.528454    1.352265    0.122830
 ---------------------------------------------------------------------

 SCF Done:  E(RB2PLYPD3) =  -191.599762569     A.U. after   12 cycles
 E2(B2PLYPD3) =    -0.2472473000D+00 E(B2PLYPD3) =    -0.19184700986893D+03

 The electronic state is 1-A.
 Alpha  occ. eigenvalues --  -19.72607 -10.70789 -10.65560 -10.64582  -1.18860
 Alpha  occ. eigenvalues --   -0.92959  -0.76117  -0.67715  -0.56921  -0.56021
 Alpha  occ. eigenvalues --   -0.50608  -0.47119  -0.46099  -0.34654  -0.33784
 Alpha virt. eigenvalues --   -0.01717   0.05604   0.07250   0.07851   0.09573
 Alpha virt. eigenvalues --    0.12537   0.14006   0.15218   0.17774   0.19106
 Alpha virt. eigenvalues --    0.19980   0.22091   0.24967   0.26875   0.28522

 Mulliken charges:
               1
     1  C    0.160224
     2  O   -0.355989
     3  C   -0.052760
     4  C   -0.130177
     5  H    0.104398
     6  H    0.083951
     7  H    0.105376
     8  H    0.084977
 Sum of Mulliken charges =   0.00000

 Dipole moment (field-independent basis, Debye):
    X=             -3.5234    Y=              0.7507    Z=              0.1448  Tot=              3.6054
 Quadrupole moment (field-independent basis, Debye-Ang):
   XX=            -27.9039   YY=            -21.3893   ZZ=            -25.1821
   XY=              0.8577   XZ=              0.5144   YZ=             -0.1689

 Normal termination of Gaussian 09 at Wed Aug 26 08:35:27 2020.
