 Gaussian 09, Revision D.01,
 Gaussian 09:  ES64L-G09RevD.01 24-Apr-2013

 --------------------
 #p B2PLYPD3/Def2QZVP
 --------------------

 --------
 acrolein
 --------
 Symbolic Z-matrix:
 Charge =  0 Multiplicity = 1

                         Standard orientation:
 ---------------------------------------------------------------------
 Center     Atomic      Atomic             Coordinates (Angstroms)
 Number     Number       Type             X           Y           Z
 ---------------------------------------------------------------------
      1          6           0       -0.682631    0.371277   -0.043152
      2          8           0       -1.804208   -0.145216    0.070672
      3          6           0        0.585343   -0.439490   -0.118373
      4          6           0        1.738576    0.146919    0.028755
      5          1           0        0.503258   -1.526664   -0.046496
      6          1           0        1.800039    1.136557    0.054905
      7          1           0        2.671862   -0.464451    0.317011
      8          1           0       -0.389224    1.544049   -0.094176
 ---------------------------------------------------------------------

 SCF Done:  E(RB2PLYPD3) =  -191.591329641     A.U. after   13 cycles
 E2(B2PLYPD3) =    -0.2498014843D+00 E(B2PLYPD3) =    -0.19184113112545D+03

 The electronic state is 1-A.
 Alpha  occ. eigenvalues --  -19.73822 -10.73856 -10.64641 -10.64325  -1.18314
 Alpha  occ. eigenvalues --   -0.93772  -0.74726  -0.66782  -0.55920  -0.55874
 Alpha  occ. eigenvalues --   -0.50260  -0.46721  -0.46105  -0.35212  -0.33975
 Alpha virt. eigenvalues --   -0.01760   0.05524   0.06660   0.07431   0.09867
 Alpha virt. eigenvalues --    0.12530   0.13185   0.15239   0.17254   0.19295
 Alpha virt. eigenvalues --    0.20400   0.21749   0.24435   0.26341   0.28078

 Mulliken charges:
               1
     1  C    0.158742
     2  O   -0.349592
     3  C   -0.027676
     4  C   -0.122019
     5  H    0.103052
     6  H    0.084914
     7  H    0.093315
     8  H    0.059264
 Sum of Mulliken charges =   0.00000

 Dipole moment (field-independent basis, Debye):
    X=              3.4553    Y=              0.7872    Z=              0.0432  Tot=              3.5441
 Quadrupole moment (field-independent basis, Debye-Ang):
   XX=            -27.8720   YY=            -21.9051   ZZ=            -25.2209
   XY=             -0.9087   XZ=              1.1445   YZ=             -0.1753

 Normal termination of Gaussian 09 at Wed Aug 26 10:56:46 2020.
