 Gaussian 09, Revision D.01,
 Gaussian 09:  ES64L-G09RevD.01 24-Apr-2013

 --------------------
 #p B2PLYPD3/Def2QZVP
 --------------------

 --------
 acrolein
 --------
 Symbolic Z-matrix:
 Charge =  0 Multiplicity = 1

                         Standard orientation:
 ---------------------------------------------------------------------
 Center     Atomic      Atomic             Coordinates (Angstroms)
 Number     Number       Type             X           Y           Z
 ---------------------------------------------------------------------
      1          6           0       -0.665085    0.320828    0.061504
      2          8           0       -1.789715   -0.083127   -0.062532
      3          6           0        0.586309   -0.486458   -0.005801
      4          6           0        1.749795    0.163202   -0.008695
      5          1           0        0.489533   -1.538999    0.220226
      6          1           0        1.926063    1.286813   -0.142736
      7          1           0        2.417278   -0.382889   -0.099682
      8          1           0       -0.541279    1.314659    0.240396
 ---------------------------------------------------------------------

 SCF Done:  E(RB2PLYPD3) =  -191.555152164     A.U. after   13 cycles
 E2(B2PLYPD3) =    -0.2458800301D+00 E(B2PLYPD3) =    -0.19180103219452D+03

 The electronic state is 1-A.
 Alpha  occ. eigenvalues --  -19.72399 -10.70224 -10.64515 -10.63471  -1.19763
 Alpha  occ. eigenvalues --   -0.93920  -0.77463  -0.67882  -0.57937  -0.56495
 Alpha  occ. eigenvalues --   -0.50851  -0.48453  -0.46188  -0.34921  -0.33333
 Alpha virt. eigenvalues --   -0.01394   0.05985   0.07220   0.07726   0.09533
 Alpha virt. eigenvalues --    0.13000   0.14049   0.15070   0.17895   0.19469
 Alpha virt. eigenvalues --    0.19990   0.22698   0.24463   0.27104   0.27992

 Mulliken charges:
               1
     1  C    0.149687
     2  O   -0.345690
     3  C   -0.042345
     4  C   -0.177624
     5  H    0.101481
     6  H    0.089800
     7  H    0.141883
     8  H    0.082808
 Sum of Mulliken charges =   0.00000

 Dipole moment (field-independent basis, Debye):
    X=              3.4592    Y=              0.6956    Z=              0.3002  Tot=              3.5412
 Quadrupole moment (field-independent basis, Debye-Ang):
   XX=            -27.8140   YY=            -21.3610   ZZ=            -24.8492
   XY=             -0.5749   XZ=             -0.6792   YZ=             -0.3958

 Normal termination of Gaussian 09 at Wed Aug 26 10:38:35 2020.
