 Gaussian 09, Revision D.01,
 Gaussian 09:  ES64L-G09RevD.01 24-Apr-2013

 --------------------
 #p B2PLYPD3/Def2QZVP
 --------------------

 --------
 acrolein
 --------
 Symbolic Z-matrix:
 Charge =  0 Multiplicity = 1

                         Standard orientation:
 ---------------------------------------------------------------------
 Center     Atomic      Atomic             Coordinates (Angstroms)
 Number     Number       Type             X           Y           Z
 ---------------------------------------------------------------------
      1          6           0        0.656946    0.360004    0.042246
      2          8           0        1.787573   -0.110417   -0.027559
      3          6           0       -0.555929   -0.483328   -0.014161
      4          6           0       -1.735433    0.158739   -0.038754
      5          1           0       -0.442049   -1.550577    0.148903
      6          1           0       -1.819983    1.206312    0.042319
      7          1           0       -2.743113   -0.366291    0.039334
      8          1           0        0.511058    1.381406    0.053924
 ---------------------------------------------------------------------

 SCF Done:  E(RB2PLYPD3) =  -191.606245903     A.U. after   12 cycles
 E2(B2PLYPD3) =    -0.2479481643D+00 E(B2PLYPD3) =    -0.19185419406702D+03

 The electronic state is 1-A.
 Alpha  occ. eigenvalues --  -19.72532 -10.71021 -10.65884 -10.64829  -1.18426
 Alpha  occ. eigenvalues --   -0.92852  -0.75278  -0.68404  -0.57053  -0.55600
 Alpha  occ. eigenvalues --   -0.50428  -0.46851  -0.45868  -0.34395  -0.33888
 Alpha virt. eigenvalues --   -0.01876   0.05620   0.06913   0.07698   0.09603
 Alpha virt. eigenvalues --    0.12615   0.14211   0.15221   0.17652   0.19873
 Alpha virt. eigenvalues --    0.20107   0.21317   0.24973   0.26663   0.28986

 Mulliken charges:
               1
     1  C    0.151406
     2  O   -0.359761
     3  C   -0.040502
     4  C   -0.123680
     5  H    0.111958
     6  H    0.083333
     7  H    0.087686
     8  H    0.089561
 Sum of Mulliken charges =   0.00000

 Dipole moment (field-independent basis, Debye):
    X=             -3.5438    Y=              0.8691    Z=              0.3417  Tot=              3.6647
 Quadrupole moment (field-independent basis, Debye-Ang):
   XX=            -27.7547   YY=            -21.5158   ZZ=            -25.2156
   XY=              0.7477   XZ=             -0.1313   YZ=             -0.1659

 Normal termination of Gaussian 09 at Wed Aug 26 13:17:53 2020.
