 Gaussian 09, Revision D.01,
 Gaussian 09:  ES64L-G09RevD.01 24-Apr-2013

 --------------------
 #p B2PLYPD3/Def2QZVP
 --------------------

 --------
 acrolein
 --------
 Symbolic Z-matrix:
 Charge =  0 Multiplicity = 1

                         Standard orientation:
 ---------------------------------------------------------------------
 Center     Atomic      Atomic             Coordinates (Angstroms)
 Number     Number       Type             X           Y           Z
 ---------------------------------------------------------------------
      1          6           0        0.665423    0.367427    0.030859
      2          8           0        1.782850   -0.143297   -0.029588
      3          6           0       -0.564490   -0.447433    0.051203
      4          6           0       -1.747183    0.133677   -0.031850
      5          1           0       -0.443039   -1.473108   -0.031349
      6          1           0       -1.761725    1.179435   -0.019673
      7          1           0       -2.688177   -0.413168   -0.030251
      8          1           0        0.507643    1.531199    0.016705
 ---------------------------------------------------------------------

 SCF Done:  E(RB2PLYPD3) =  -191.609059068     A.U. after   13 cycles
 E2(B2PLYPD3) =    -0.2481948895D+00 E(B2PLYPD3) =    -0.19185725395706D+03

 The electronic state is 1-A.
 Alpha  occ. eigenvalues --  -19.73085 -10.72652 -10.64901 -10.63840  -1.18560
 Alpha  occ. eigenvalues --   -0.93569  -0.75178  -0.67155  -0.56756  -0.56017
 Alpha  occ. eigenvalues --   -0.50339  -0.47429  -0.46294  -0.34889  -0.33887
 Alpha virt. eigenvalues --   -0.01809   0.05766   0.07098   0.07788   0.09897
 Alpha virt. eigenvalues --    0.12457   0.13625   0.15234   0.17526   0.19812
 Alpha virt. eigenvalues --    0.20146   0.21499   0.25267   0.26373   0.29227

 Mulliken charges:
               1
     1  C    0.154534
     2  O   -0.354212
     3  C   -0.036829
     4  C   -0.123558
     5  H    0.112157
     6  H    0.081447
     7  H    0.101650
     8  H    0.064811
 Sum of Mulliken charges =   0.00000

 Dipole moment (field-independent basis, Debye):
    X=             -3.5020    Y=              0.7819    Z=              0.0303  Tot=              3.5884
 Quadrupole moment (field-independent basis, Debye-Ang):
   XX=            -27.4679   YY=            -21.7970   ZZ=            -25.2049
   XY=              1.1301   XZ=              0.2650   YZ=              0.0719

 Normal termination of Gaussian 09 at Wed Aug 26 09:10:12 2020.
