 Gaussian 09, Revision D.01,
 Gaussian 09:  ES64L-G09RevD.01 24-Apr-2013

 --------------------
 #p B2PLYPD3/Def2QZVP
 --------------------

 --------
 acrolein
 --------
 Symbolic Z-matrix:
 Charge =  0 Multiplicity = 1

                         Standard orientation:
 ---------------------------------------------------------------------
 Center     Atomic      Atomic             Coordinates (Angstroms)
 Number     Number       Type             X           Y           Z
 ---------------------------------------------------------------------
      1          6           0        0.665800   -0.311604    0.014503
      2          8           0        1.798451    0.089774   -0.017900
      3          6           0       -0.562768    0.445106    0.054564
      4          6           0       -1.791362   -0.149766   -0.040556
      5          1           0       -0.443973    1.578094   -0.057778
      6          1           0       -1.795180   -1.247922    0.052264
      7          1           0       -2.555603    0.382358   -0.009090
      8          1           0        0.537127   -1.333140   -0.013265
 ---------------------------------------------------------------------

 SCF Done:  E(RB2PLYPD3) =  -191.586124854     A.U. after   13 cycles
 E2(B2PLYPD3) =    -0.2470677797D+00 E(B2PLYPD3) =    -0.19183319263418D+03

 The electronic state is 1-A.
 Alpha  occ. eigenvalues --  -19.72488 -10.70276 -10.65329 -10.65009  -1.19845
 Alpha  occ. eigenvalues --   -0.93203  -0.77837  -0.67202  -0.58318  -0.56421
 Alpha  occ. eigenvalues --   -0.51379  -0.47027  -0.46508  -0.34451  -0.33723
 Alpha virt. eigenvalues --   -0.02600   0.05962   0.07161   0.08479   0.09726
 Alpha virt. eigenvalues --    0.12773   0.13959   0.15331   0.17497   0.19756
 Alpha virt. eigenvalues --    0.19922   0.22444   0.24444   0.26691   0.28749

 Mulliken charges:
               1
     1  C    0.156843
     2  O   -0.347161
     3  C   -0.028495
     4  C   -0.139553
     5  H    0.088004
     6  H    0.088854
     7  H    0.120147
     8  H    0.061362
 Sum of Mulliken charges =   0.00000

 Dipole moment (field-independent basis, Debye):
    X=             -3.5907    Y=             -0.6876    Z=              0.0290  Tot=              3.6561
 Quadrupole moment (field-independent basis, Debye-Ang):
   XX=            -27.4627   YY=            -21.8031   ZZ=            -25.0939
   XY=             -0.8816   XZ=              0.0883   YZ=             -0.1956

 Normal termination of Gaussian 09 at Wed Aug 26 11:08:13 2020.
