 Gaussian 09, Revision D.01,
 Gaussian 09:  ES64L-G09RevD.01 24-Apr-2013

 --------------------
 #p B2PLYPD3/Def2QZVP
 --------------------

 --------
 acrolein
 --------
 Symbolic Z-matrix:
 Charge =  0 Multiplicity = 1

                         Standard orientation:
 ---------------------------------------------------------------------
 Center     Atomic      Atomic             Coordinates (Angstroms)
 Number     Number       Type             X           Y           Z
 ---------------------------------------------------------------------
      1          6           0       -0.679106    0.350555    0.019863
      2          8           0       -1.793073   -0.119385    0.003070
      3          6           0        0.550300   -0.447143   -0.033080
      4          6           0        1.765306    0.145237    0.000697
      5          1           0        0.419003   -1.545349   -0.003083
      6          1           0        1.851797    1.219828   -0.049700
      7          1           0        2.719363   -0.470526    0.115627
      8          1           0       -0.464578    1.459229   -0.012291
 ---------------------------------------------------------------------

 SCF Done:  E(RB2PLYPD3) =  -191.611234623     A.U. after   13 cycles
 E2(B2PLYPD3) =    -0.2483319756D+00 E(B2PLYPD3) =    -0.19185956659853D+03

 The electronic state is 1-A.
 Alpha  occ. eigenvalues --  -19.73020 -10.71880 -10.66459 -10.64861  -1.19721
 Alpha  occ. eigenvalues --   -0.92494  -0.75149  -0.66434  -0.56217  -0.55773
 Alpha  occ. eigenvalues --   -0.50247  -0.46991  -0.46631  -0.34435  -0.33812
 Alpha virt. eigenvalues --   -0.02100   0.05591   0.06942   0.08095   0.09748
 Alpha virt. eigenvalues --    0.12397   0.13728   0.15342   0.17396   0.19750
 Alpha virt. eigenvalues --    0.19861   0.21348   0.25176   0.26486   0.28543

 Mulliken charges:
               1
     1  C    0.161408
     2  O   -0.345565
     3  C   -0.035849
     4  C   -0.136448
     5  H    0.103298
     6  H    0.089555
     7  H    0.102424
     8  H    0.061177
 Sum of Mulliken charges =   0.00000

 Dipole moment (field-independent basis, Debye):
    X=              3.4857    Y=              0.7326    Z=              0.0693  Tot=              3.5625
 Quadrupole moment (field-independent basis, Debye-Ang):
   XX=            -27.4624   YY=            -21.8338   ZZ=            -25.3719
   XY=             -0.8143   XZ=              0.2395   YZ=             -0.1576

 Normal termination of Gaussian 09 at Wed Aug 26 08:37:50 2020.
