 Gaussian 09, Revision D.01,
 Gaussian 09:  ES64L-G09RevD.01 24-Apr-2013

 --------------------
 #p B2PLYPD3/Def2QZVP
 --------------------

 --------
 acrolein
 --------
 Symbolic Z-matrix:
 Charge =  0 Multiplicity = 1

                         Standard orientation:
 ---------------------------------------------------------------------
 Center     Atomic      Atomic             Coordinates (Angstroms)
 Number     Number       Type             X           Y           Z
 ---------------------------------------------------------------------
      1          6           0       -0.675615    0.342874    0.023706
      2          8           0       -1.782326   -0.114605   -0.021886
      3          6           0        0.562294   -0.460007    0.004549
      4          6           0        1.755991    0.145704   -0.020348
      5          1           0        0.435187   -1.511002    0.078575
      6          1           0        1.850534    1.226029   -0.005192
      7          1           0        2.630336   -0.416548   -0.004341
      8          1           0       -0.513468    1.446939    0.058601
 ---------------------------------------------------------------------

 SCF Done:  E(RB2PLYPD3) =  -191.615885764     A.U. after   12 cycles
 E2(B2PLYPD3) =    -0.2463747944D+00 E(B2PLYPD3) =    -0.19186226055883D+03

 The electronic state is 1-A.
 Alpha  occ. eigenvalues --  -19.72780 -10.71424 -10.65055 -10.64226  -1.20241
 Alpha  occ. eigenvalues --   -0.92894  -0.75579  -0.67051  -0.56839  -0.56471
 Alpha  occ. eigenvalues --   -0.50846  -0.47696  -0.46971  -0.34597  -0.33664
 Alpha virt. eigenvalues --   -0.01568   0.05860   0.07290   0.08274   0.09765
 Alpha virt. eigenvalues --    0.12679   0.13993   0.15349   0.17588   0.19777
 Alpha virt. eigenvalues --    0.19985   0.21818   0.25413   0.26525   0.28648

 Mulliken charges:
               1
     1  C    0.156580
     2  O   -0.341692
     3  C   -0.042106
     4  C   -0.132707
     5  H    0.106025
     6  H    0.087144
     7  H    0.102681
     8  H    0.064074
 Sum of Mulliken charges =   0.00000

 Dipole moment (field-independent basis, Debye):
    X=              3.4194    Y=              0.7019    Z=              0.1578  Tot=              3.4943
 Quadrupole moment (field-independent basis, Debye-Ang):
   XX=            -27.3683   YY=            -21.7403   ZZ=            -25.1527
   XY=             -0.8133   XZ=             -0.0773   YZ=             -0.0978

 Normal termination of Gaussian 09 at Wed Aug 26 08:37:42 2020.
