 Gaussian 09, Revision D.01,
 Gaussian 09:  ES64L-G09RevD.01 24-Apr-2013

 --------------------
 #p B2PLYPD3/Def2QZVP
 --------------------

 --------
 acrolein
 --------
 Symbolic Z-matrix:
 Charge =  0 Multiplicity = 1

                         Standard orientation:
 ---------------------------------------------------------------------
 Center     Atomic      Atomic             Coordinates (Angstroms)
 Number     Number       Type             X           Y           Z
 ---------------------------------------------------------------------
      1          6           0        0.643248    0.323617    0.094221
      2          8           0        1.832695   -0.096674   -0.072831
      3          6           0       -0.595097   -0.492255    0.033853
      4          6           0       -1.751487    0.175164   -0.057806
      5          1           0       -0.437738   -1.558493    0.134621
      6          1           0       -1.784684    1.142348   -0.062865
      7          1           0       -2.691766   -0.336349   -0.038583
      8          1           0        0.472642    1.486728    0.127867
 ---------------------------------------------------------------------

 SCF Done:  E(RB2PLYPD3) =  -191.591960840     A.U. after   13 cycles
 E2(B2PLYPD3) =    -0.2508496065D+00 E(B2PLYPD3) =    -0.19184281044658D+03

 The electronic state is 1-A.
 Alpha  occ. eigenvalues --  -19.73115 -10.73153 -10.65525 -10.64791  -1.15965
 Alpha  occ. eigenvalues --   -0.93864  -0.76363  -0.67159  -0.56570  -0.56502
 Alpha  occ. eigenvalues --   -0.49674  -0.48073  -0.44830  -0.34758  -0.33747
 Alpha virt. eigenvalues --   -0.02731   0.05726   0.06743   0.07292   0.09652
 Alpha virt. eigenvalues --    0.12720   0.13970   0.15017   0.16831   0.19923
 Alpha virt. eigenvalues --    0.20467   0.21830   0.24653   0.26448   0.29100

 Mulliken charges:
               1
     1  C    0.154868
     2  O   -0.374046
     3  C   -0.019723
     4  C   -0.122569
     5  H    0.107437
     6  H    0.096002
     7  H    0.097276
     8  H    0.060754
 Sum of Mulliken charges =   0.00000

 Dipole moment (field-independent basis, Debye):
    X=             -3.8765    Y=              0.6579    Z=              0.3424  Tot=              3.9468
 Quadrupole moment (field-independent basis, Debye-Ang):
   XX=            -27.8824   YY=            -21.6879   ZZ=            -25.3013
   XY=              0.5376   XZ=              0.4468   YZ=             -0.2097

 Normal termination of Gaussian 09 at Wed Aug 26 14:54:16 2020.
