 Gaussian 09, Revision D.01,
 Gaussian 09:  ES64L-G09RevD.01 24-Apr-2013

 --------------------
 #p B2PLYPD3/Def2QZVP
 --------------------

 --------
 acrolein
 --------
 Symbolic Z-matrix:
 Charge =  0 Multiplicity = 1

                         Standard orientation:
 ---------------------------------------------------------------------
 Center     Atomic      Atomic             Coordinates (Angstroms)
 Number     Number       Type             X           Y           Z
 ---------------------------------------------------------------------
      1          6           0       -0.679969    0.367461   -0.036362
      2          8           0       -1.788439   -0.138327    0.022237
      3          6           0        0.564307   -0.441802   -0.034056
      4          6           0        1.746185    0.150012    0.017818
      5          1           0        0.478217   -1.496414    0.018665
      6          1           0        1.826651    1.170852   -0.051428
      7          1           0        2.755326   -0.442031    0.083493
      8          1           0       -0.535820    1.420178    0.086973
 ---------------------------------------------------------------------

 SCF Done:  E(RB2PLYPD3) =  -191.607145470     A.U. after   12 cycles
 E2(B2PLYPD3) =    -0.2472700960D+00 E(B2PLYPD3) =    -0.19185441556607D+03

 The electronic state is 1-A.
 Alpha  occ. eigenvalues --  -19.72895 -10.71603 -10.65384 -10.64048  -1.19059
 Alpha  occ. eigenvalues --   -0.93121  -0.75095  -0.68102  -0.57252  -0.55581
 Alpha  occ. eigenvalues --   -0.50461  -0.46653  -0.46463  -0.34771  -0.33959
 Alpha virt. eigenvalues --   -0.01618   0.05616   0.07222   0.07719   0.09733
 Alpha virt. eigenvalues --    0.12457   0.14061   0.15312   0.17818   0.19624
 Alpha virt. eigenvalues --    0.20318   0.21213   0.24982   0.26795   0.28728

 Mulliken charges:
               1
     1  C    0.150983
     2  O   -0.352039
     3  C   -0.043985
     4  C   -0.132272
     5  H    0.112126
     6  H    0.087623
     7  H    0.091419
     8  H    0.086145
 Sum of Mulliken charges =   0.00000

 Dipole moment (field-independent basis, Debye):
    X=              3.4157    Y=              0.9020    Z=             -0.0177  Tot=              3.5328
 Quadrupole moment (field-independent basis, Debye-Ang):
   XX=            -27.5714   YY=            -21.6754   ZZ=            -25.1742
   XY=             -1.0856   XZ=              0.2151   YZ=             -0.1148

 Normal termination of Gaussian 09 at Wed Aug 26 09:51:50 2020.
