 Gaussian 09, Revision D.01,
 Gaussian 09:  ES64L-G09RevD.01 24-Apr-2013

 --------------------
 #p B2PLYPD3/Def2QZVP
 --------------------

 --------
 acrolein
 --------
 Symbolic Z-matrix:
 Charge =  0 Multiplicity = 1

                         Standard orientation:
 ---------------------------------------------------------------------
 Center     Atomic      Atomic             Coordinates (Angstroms)
 Number     Number       Type             X           Y           Z
 ---------------------------------------------------------------------
      1          6           0       -0.636408    0.298123   -0.042433
      2          8           0       -1.808118   -0.090484    0.066055
      3          6           0        0.605903   -0.451165   -0.088589
      4          6           0        1.718000    0.178953    0.070034
      5          1           0        0.460716   -1.543079   -0.122852
      6          1           0        1.793065    1.215117   -0.069602
      7          1           0        2.604700   -0.441224    0.189076
      8          1           0       -0.518509    1.337600   -0.159136
 ---------------------------------------------------------------------

 SCF Done:  E(RB2PLYPD3) =  -191.603082516     A.U. after   13 cycles
 E2(B2PLYPD3) =    -0.2475167190D+00 E(B2PLYPD3) =    -0.19185059923458D+03

 The electronic state is 1-A.
 Alpha  occ. eigenvalues --  -19.72525 -10.70908 -10.64999 -10.64260  -1.17532
 Alpha  occ. eigenvalues --   -0.95099  -0.76326  -0.67573  -0.57431  -0.56432
 Alpha  occ. eigenvalues --   -0.50239  -0.47525  -0.45535  -0.35554  -0.33479
 Alpha virt. eigenvalues --   -0.01836   0.05773   0.06778   0.08275   0.09730
 Alpha virt. eigenvalues --    0.12795   0.13810   0.15072   0.17254   0.19917
 Alpha virt. eigenvalues --    0.20104   0.21820   0.24630   0.26702   0.28214

 Mulliken charges:
               1
     1  C    0.152590
     2  O   -0.368753
     3  C   -0.017448
     4  C   -0.124834
     5  H    0.097419
     6  H    0.098742
     7  H    0.098392
     8  H    0.063892
 Sum of Mulliken charges =   0.00000

 Dipole moment (field-independent basis, Debye):
    X=              3.7857    Y=              0.6422    Z=             -0.2723  Tot=              3.8494
 Quadrupole moment (field-independent basis, Debye-Ang):
   XX=            -28.0063   YY=            -21.7049   ZZ=            -24.9363
   XY=             -0.7341   XZ=              0.6085   YZ=             -0.1178

 Normal termination of Gaussian 09 at Wed Aug 26 14:22:11 2020.
