 Gaussian 09, Revision D.01,
 Gaussian 09:  ES64L-G09RevD.01 24-Apr-2013

 --------------------
 #p B2PLYPD3/Def2QZVP
 --------------------

 --------
 acrolein
 --------
 Symbolic Z-matrix:
 Charge =  0 Multiplicity = 1

                         Standard orientation:
 ---------------------------------------------------------------------
 Center     Atomic      Atomic             Coordinates (Angstroms)
 Number     Number       Type             X           Y           Z
 ---------------------------------------------------------------------
      1          6           0        0.679140    0.356594   -0.090761
      2          8           0        1.778713   -0.091058    0.065411
      3          6           0       -0.568974   -0.491646   -0.032990
      4          6           0       -1.750692    0.136950    0.006656
      5          1           0       -0.362915   -1.638682   -0.004832
      6          1           0       -1.946328    1.393192    0.191527
      7          1           0       -2.611331   -0.383316    0.072703
      8          1           0        0.534026    1.345882   -0.080119
 ---------------------------------------------------------------------

 SCF Done:  E(RB2PLYPD3) =  -191.576007229     A.U. after   13 cycles
 E2(B2PLYPD3) =    -0.2476419932D+00 E(B2PLYPD3) =    -0.19182364922274D+03

 The electronic state is 1-A.
 Alpha  occ. eigenvalues --  -19.72635 -10.70428 -10.66360 -10.65618  -1.20250
 Alpha  occ. eigenvalues --   -0.91929  -0.75461  -0.67266  -0.56911  -0.54493
 Alpha  occ. eigenvalues --   -0.51159  -0.46916  -0.44737  -0.34602  -0.33583
 Alpha virt. eigenvalues --   -0.01321   0.04901   0.07019   0.07671   0.09465
 Alpha virt. eigenvalues --    0.12159   0.14257   0.15334   0.17228   0.18828
 Alpha virt. eigenvalues --    0.19943   0.21897   0.24745   0.26941   0.28318

 Mulliken charges:
               1
     1  C    0.181135
     2  O   -0.345655
     3  C   -0.070585
     4  C   -0.128097
     5  H    0.103685
     6  H    0.071203
     7  H    0.104985
     8  H    0.083329
 Sum of Mulliken charges =   0.00000

 Dipole moment (field-independent basis, Debye):
    X=             -3.2677    Y=              0.7282    Z=             -0.0730  Tot=              3.3487
 Quadrupole moment (field-independent basis, Debye-Ang):
   XX=            -27.6740   YY=            -21.3901   ZZ=            -25.3473
   XY=              0.6123   XZ=             -0.8303   YZ=              0.1667

 Normal termination of Gaussian 09 at Wed Aug 26 13:58:29 2020.
