 Gaussian 09, Revision D.01,
 Gaussian 09:  ES64L-G09RevD.01 24-Apr-2013

 --------------------
 #p B2PLYPD3/Def2QZVP
 --------------------

 --------
 acrolein
 --------
 Symbolic Z-matrix:
 Charge =  0 Multiplicity = 1

                         Standard orientation:
 ---------------------------------------------------------------------
 Center     Atomic      Atomic             Coordinates (Angstroms)
 Number     Number       Type             X           Y           Z
 ---------------------------------------------------------------------
      1          6           0        0.658878    0.346625    0.044319
      2          8           0        1.779345   -0.126922   -0.037344
      3          6           0       -0.548590   -0.427975    0.056268
      4          6           0       -1.746951    0.136625   -0.036110
      5          1           0       -0.454324   -1.499267   -0.002627
      6          1           0       -1.797457    1.214689    0.037469
      7          1           0       -2.718231   -0.435116   -0.090884
      8          1           0        0.555233    1.403419   -0.032063
 ---------------------------------------------------------------------

 SCF Done:  E(RB2PLYPD3) =  -191.611756581     A.U. after   13 cycles
 E2(B2PLYPD3) =    -0.2473442596D+00 E(B2PLYPD3) =    -0.19185910084079D+03

 The electronic state is 1-A.
 Alpha  occ. eigenvalues --  -19.72489 -10.70895 -10.66023 -10.64059  -1.18916
 Alpha  occ. eigenvalues --   -0.93605  -0.75797  -0.67597  -0.57089  -0.56167
 Alpha  occ. eigenvalues --   -0.50232  -0.46650  -0.46456  -0.34773  -0.33927
 Alpha virt. eigenvalues --   -0.02067   0.05634   0.07151   0.08259   0.09770
 Alpha virt. eigenvalues --    0.12447   0.14058   0.15260   0.17721   0.19646
 Alpha virt. eigenvalues --    0.20111   0.21310   0.24975   0.26749   0.29219

 Mulliken charges:
               1
     1  C    0.148590
     2  O   -0.356980
     3  C   -0.030023
     4  C   -0.126964
     5  H    0.106289
     6  H    0.082112
     7  H    0.102295
     8  H    0.074682
 Sum of Mulliken charges =   0.00000

 Dipole moment (field-independent basis, Debye):
    X=             -3.5969    Y=              0.7989    Z=              0.0702  Tot=              3.6852
 Quadrupole moment (field-independent basis, Debye-Ang):
   XX=            -27.3513   YY=            -21.8119   ZZ=            -25.1360
   XY=              1.1732   XZ=              0.3446   YZ=              0.1186

 Normal termination of Gaussian 09 at Wed Aug 26 10:13:35 2020.
