 Gaussian 09, Revision D.01,
 Gaussian 09:  ES64L-G09RevD.01 24-Apr-2013

 --------------------
 #p B2PLYPD3/Def2QZVP
 --------------------

 --------
 acrolein
 --------
 Symbolic Z-matrix:
 Charge =  0 Multiplicity = 1

                         Standard orientation:
 ---------------------------------------------------------------------
 Center     Atomic      Atomic             Coordinates (Angstroms)
 Number     Number       Type             X           Y           Z
 ---------------------------------------------------------------------
      1          6           0       -0.664743    0.366398   -0.033484
      2          8           0       -1.782426   -0.136672    0.034855
      3          6           0        0.561172   -0.437947   -0.030750
      4          6           0        1.733801    0.143744    0.011152
      5          1           0        0.430594   -1.494780   -0.008231
      6          1           0        1.744251    1.144849    0.157625
      7          1           0        2.790068   -0.417981    0.007982
      8          1           0       -0.486881    1.428123   -0.117724
 ---------------------------------------------------------------------

 SCF Done:  E(RB2PLYPD3) =  -191.601987488     A.U. after   13 cycles
 E2(B2PLYPD3) =    -0.2476667252D+00 E(B2PLYPD3) =    -0.19184965421354D+03

 The electronic state is 1-A.
 Alpha  occ. eigenvalues --  -19.72947 -10.71661 -10.65394 -10.63783  -1.18623
 Alpha  occ. eigenvalues --   -0.93871  -0.75314  -0.68087  -0.57077  -0.55578
 Alpha  occ. eigenvalues --   -0.50464  -0.46694  -0.46176  -0.34953  -0.34065
 Alpha virt. eigenvalues --   -0.01756   0.05544   0.07138   0.07880   0.09787
 Alpha virt. eigenvalues --    0.12452   0.13893   0.15337   0.17492   0.19529
 Alpha virt. eigenvalues --    0.20450   0.21174   0.25330   0.26481   0.29050

 Mulliken charges:
               1
     1  C    0.149010
     2  O   -0.358892
     3  C   -0.031937
     4  C   -0.129823
     5  H    0.109362
     6  H    0.084685
     7  H    0.094609
     8  H    0.082987
 Sum of Mulliken charges =   0.00000

 Dipole moment (field-independent basis, Debye):
    X=              3.4736    Y=              0.8740    Z=             -0.0263  Tot=              3.5820
 Quadrupole moment (field-independent basis, Debye-Ang):
   XX=            -27.5593   YY=            -21.8141   ZZ=            -25.1190
   XY=             -1.0569   XZ=              0.4254   YZ=              0.1224

 Normal termination of Gaussian 09 at Wed Aug 26 08:35:09 2020.
