 Gaussian 09, Revision D.01,
 Gaussian 09:  ES64L-G09RevD.01 24-Apr-2013

 --------------------
 #p B2PLYPD3/Def2QZVP
 --------------------

 --------
 acrolein
 --------
 Symbolic Z-matrix:
 Charge =  0 Multiplicity = 1

                         Standard orientation:
 ---------------------------------------------------------------------
 Center     Atomic      Atomic             Coordinates (Angstroms)
 Number     Number       Type             X           Y           Z
 ---------------------------------------------------------------------
      1          6           0        0.674760    0.356865    0.007726
      2          8           0        1.789428   -0.129765   -0.008824
      3          6           0       -0.559246   -0.441843    0.019970
      4          6           0       -1.757040    0.138988   -0.014031
      5          1           0       -0.411275   -1.525019   -0.009824
      6          1           0       -1.838470    1.215872    0.017444
      7          1           0       -2.736168   -0.452095   -0.015985
      8          1           0        0.519649    1.475299   -0.003035
 ---------------------------------------------------------------------

 SCF Done:  E(RB2PLYPD3) =  -191.613374560     A.U. after   12 cycles
 E2(B2PLYPD3) =    -0.2479824925D+00 E(B2PLYPD3) =    -0.19186135705292D+03

 The electronic state is 1-A.
 Alpha  occ. eigenvalues --  -19.72951 -10.71954 -10.66118 -10.64584  -1.19282
 Alpha  occ. eigenvalues --   -0.92876  -0.75008  -0.66614  -0.56382  -0.55834
 Alpha  occ. eigenvalues --   -0.50350  -0.46692  -0.46389  -0.34739  -0.33894
 Alpha virt. eigenvalues --   -0.01841   0.05594   0.07005   0.08107   0.09757
 Alpha virt. eigenvalues --    0.12294   0.13798   0.15334   0.17417   0.19797
 Alpha virt. eigenvalues --    0.19915   0.21262   0.25412   0.26408   0.28804

 Mulliken charges:
               1
     1  C    0.158664
     2  O   -0.350373
     3  C   -0.038804
     4  C   -0.129312
     5  H    0.106808
     6  H    0.086088
     7  H    0.100123
     8  H    0.066807
 Sum of Mulliken charges =   0.00000

 Dipole moment (field-independent basis, Debye):
    X=             -3.4765    Y=              0.7818    Z=              0.0188  Tot=              3.5634
 Quadrupole moment (field-independent basis, Debye-Ang):
   XX=            -27.4375   YY=            -21.8037   ZZ=            -25.3281
   XY=              0.9399   XZ=              0.0583   YZ=              0.0560

 Normal termination of Gaussian 09 at Wed Aug 26 20:15:50 2020.
