 Gaussian 09, Revision D.01,
 Gaussian 09:  ES64L-G09RevD.01 24-Apr-2013

 --------------------
 #p B2PLYPD3/Def2QZVP
 --------------------

 --------
 acrolein
 --------
 Symbolic Z-matrix:
 Charge =  0 Multiplicity = 1

                         Standard orientation:
 ---------------------------------------------------------------------
 Center     Atomic      Atomic             Coordinates (Angstroms)
 Number     Number       Type             X           Y           Z
 ---------------------------------------------------------------------
      1          6           0       -0.663108    0.330555   -0.020606
      2          8           0       -1.798874   -0.108764    0.011887
      3          6           0        0.559569   -0.455599    0.006914
      4          6           0        1.750541    0.149876    0.002377
      5          1           0        0.468010   -1.532984   -0.023667
      6          1           0        1.843045    1.247620    0.055989
      7          1           0        2.704909   -0.425387   -0.025343
      8          1           0       -0.506987    1.431872   -0.034180
 ---------------------------------------------------------------------

 SCF Done:  E(RB2PLYPD3) =  -191.614869518     A.U. after   13 cycles
 E2(B2PLYPD3) =    -0.2478799664D+00 E(B2PLYPD3) =    -0.19186274948486D+03

 The electronic state is 1-A.
 Alpha  occ. eigenvalues --  -19.72718 -10.71558 -10.66320 -10.64569  -1.18976
 Alpha  occ. eigenvalues --   -0.93224  -0.75411  -0.66844  -0.56431  -0.56138
 Alpha  occ. eigenvalues --   -0.50207  -0.46803  -0.46575  -0.34750  -0.33800
 Alpha virt. eigenvalues --   -0.02060   0.05609   0.07009   0.08251   0.09656
 Alpha virt. eigenvalues --    0.12475   0.13996   0.15275   0.17520   0.19668
 Alpha virt. eigenvalues --    0.20010   0.21314   0.25311   0.26402   0.28787

 Mulliken charges:
               1
     1  C    0.154779
     2  O   -0.352877
     3  C   -0.032057
     4  C   -0.126690
     5  H    0.104707
     6  H    0.087142
     7  H    0.100445
     8  H    0.064552
 Sum of Mulliken charges =   0.00000

 Dipole moment (field-independent basis, Debye):
    X=              3.6343    Y=              0.6900    Z=             -0.0580  Tot=              3.6997
 Quadrupole moment (field-independent basis, Debye-Ang):
   XX=            -27.4841   YY=            -21.7815   ZZ=            -25.2709
   XY=             -0.8446   XZ=              0.0639   YZ=              0.1152

 Normal termination of Gaussian 09 at Wed Aug 26 13:18:03 2020.
