 Gaussian 09, Revision D.01,
 Gaussian 09:  ES64L-G09RevD.01 24-Apr-2013

 --------------------
 #p B2PLYPD3/Def2QZVP
 --------------------

 --------
 acrolein
 --------
 Symbolic Z-matrix:
 Charge =  0 Multiplicity = 1

                         Standard orientation:
 ---------------------------------------------------------------------
 Center     Atomic      Atomic             Coordinates (Angstroms)
 Number     Number       Type             X           Y           Z
 ---------------------------------------------------------------------
      1          6           0       -0.694843    0.352635    0.026063
      2          8           0       -1.786006   -0.134979   -0.023486
      3          6           0        0.535736   -0.401923   -0.021657
      4          6           0        1.786979    0.113026   -0.036767
      5          1           0        0.376919   -1.506087    0.195758
      6          1           0        1.793454    1.103976    0.053583
      7          1           0        2.755419   -0.425681    0.038213
      8          1           0       -0.404975    1.525198    0.094506
 ---------------------------------------------------------------------

 SCF Done:  E(RB2PLYPD3) =  -191.592381821     A.U. after   13 cycles
 E2(B2PLYPD3) =    -0.2486981442D+00 E(B2PLYPD3) =    -0.19184107996536D+03

 The electronic state is 1-A.
 Alpha  occ. eigenvalues --  -19.73715 -10.72662 -10.65410 -10.64884  -1.21044
 Alpha  occ. eigenvalues --   -0.93042  -0.76449  -0.65504  -0.56980  -0.56046
 Alpha  occ. eigenvalues --   -0.51555  -0.48172  -0.45306  -0.34584  -0.33832
 Alpha virt. eigenvalues --   -0.02537   0.05753   0.06743   0.08538   0.09877
 Alpha virt. eigenvalues --    0.12552   0.13521   0.15008   0.17413   0.19608
 Alpha virt. eigenvalues --    0.20014   0.22005   0.25245   0.26191   0.28718

 Mulliken charges:
               1
     1  C    0.160704
     2  O   -0.327130
     3  C   -0.015247
     4  C   -0.129872
     5  H    0.088119
     6  H    0.079815
     7  H    0.110455
     8  H    0.033156
 Sum of Mulliken charges =   0.00000

 Dipole moment (field-independent basis, Debye):
    X=              3.4297    Y=              0.6717    Z=              0.3477  Tot=              3.5121
 Quadrupole moment (field-independent basis, Debye-Ang):
   XX=            -26.6110   YY=            -22.6743   ZZ=            -25.2386
   XY=             -0.8300   XZ=              0.1956   YZ=             -0.2060

 Normal termination of Gaussian 09 at Wed Aug 26 14:02:52 2020.
