 Gaussian 09, Revision D.01,
 Gaussian 09:  ES64L-G09RevD.01 24-Apr-2013

 --------------------
 #p B2PLYPD3/Def2QZVP
 --------------------

 --------
 acrolein
 --------
 Symbolic Z-matrix:
 Charge =  0 Multiplicity = 1

                         Standard orientation:
 ---------------------------------------------------------------------
 Center     Atomic      Atomic             Coordinates (Angstroms)
 Number     Number       Type             X           Y           Z
 ---------------------------------------------------------------------
      1          6           0       -0.673757    0.353100    0.025423
      2          8           0       -1.778221   -0.106319   -0.029915
      3          6           0        0.558843   -0.476912    0.055712
      4          6           0        1.755951    0.149239   -0.036291
      5          1           0        0.446378   -1.590382   -0.017990
      6          1           0        1.865975    1.277524    0.025867
      7          1           0        2.631184   -0.363699   -0.059059
      8          1           0       -0.563993    1.374544    0.021442
 ---------------------------------------------------------------------

 SCF Done:  E(RB2PLYPD3) =  -191.605586694     A.U. after   13 cycles
 E2(B2PLYPD3) =    -0.2465258777D+00 E(B2PLYPD3) =    -0.19185211257117D+03

 The electronic state is 1-A.
 Alpha  occ. eigenvalues --  -19.72379 -10.70548 -10.65428 -10.65133  -1.20122
 Alpha  occ. eigenvalues --   -0.92185  -0.75658  -0.67666  -0.56746  -0.56351
 Alpha  occ. eigenvalues --   -0.50691  -0.46908  -0.46658  -0.34289  -0.33713
 Alpha virt. eigenvalues --   -0.01513   0.05770   0.07243   0.07930   0.09616
 Alpha virt. eigenvalues --    0.12566   0.14316   0.15444   0.17453   0.19663
 Alpha virt. eigenvalues --    0.19975   0.21847   0.24846   0.26591   0.28762

 Mulliken charges:
               1
     1  C    0.159452
     2  O   -0.344609
     3  C   -0.055494
     4  C   -0.128229
     5  H    0.105073
     6  H    0.078146
     7  H    0.102800
     8  H    0.082862
 Sum of Mulliken charges =   0.00000

 Dipole moment (field-independent basis, Debye):
    X=              3.4067    Y=              0.7969    Z=              0.0524  Tot=              3.4991
 Quadrupole moment (field-independent basis, Debye-Ang):
   XX=            -27.4527   YY=            -21.4612   ZZ=            -25.2368
   XY=             -0.8649   XZ=             -0.2792   YZ=              0.1370

 Normal termination of Gaussian 09 at Wed Aug 26 07:55:07 2020.
