 Gaussian 09, Revision D.01,
 Gaussian 09:  ES64L-G09RevD.01 24-Apr-2013

 --------------------
 #p B2PLYPD3/Def2QZVP
 --------------------

 --------
 acrolein
 --------
 Symbolic Z-matrix:
 Charge =  0 Multiplicity = 1

                         Standard orientation:
 ---------------------------------------------------------------------
 Center     Atomic      Atomic             Coordinates (Angstroms)
 Number     Number       Type             X           Y           Z
 ---------------------------------------------------------------------
      1          6           0       -0.678382    0.355003   -0.002024
      2          8           0       -1.780880   -0.134207    0.007296
      3          6           0        0.563612   -0.437350   -0.023738
      4          6           0        1.751177    0.134881   -0.002544
      5          1           0        0.480172   -1.480602    0.041671
      6          1           0        1.813707    1.222241    0.035876
      7          1           0        2.670279   -0.426278    0.042360
      8          1           0       -0.535567    1.443091   -0.008440
 ---------------------------------------------------------------------

 SCF Done:  E(RB2PLYPD3) =  -191.616368692     A.U. after   12 cycles
 E2(B2PLYPD3) =    -0.2463265560D+00 E(B2PLYPD3) =    -0.19186269524761D+03

 The electronic state is 1-A.
 Alpha  occ. eigenvalues --  -19.72851 -10.71518 -10.65073 -10.63666  -1.19848
 Alpha  occ. eigenvalues --   -0.93295  -0.75314  -0.67436  -0.56817  -0.56565
 Alpha  occ. eigenvalues --   -0.50876  -0.47085  -0.46683  -0.34872  -0.33912
 Alpha virt. eigenvalues --   -0.01474   0.05799   0.07308   0.08268   0.09767
 Alpha virt. eigenvalues --    0.12562   0.14013   0.15384   0.17798   0.19701
 Alpha virt. eigenvalues --    0.19925   0.21568   0.25658   0.26399   0.28888

 Mulliken charges:
               1
     1  C    0.152667
     2  O   -0.344817
     3  C   -0.039999
     4  C   -0.128308
     5  H    0.105676
     6  H    0.078424
     7  H    0.101852
     8  H    0.074505
 Sum of Mulliken charges =   0.00000

 Dipole moment (field-independent basis, Debye):
    X=              3.4046    Y=              0.7910    Z=              0.0862  Tot=              3.4963
 Quadrupole moment (field-independent basis, Debye-Ang):
   XX=            -27.3727   YY=            -21.7875   ZZ=            -25.1046
   XY=             -1.1540   XZ=              0.2329   YZ=             -0.0550

 Normal termination of Gaussian 09 at Wed Aug 26 20:24:12 2020.
