 Gaussian 09, Revision D.01,
 Gaussian 09:  ES64L-G09RevD.01 24-Apr-2013

 --------------------
 #p B2PLYPD3/Def2QZVP
 --------------------

 --------
 acrolein
 --------
 Symbolic Z-matrix:
 Charge =  0 Multiplicity = 1

                         Standard orientation:
 ---------------------------------------------------------------------
 Center     Atomic      Atomic             Coordinates (Angstroms)
 Number     Number       Type             X           Y           Z
 ---------------------------------------------------------------------
      1          6           0       -0.689662    0.409063   -0.067286
      2          8           0       -1.772898   -0.177466    0.042469
      3          6           0        0.553160   -0.419226    0.006613
      4          6           0        1.749645    0.124783   -0.003295
      5          1           0        0.550726   -1.445675   -0.061074
      6          1           0        1.774125    1.152467    0.243520
      7          1           0        2.698006   -0.453826   -0.041535
      8          1           0       -0.518531    1.479040   -0.096853
 ---------------------------------------------------------------------

 SCF Done:  E(RB2PLYPD3) =  -191.600784496     A.U. after   14 cycles
 E2(B2PLYPD3) =    -0.2482253997D+00 E(B2PLYPD3) =    -0.19184900989577D+03

 The electronic state is 1-A.
 Alpha  occ. eigenvalues --  -19.73260 -10.72528 -10.64468 -10.63256  -1.18379
 Alpha  occ. eigenvalues --   -0.93231  -0.75108  -0.68048  -0.57154  -0.55884
 Alpha  occ. eigenvalues --   -0.50475  -0.46499  -0.46000  -0.34684  -0.34034
 Alpha virt. eigenvalues --   -0.01825   0.05758   0.07238   0.07337   0.09841
 Alpha virt. eigenvalues --    0.12440   0.13972   0.15217   0.17820   0.19455
 Alpha virt. eigenvalues --    0.20304   0.21411   0.24573   0.26510   0.28522

 Mulliken charges:
               1
     1  C    0.159195
     2  O   -0.350965
     3  C   -0.050902
     4  C   -0.126280
     5  H    0.104714
     6  H    0.070697
     7  H    0.093439
     8  H    0.100102
 Sum of Mulliken charges =   0.00000

 Dipole moment (field-independent basis, Debye):
    X=              3.2902    Y=              1.0311    Z=             -0.1007  Tot=              3.4495
 Quadrupole moment (field-independent basis, Debye-Ang):
   XX=            -27.6802   YY=            -21.6332   ZZ=            -25.1065
   XY=             -1.6962   XZ=              0.3990   YZ=              0.3137

 Normal termination of Gaussian 09 at Wed Aug 26 14:29:32 2020.
