 Gaussian 09, Revision D.01,
 Gaussian 09:  ES64L-G09RevD.01 24-Apr-2013

 --------------------
 #p B2PLYPD3/Def2QZVP
 --------------------

 --------
 acrolein
 --------
 Symbolic Z-matrix:
 Charge =  0 Multiplicity = 1

                         Standard orientation:
 ---------------------------------------------------------------------
 Center     Atomic      Atomic             Coordinates (Angstroms)
 Number     Number       Type             X           Y           Z
 ---------------------------------------------------------------------
      1          6           0        0.676245    0.359177   -0.013567
      2          8           0        1.782250   -0.125618    0.006937
      3          6           0       -0.554287   -0.446001   -0.016404
      4          6           0       -1.760476    0.134247    0.010049
      5          1           0       -0.455452   -1.528319    0.022731
      6          1           0       -1.825600    1.207452   -0.034660
      7          1           0       -2.644901   -0.399829    0.026434
      8          1           0        0.499070    1.441102    0.049528
 ---------------------------------------------------------------------

 SCF Done:  E(RB2PLYPD3) =  -191.615432397     A.U. after   12 cycles
 E2(B2PLYPD3) =    -0.2468324468D+00 E(B2PLYPD3) =    -0.19186226484414D+03

 The electronic state is 1-A.
 Alpha  occ. eigenvalues --  -19.72860 -10.71545 -10.64848 -10.64348  -1.19744
 Alpha  occ. eigenvalues --   -0.92910  -0.75866  -0.67118  -0.56953  -0.56518
 Alpha  occ. eigenvalues --   -0.50925  -0.47013  -0.46812  -0.34529  -0.33935
 Alpha virt. eigenvalues --   -0.01752   0.05856   0.07259   0.08125   0.09777
 Alpha virt. eigenvalues --    0.12673   0.14197   0.15372   0.17447   0.19744
 Alpha virt. eigenvalues --    0.20081   0.21857   0.25358   0.26584   0.28791

 Mulliken charges:
               1
     1  C    0.154946
     2  O   -0.345624
     3  C   -0.039082
     4  C   -0.133091
     5  H    0.103389
     6  H    0.079578
     7  H    0.104908
     8  H    0.074975
 Sum of Mulliken charges =   0.00000

 Dipole moment (field-independent basis, Debye):
    X=             -3.4466    Y=              0.7878    Z=              0.0022  Tot=              3.5355
 Quadrupole moment (field-independent basis, Debye-Ang):
   XX=            -27.3464   YY=            -21.7435   ZZ=            -25.1644
   XY=              0.9907   XZ=             -0.0575   YZ=             -0.0795

 Normal termination of Gaussian 09 at Wed Aug 26 15:11:57 2020.
