 Gaussian 09, Revision D.01,
 Gaussian 09:  ES64L-G09RevD.01 24-Apr-2013

 --------------------
 #p B2PLYPD3/Def2QZVP
 --------------------

 --------
 acrolein
 --------
 Symbolic Z-matrix:
 Charge =  0 Multiplicity = 1

                         Standard orientation:
 ---------------------------------------------------------------------
 Center     Atomic      Atomic             Coordinates (Angstroms)
 Number     Number       Type             X           Y           Z
 ---------------------------------------------------------------------
      1          6           0       -0.707981   -0.365559   -0.066131
      2          8           0       -1.763157    0.133121    0.069348
      3          6           0        0.543167    0.418725   -0.057950
      4          6           0        1.768896   -0.150710    0.032776
      5          1           0        0.406170    1.586236    0.009931
      6          1           0        1.877392   -1.224753    0.297844
      7          1           0        2.804616    0.499376   -0.063344
      8          1           0       -0.607412   -1.340567   -0.251380
 ---------------------------------------------------------------------

 SCF Done:  E(RB2PLYPD3) =  -191.585434853     A.U. after   14 cycles
 E2(B2PLYPD3) =    -0.2468651153D+00 E(B2PLYPD3) =    -0.19183229996801D+03

 The electronic state is 1-A.
 Alpha  occ. eigenvalues --  -19.72599 -10.70102 -10.67155 -10.65197  -1.21778
 Alpha  occ. eigenvalues --   -0.91458  -0.75038  -0.67290  -0.57028  -0.54967
 Alpha  occ. eigenvalues --   -0.50232  -0.47652  -0.45060  -0.34323  -0.33430
 Alpha virt. eigenvalues --   -0.01670   0.05262   0.06938   0.08148   0.09615
 Alpha virt. eigenvalues --    0.12167   0.13887   0.15692   0.17449   0.18387
 Alpha virt. eigenvalues --    0.20107   0.20896   0.25150   0.26964   0.28667

 Mulliken charges:
               1
     1  C    0.169724
     2  O   -0.331993
     3  C   -0.066155
     4  C   -0.134631
     5  H    0.100102
     6  H    0.085458
     7  H    0.094944
     8  H    0.082551
 Sum of Mulliken charges =   0.00000

 Dipole moment (field-independent basis, Debye):
    X=              3.1009    Y=             -0.9320    Z=             -0.1043  Tot=              3.2396
 Quadrupole moment (field-independent basis, Debye-Ang):
   XX=            -27.3309   YY=            -21.7672   ZZ=            -25.3072
   XY=              1.1157   XZ=              0.7165   YZ=             -0.2708

 Normal termination of Gaussian 09 at Wed Aug 26 13:07:40 2020.
