 Gaussian 09, Revision D.01,
 Gaussian 09:  ES64L-G09RevD.01 24-Apr-2013

 --------------------
 #p B2PLYPD3/Def2QZVP
 --------------------

 --------
 acrolein
 --------
 Symbolic Z-matrix:
 Charge =  0 Multiplicity = 1

                         Standard orientation:
 ---------------------------------------------------------------------
 Center     Atomic      Atomic             Coordinates (Angstroms)
 Number     Number       Type             X           Y           Z
 ---------------------------------------------------------------------
      1          6           0        0.660908    0.351248    0.036144
      2          8           0        1.812416   -0.122773   -0.037419
      3          6           0       -0.586914   -0.455435    0.070137
      4          6           0       -1.729754    0.128532   -0.060129
      5          1           0       -0.458055   -1.440860   -0.038620
      6          1           0       -1.866477    1.189340   -0.009330
      7          1           0       -2.622514   -0.419839    0.013261
      8          1           0        0.382283    1.507476    0.057128
 ---------------------------------------------------------------------

 SCF Done:  E(RB2PLYPD3) =  -191.597256217     A.U. after   13 cycles
 E2(B2PLYPD3) =    -0.2488826641D+00 E(B2PLYPD3) =    -0.19184613888114D+03

 The electronic state is 1-A.
 Alpha  occ. eigenvalues --  -19.73535 -10.73168 -10.64469 -10.63323  -1.17655
 Alpha  occ. eigenvalues --   -0.94564  -0.75754  -0.67550  -0.57328  -0.55545
 Alpha  occ. eigenvalues --   -0.50651  -0.47306  -0.45857  -0.35639  -0.33848
 Alpha virt. eigenvalues --   -0.01978   0.05697   0.07203   0.07665   0.09825
 Alpha virt. eigenvalues --    0.12747   0.13363   0.14993   0.17785   0.19338
 Alpha virt. eigenvalues --    0.20013   0.21867   0.25081   0.26663   0.28317

 Mulliken charges:
               1
     1  C    0.162881
     2  O   -0.359991
     3  C   -0.034579
     4  C   -0.104596
     5  H    0.111347
     6  H    0.076849
     7  H    0.092226
     8  H    0.055861
 Sum of Mulliken charges =   0.00000

 Dipole moment (field-independent basis, Debye):
    X=             -3.6642    Y=              0.6767    Z=              0.1097  Tot=              3.7278
 Quadrupole moment (field-independent basis, Debye-Ang):
   XX=            -27.6407   YY=            -21.9526   ZZ=            -25.0665
   XY=              0.6296   XZ=              0.1704   YZ=              0.1000

 Normal termination of Gaussian 09 at Wed Aug 26 13:42:54 2020.
