 Gaussian 09, Revision D.01,
 Gaussian 09:  ES64L-G09RevD.01 24-Apr-2013

 --------------------
 #p B2PLYPD3/Def2QZVP
 --------------------

 --------
 acrolein
 --------
 Symbolic Z-matrix:
 Charge =  0 Multiplicity = 1

                         Standard orientation:
 ---------------------------------------------------------------------
 Center     Atomic      Atomic             Coordinates (Angstroms)
 Number     Number       Type             X           Y           Z
 ---------------------------------------------------------------------
      1          6           0       -0.676156    0.334546    0.014898
      2          8           0       -1.794796   -0.110876   -0.016150
      3          6           0        0.576793   -0.465512    0.013180
      4          6           0        1.761653    0.145103   -0.016248
      5          1           0        0.465017   -1.492837    0.059671
      6          1           0        1.879912    1.231225    0.044214
      7          1           0        2.565578   -0.394129   -0.058290
      8          1           0       -0.525877    1.457926    0.012619
 ---------------------------------------------------------------------

 SCF Done:  E(RB2PLYPD3) =  -191.605005021     A.U. after   13 cycles
 E2(B2PLYPD3) =    -0.2463345868D+00 E(B2PLYPD3) =    -0.19185133960822D+03

 The electronic state is 1-A.
 Alpha  occ. eigenvalues --  -19.72859 -10.71734 -10.64339 -10.64093  -1.19866
 Alpha  occ. eigenvalues --   -0.93283  -0.76155  -0.67096  -0.57621  -0.56282
 Alpha  occ. eigenvalues --   -0.50925  -0.48230  -0.46794  -0.34742  -0.33570
 Alpha virt. eigenvalues --   -0.01596   0.05905   0.07404   0.08199   0.09716
 Alpha virt. eigenvalues --    0.12744   0.14068   0.15368   0.17548   0.19758
 Alpha virt. eigenvalues --    0.20040   0.22174   0.25315   0.26494   0.28437

 Mulliken charges:
               1
     1  C    0.158218
     2  O   -0.342884
     3  C   -0.045907
     4  C   -0.129088
     5  H    0.106021
     6  H    0.088384
     7  H    0.104415
     8  H    0.060841
 Sum of Mulliken charges =   0.00000

 Dipole moment (field-independent basis, Debye):
    X=              3.4784    Y=              0.6554    Z=              0.0973  Tot=              3.5409
 Quadrupole moment (field-independent basis, Debye-Ang):
   XX=            -27.3837   YY=            -21.7286   ZZ=            -25.0769
   XY=             -0.7822   XZ=             -0.1120   YZ=              0.0101

 Normal termination of Gaussian 09 at Wed Aug 26 09:06:04 2020.
