 Gaussian 09, Revision D.01,
 Gaussian 09:  ES64L-G09RevD.01 24-Apr-2013

 --------------------
 #p B2PLYPD3/Def2QZVP
 --------------------

 --------
 acrolein
 --------
 Symbolic Z-matrix:
 Charge =  0 Multiplicity = 1

                         Standard orientation:
 ---------------------------------------------------------------------
 Center     Atomic      Atomic             Coordinates (Angstroms)
 Number     Number       Type             X           Y           Z
 ---------------------------------------------------------------------
      1          6           0       -0.658679    0.366170   -0.082952
      2          8           0       -1.801156   -0.155477    0.071501
      3          6           0        0.566480   -0.420887   -0.038028
      4          6           0        1.749917    0.137978    0.011566
      5          1           0        0.453768   -1.471627   -0.136300
      6          1           0        1.664765    1.093183    0.180830
      7          1           0        2.823533   -0.431633    0.148427
      8          1           0       -0.479120    1.554327   -0.108486
 ---------------------------------------------------------------------

 SCF Done:  E(RB2PLYPD3) =  -191.576096498     A.U. after   13 cycles
 E2(B2PLYPD3) =    -0.2512700543D+00 E(B2PLYPD3) =    -0.19182736655207D+03

 The electronic state is 1-A.
 Alpha  occ. eigenvalues --  -19.73522 -10.73565 -10.65437 -10.64164  -1.16828
 Alpha  occ. eigenvalues --   -0.94588  -0.75506  -0.67205  -0.56116  -0.55347
 Alpha  occ. eigenvalues --   -0.49643  -0.46479  -0.45614  -0.35096  -0.34281
 Alpha virt. eigenvalues --   -0.02694   0.05305   0.06590   0.07565   0.09806
 Alpha virt. eigenvalues --    0.12049   0.13469   0.14881   0.17193   0.19256
 Alpha virt. eigenvalues --    0.20687   0.21329   0.24886   0.25780   0.28741

 Mulliken charges:
               1
     1  C    0.153650
     2  O   -0.366189
     3  C   -0.013449
     4  C   -0.123971
     5  H    0.104526
     6  H    0.083652
     7  H    0.100403
     8  H    0.061377
 Sum of Mulliken charges =   0.00000

 Dipole moment (field-independent basis, Debye):
    X=              3.6388    Y=              0.7959    Z=             -0.1221  Tot=              3.7268
 Quadrupole moment (field-independent basis, Debye-Ang):
   XX=            -27.5506   YY=            -22.0793   ZZ=            -25.2551
   XY=             -1.3719   XZ=              0.8723   YZ=              0.2384

 Normal termination of Gaussian 09 at Wed Aug 26 12:35:26 2020.
