 Gaussian 09, Revision D.01,
 Gaussian 09:  ES64L-G09RevD.01 24-Apr-2013

 --------------------
 #p B2PLYPD3/Def2QZVP
 --------------------

 --------
 acrolein
 --------
 Symbolic Z-matrix:
 Charge =  0 Multiplicity = 1

                         Standard orientation:
 ---------------------------------------------------------------------
 Center     Atomic      Atomic             Coordinates (Angstroms)
 Number     Number       Type             X           Y           Z
 ---------------------------------------------------------------------
      1          6           0        0.660040    0.325705    0.045771
      2          8           0        1.828151   -0.107656   -0.063628
      3          6           0       -0.566664   -0.459153    0.063255
      4          6           0       -1.732098    0.154493   -0.078421
      5          1           0       -0.567999   -1.465731    0.138878
      6          1           0       -1.866937    1.269745   -0.037769
      7          1           0       -2.761672   -0.471099   -0.021229
      8          1           0        0.403737    1.402061    0.245510
 ---------------------------------------------------------------------

 SCF Done:  E(RB2PLYPD3) =  -191.593713350     A.U. after   13 cycles
 E2(B2PLYPD3) =    -0.2502627212D+00 E(B2PLYPD3) =    -0.19184397607113D+03

 The electronic state is 1-A.
 Alpha  occ. eigenvalues --  -19.73238 -10.72529 -10.67286 -10.63968  -1.17284
 Alpha  occ. eigenvalues --   -0.94006  -0.75130  -0.67791  -0.55834  -0.55625
 Alpha  occ. eigenvalues --   -0.50360  -0.46195  -0.45455  -0.35085  -0.34074
 Alpha virt. eigenvalues --   -0.02522   0.05205   0.06601   0.07969   0.09460
 Alpha virt. eigenvalues --    0.12369   0.13702   0.15157   0.18123   0.18726
 Alpha virt. eigenvalues --    0.20111   0.20873   0.24783   0.26356   0.28373

 Mulliken charges:
               1
     1  C    0.152952
     2  O   -0.363067
     3  C   -0.023718
     4  C   -0.111937
     5  H    0.107981
     6  H    0.082267
     7  H    0.082733
     8  H    0.072790
 Sum of Mulliken charges =   0.00000

 Dipole moment (field-independent basis, Debye):
    X=             -3.7802    Y=              0.6774    Z=              0.3682  Tot=              3.8580
 Quadrupole moment (field-independent basis, Debye-Ang):
   XX=            -27.9137   YY=            -21.8689   ZZ=            -25.3135
   XY=              0.7533   XZ=              0.3032   YZ=             -0.0921

 Normal termination of Gaussian 09 at Wed Aug 26 13:05:02 2020.
