 Gaussian 09, Revision D.01,
 Gaussian 09:  ES64L-G09RevD.01 24-Apr-2013

 --------------------
 #p B2PLYPD3/Def2QZVP
 --------------------

 --------
 acrolein
 --------
 Symbolic Z-matrix:
 Charge =  0 Multiplicity = 1

                         Standard orientation:
 ---------------------------------------------------------------------
 Center     Atomic      Atomic             Coordinates (Angstroms)
 Number     Number       Type             X           Y           Z
 ---------------------------------------------------------------------
      1          6           0       -0.673761   -0.341829   -0.022605
      2          8           0       -1.806745    0.089411    0.036883
      3          6           0        0.574112    0.473672   -0.102229
      4          6           0        1.783566   -0.162863    0.006053
      5          1           0        0.394347    1.655643    0.147154
      6          1           0        1.871955   -1.185576    0.081807
      7          1           0        2.612327    0.337647    0.196647
      8          1           0       -0.528171   -1.336881   -0.007978
 ---------------------------------------------------------------------

 SCF Done:  E(RB2PLYPD3) =  -191.583686584     A.U. after   13 cycles
 E2(B2PLYPD3) =    -0.2480989042D+00 E(B2PLYPD3) =    -0.19183178548826D+03

 The electronic state is 1-A.
 Alpha  occ. eigenvalues --  -19.72644 -10.70726 -10.66507 -10.64753  -1.19178
 Alpha  occ. eigenvalues --   -0.92352  -0.77008  -0.67604  -0.57096  -0.56688
 Alpha  occ. eigenvalues --   -0.50776  -0.46811  -0.45827  -0.34227  -0.33794
 Alpha virt. eigenvalues --   -0.02344   0.05855   0.06561   0.07851   0.09546
 Alpha virt. eigenvalues --    0.12982   0.13898   0.15502   0.17322   0.19552
 Alpha virt. eigenvalues --    0.20011   0.22528   0.23985   0.26767   0.28478

 Mulliken charges:
               1
     1  C    0.160189
     2  O   -0.352916
     3  C   -0.050108
     4  C   -0.117192
     5  H    0.095206
     6  H    0.081455
     7  H    0.102254
     8  H    0.081113
 Sum of Mulliken charges =   0.00000

 Dipole moment (field-independent basis, Debye):
    X=              3.5573    Y=             -0.8704    Z=              0.2675  Tot=              3.6720
 Quadrupole moment (field-independent basis, Debye-Ang):
   XX=            -27.5540   YY=            -21.6749   ZZ=            -25.1820
   XY=              0.4938   XZ=              0.9080   YZ=              0.2904

 Normal termination of Gaussian 09 at Wed Aug 26 13:21:49 2020.
