 Gaussian 09, Revision D.01,
 Gaussian 09:  ES64L-G09RevD.01 24-Apr-2013

 --------------------
 #p B2PLYPD3/Def2QZVP
 --------------------

 --------
 acrolein
 --------
 Symbolic Z-matrix:
 Charge =  0 Multiplicity = 1

                         Standard orientation:
 ---------------------------------------------------------------------
 Center     Atomic      Atomic             Coordinates (Angstroms)
 Number     Number       Type             X           Y           Z
 ---------------------------------------------------------------------
      1          6           0       -0.690901    0.365798    0.067599
      2          8           0       -1.782898   -0.147499   -0.032581
      3          6           0        0.543227   -0.426265   -0.023780
      4          6           0        1.770220    0.106086   -0.029568
      5          1           0        0.439259   -1.420660    0.077242
      6          1           0        1.953464    1.289830   -0.091838
      7          1           0        2.655209   -0.529451    0.142103
      8          1           0       -0.520020    1.566563    0.047631
 ---------------------------------------------------------------------

 SCF Done:  E(RB2PLYPD3) =  -191.593840551     A.U. after   13 cycles
 E2(B2PLYPD3) =    -0.2488991917D+00 E(B2PLYPD3) =    -0.19184273974295D+03

 The electronic state is 1-A.
 Alpha  occ. eigenvalues --  -19.73359 -10.72795 -10.66841 -10.63713  -1.19958
 Alpha  occ. eigenvalues --   -0.92690  -0.74725  -0.66164  -0.56488  -0.55270
 Alpha  occ. eigenvalues --   -0.50580  -0.47038  -0.46096  -0.34646  -0.33737
 Alpha virt. eigenvalues --   -0.02147   0.05403   0.07093   0.07909   0.09600
 Alpha virt. eigenvalues --    0.11867   0.13517   0.15325   0.17857   0.18870
 Alpha virt. eigenvalues --    0.19752   0.21738   0.25089   0.26378   0.28628

 Mulliken charges:
               1
     1  C    0.172305
     2  O   -0.337511
     3  C   -0.051929
     4  C   -0.120360
     5  H    0.110557
     6  H    0.076500
     7  H    0.100586
     8  H    0.049853
 Sum of Mulliken charges =   0.00000

 Dipole moment (field-independent basis, Debye):
    X=              3.3638    Y=              0.6851    Z=              0.2836  Tot=              3.4446
 Quadrupole moment (field-independent basis, Debye-Ang):
   XX=            -27.3632   YY=            -21.9478   ZZ=            -25.3623
   XY=             -1.0600   XZ=              0.1365   YZ=             -0.3339

 Normal termination of Gaussian 09 at Wed Aug 26 10:44:57 2020.
