 Gaussian 09, Revision D.01,
 Gaussian 09:  ES64L-G09RevD.01 24-Apr-2013

 --------------------
 #p B2PLYPD3/Def2QZVP
 --------------------

 --------
 acrolein
 --------
 Symbolic Z-matrix:
 Charge =  0 Multiplicity = 1

                         Standard orientation:
 ---------------------------------------------------------------------
 Center     Atomic      Atomic             Coordinates (Angstroms)
 Number     Number       Type             X           Y           Z
 ---------------------------------------------------------------------
      1          6           0       -0.669959    0.370861   -0.007517
      2          8           0       -1.776407   -0.142988    0.012905
      3          6           0        0.574315   -0.434715   -0.044811
      4          6           0        1.742826    0.140674    0.007705
      5          1           0        0.465109   -1.519603    0.065395
      6          1           0        1.759437    1.182298    0.011793
      7          1           0        2.613554   -0.437793    0.070557
      8          1           0       -0.509931    1.458079    0.016750
 ---------------------------------------------------------------------

 SCF Done:  E(RB2PLYPD3) =  -191.612423226     A.U. after   12 cycles
 E2(B2PLYPD3) =    -0.2467613629D+00 E(B2PLYPD3) =    -0.19185918458867D+03

 The electronic state is 1-A.
 Alpha  occ. eigenvalues --  -19.72961 -10.71842 -10.63968 -10.63800  -1.19045
 Alpha  occ. eigenvalues --   -0.93780  -0.75510  -0.67169  -0.57409  -0.56330
 Alpha  occ. eigenvalues --   -0.50732  -0.47009  -0.46374  -0.35060  -0.33962
 Alpha virt. eigenvalues --   -0.01369   0.05921   0.07072   0.08000   0.09906
 Alpha virt. eigenvalues --    0.12721   0.13830   0.15245   0.17459   0.19878
 Alpha virt. eigenvalues --    0.20077   0.21981   0.25461   0.26651   0.28946

 Mulliken charges:
               1
     1  C    0.151070
     2  O   -0.351090
     3  C   -0.033469
     4  C   -0.131518
     5  H    0.100564
     6  H    0.081542
     7  H    0.104789
     8  H    0.078111
 Sum of Mulliken charges =   0.00000

 Dipole moment (field-independent basis, Debye):
    X=              3.3995    Y=              0.8629    Z=              0.1025  Tot=              3.5088
 Quadrupole moment (field-independent basis, Debye-Ang):
   XX=            -27.6627   YY=            -21.6332   ZZ=            -25.0611
   XY=             -1.2236   XZ=              0.3028   YZ=             -0.1411

 Normal termination of Gaussian 09 at Wed Aug 26 09:08:22 2020.
