 Gaussian 09, Revision D.01,
 Gaussian 09:  ES64L-G09RevD.01 24-Apr-2013

 --------------------
 #p B2PLYPD3/Def2QZVP
 --------------------

 --------
 acrolein
 --------
 Symbolic Z-matrix:
 Charge =  0 Multiplicity = 1

                         Standard orientation:
 ---------------------------------------------------------------------
 Center     Atomic      Atomic             Coordinates (Angstroms)
 Number     Number       Type             X           Y           Z
 ---------------------------------------------------------------------
      1          6           0        0.652671    0.328557    0.018192
      2          8           0        1.806532   -0.102741   -0.025214
      3          6           0       -0.560500   -0.469195   -0.008042
      4          6           0       -1.740822    0.153241   -0.001578
      5          1           0       -0.506397   -1.555976    0.118882
      6          1           0       -1.860156    1.279371   -0.089283
      7          1           0       -2.689758   -0.409786   -0.026337
      8          1           0        0.495958    1.432701    0.147020
 ---------------------------------------------------------------------

 SCF Done:  E(RB2PLYPD3) =  -191.610292636     A.U. after   13 cycles
 E2(B2PLYPD3) =    -0.2489571040D+00 E(B2PLYPD3) =    -0.19185924974020D+03

 The electronic state is 1-A.
 Alpha  occ. eigenvalues --  -19.72694 -10.71868 -10.66562 -10.64895  -1.18083
 Alpha  occ. eigenvalues --   -0.93376  -0.75337  -0.66495  -0.56250  -0.56011
 Alpha  occ. eigenvalues --   -0.49912  -0.46665  -0.45869  -0.34852  -0.33774
 Alpha virt. eigenvalues --   -0.02195   0.05545   0.06715   0.07887   0.09560
 Alpha virt. eigenvalues --    0.12455   0.14023   0.15055   0.17527   0.19463
 Alpha virt. eigenvalues --    0.20055   0.21290   0.24765   0.26656   0.28727

 Mulliken charges:
               1
     1  C    0.151611
     2  O   -0.358087
     3  C   -0.034284
     4  C   -0.118314
     5  H    0.106759
     6  H    0.083754
     7  H    0.097578
     8  H    0.070983
 Sum of Mulliken charges =   0.00000

 Dipole moment (field-independent basis, Debye):
    X=             -3.7427    Y=              0.6751    Z=              0.1429  Tot=              3.8057
 Quadrupole moment (field-independent basis, Debye-Ang):
   XX=            -27.6748   YY=            -21.6939   ZZ=            -25.3167
   XY=              0.8054   XZ=              0.2667   YZ=             -0.2232

 Normal termination of Gaussian 09 at Wed Aug 26 09:28:40 2020.
