 Gaussian 09, Revision D.01,
 Gaussian 09:  ES64L-G09RevD.01 24-Apr-2013

 --------------------
 #p B2PLYPD3/Def2QZVP
 --------------------

 --------
 acrolein
 --------
 Symbolic Z-matrix:
 Charge =  0 Multiplicity = 1

                         Standard orientation:
 ---------------------------------------------------------------------
 Center     Atomic      Atomic             Coordinates (Angstroms)
 Number     Number       Type             X           Y           Z
 ---------------------------------------------------------------------
      1          6           0       -0.699785    0.379424    0.042357
      2          8           0       -1.737791   -0.156788   -0.062754
      3          6           0        0.541394   -0.423273    0.042082
      4          6           0        1.748807    0.128100   -0.071327
      5          1           0        0.461842   -1.404763    0.173742
      6          1           0        1.807268    1.232952   -0.104083
      7          1           0        2.695310   -0.478413    0.072381
      8          1           0       -0.604589    1.399027    0.281324
 ---------------------------------------------------------------------

 SCF Done:  E(RB2PLYPD3) =  -191.602310542     A.U. after   13 cycles
 E2(B2PLYPD3) =    -0.2448490973D+00 E(B2PLYPD3) =    -0.19184715963977D+03

 The electronic state is 1-A.
 Alpha  occ. eigenvalues --  -19.72689 -10.70611 -10.65351 -10.62749  -1.22034
 Alpha  occ. eigenvalues --   -0.92468  -0.74634  -0.68495  -0.57603  -0.56016
 Alpha  occ. eigenvalues --   -0.51356  -0.47772  -0.46484  -0.34331  -0.33804
 Alpha virt. eigenvalues --   -0.00945   0.05835   0.07317   0.08398   0.09771
 Alpha virt. eigenvalues --    0.12415   0.14075   0.15516   0.18383   0.18610
 Alpha virt. eigenvalues --    0.20113   0.21528   0.25302   0.26983   0.28969

 Mulliken charges:
               1
     1  C    0.152145
     2  O   -0.325575
     3  C   -0.064164
     4  C   -0.128810
     5  H    0.113391
     6  H    0.072102
     7  H    0.093209
     8  H    0.087702
 Sum of Mulliken charges =   0.00000

 Dipole moment (field-independent basis, Debye):
    X=              2.9687    Y=              0.8984    Z=              0.4276  Tot=              3.1310
 Quadrupole moment (field-independent basis, Debye-Ang):
   XX=            -27.2978   YY=            -21.7257   ZZ=            -25.0122
   XY=             -1.4068   XZ=             -0.1781   YZ=             -0.2768

 Normal termination of Gaussian 09 at Wed Aug 26 10:34:28 2020.
