 Gaussian 09, Revision D.01,
 Gaussian 09:  ES64L-G09RevD.01 24-Apr-2013

 --------------------
 #p B2PLYPD3/Def2QZVP
 --------------------

 --------
 acrolein
 --------
 Symbolic Z-matrix:
 Charge =  0 Multiplicity = 1

                         Standard orientation:
 ---------------------------------------------------------------------
 Center     Atomic      Atomic             Coordinates (Angstroms)
 Number     Number       Type             X           Y           Z
 ---------------------------------------------------------------------
      1          6           0        0.672218    0.359642    0.016498
      2          8           0        1.773232   -0.135956   -0.013355
      3          6           0       -0.551647   -0.430175    0.042695
      4          6           0       -1.757110    0.124504   -0.026885
      5          1           0       -0.435229   -1.512935   -0.059400
      6          1           0       -1.812424    1.225107    0.042400
      7          1           0       -2.670848   -0.418414   -0.021851
      8          1           0        0.551877    1.470062   -0.048162
 ---------------------------------------------------------------------

 SCF Done:  E(RB2PLYPD3) =  -191.614768736     A.U. after   12 cycles
 E2(B2PLYPD3) =    -0.2470941583D+00 E(B2PLYPD3) =    -0.19186186289435D+03

 The electronic state is 1-A.
 Alpha  occ. eigenvalues --  -19.72777 -10.71596 -10.65384 -10.64276  -1.19771
 Alpha  occ. eigenvalues --   -0.93097  -0.75561  -0.66606  -0.56852  -0.56393
 Alpha  occ. eigenvalues --   -0.50780  -0.47050  -0.46104  -0.34777  -0.33892
 Alpha virt. eigenvalues --   -0.01784   0.05802   0.07115   0.08195   0.09811
 Alpha virt. eigenvalues --    0.12419   0.13990   0.15267   0.17543   0.19657
 Alpha virt. eigenvalues --    0.19948   0.21685   0.25086   0.26594   0.29083

 Mulliken charges:
               1
     1  C    0.154523
     2  O   -0.344990
     3  C   -0.040320
     4  C   -0.124368
     5  H    0.104381
     6  H    0.075720
     7  H    0.105883
     8  H    0.069171
 Sum of Mulliken charges =   0.00000

 Dipole moment (field-independent basis, Debye):
    X=             -3.4366    Y=              0.7837    Z=             -0.0094  Tot=              3.5248
 Quadrupole moment (field-independent basis, Debye-Ang):
   XX=            -27.2486   YY=            -21.8570   ZZ=            -25.1878
   XY=              1.1694   XZ=              0.0898   YZ=              0.1569

 Normal termination of Gaussian 09 at Wed Aug 26 10:19:52 2020.
