 Gaussian 09, Revision D.01,
 Gaussian 09:  ES64L-G09RevD.01 24-Apr-2013

 --------------------
 #p B2PLYPD3/Def2QZVP
 --------------------

 --------
 acrolein
 --------
 Symbolic Z-matrix:
 Charge =  0 Multiplicity = 1

                         Standard orientation:
 ---------------------------------------------------------------------
 Center     Atomic      Atomic             Coordinates (Angstroms)
 Number     Number       Type             X           Y           Z
 ---------------------------------------------------------------------
      1          6           0        0.653015    0.325666    0.086328
      2          8           0        1.833475   -0.099845   -0.060419
      3          6           0       -0.627429   -0.485248    0.071172
      4          6           0       -1.734878    0.185341   -0.058592
      5          1           0       -0.415096   -1.590068   -0.000145
      6          1           0       -1.873935    1.180275    0.054904
      7          1           0       -2.662979   -0.397648   -0.124214
      8          1           0        0.539964    1.451644   -0.040643
 ---------------------------------------------------------------------

 SCF Done:  E(RB2PLYPD3) =  -191.593779879     A.U. after   13 cycles
 E2(B2PLYPD3) =    -0.2501060332D+00 E(B2PLYPD3) =    -0.19184388591171D+03

 The electronic state is 1-A.
 Alpha  occ. eigenvalues --  -19.73034 -10.72729 -10.65724 -10.64805  -1.16418
 Alpha  occ. eigenvalues --   -0.93957  -0.75303  -0.66746  -0.57018  -0.55968
 Alpha  occ. eigenvalues --   -0.49871  -0.46400  -0.45051  -0.35494  -0.33428
 Alpha virt. eigenvalues --   -0.01974   0.05720   0.06747   0.06999   0.09659
 Alpha virt. eigenvalues --    0.12583   0.13860   0.15073   0.16751   0.19767
 Alpha virt. eigenvalues --    0.20269   0.21817   0.23960   0.26954   0.27892

 Mulliken charges:
               1
     1  C    0.161053
     2  O   -0.371384
     3  C   -0.042830
     4  C   -0.116173
     5  H    0.112705
     6  H    0.100741
     7  H    0.089146
     8  H    0.066741
 Sum of Mulliken charges =   0.00000

 Dipole moment (field-independent basis, Debye):
    X=             -3.7434    Y=              0.6965    Z=              0.1678  Tot=              3.8113
 Quadrupole moment (field-independent basis, Debye-Ang):
   XX=            -28.1154   YY=            -21.5781   ZZ=            -25.2695
   XY=              0.4931   XZ=              0.4187   YZ=              0.1159

 Normal termination of Gaussian 09 at Wed Aug 26 13:17:19 2020.
