 Gaussian 09, Revision D.01,
 Gaussian 09:  ES64L-G09RevD.01 24-Apr-2013

 --------------------
 #p B2PLYPD3/Def2QZVP
 --------------------

 --------
 acrolein
 --------
 Symbolic Z-matrix:
 Charge =  0 Multiplicity = 1

                         Standard orientation:
 ---------------------------------------------------------------------
 Center     Atomic      Atomic             Coordinates (Angstroms)
 Number     Number       Type             X           Y           Z
 ---------------------------------------------------------------------
      1          6           0       -0.667562    0.361564   -0.008834
      2          8           0       -1.772706   -0.136995   -0.007803
      3          6           0        0.532173   -0.433310    0.005250
      4          6           0        1.758864    0.115859   -0.008770
      5          1           0        0.424025   -1.465242    0.059703
      6          1           0        1.854762    1.234137   -0.024946
      7          1           0        2.710142   -0.435543    0.001994
      8          1           0       -0.548135    1.497926    0.099799
 ---------------------------------------------------------------------

 SCF Done:  E(RB2PLYPD3) =  -191.611274321     A.U. after   13 cycles
 E2(B2PLYPD3) =    -0.2478212592D+00 E(B2PLYPD3) =    -0.19185909558042D+03

 The electronic state is 1-A.
 Alpha  occ. eigenvalues --  -19.72711 -10.71735 -10.66325 -10.63990  -1.19501
 Alpha  occ. eigenvalues --   -0.92978  -0.75444  -0.66872  -0.56616  -0.56229
 Alpha  occ. eigenvalues --   -0.50413  -0.47020  -0.46383  -0.34487  -0.33859
 Alpha virt. eigenvalues --   -0.02109   0.05617   0.07140   0.08301   0.09731
 Alpha virt. eigenvalues --    0.12191   0.14006   0.15380   0.17761   0.19419
 Alpha virt. eigenvalues --    0.19999   0.21291   0.25482   0.26328   0.29134

 Mulliken charges:
               1
     1  C    0.157405
     2  O   -0.349178
     3  C   -0.043635
     4  C   -0.124390
     5  H    0.113311
     6  H    0.076600
     7  H    0.103119
     8  H    0.066768
 Sum of Mulliken charges =   0.00000

 Dipole moment (field-independent basis, Debye):
    X=              3.5191    Y=              0.7499    Z=              0.0755  Tot=              3.5989
 Quadrupole moment (field-independent basis, Debye-Ang):
   XX=            -27.1375   YY=            -21.8891   ZZ=            -25.2587
   XY=             -1.1023   XZ=             -0.0510   YZ=             -0.0640

 Normal termination of Gaussian 09 at Wed Aug 26 08:09:50 2020.
