 Gaussian 09, Revision D.01,
 Gaussian 09:  ES64L-G09RevD.01 24-Apr-2013

 --------------------
 #p B2PLYPD3/Def2QZVP
 --------------------

 --------
 acrolein
 --------
 Symbolic Z-matrix:
 Charge =  0 Multiplicity = 1

                         Standard orientation:
 ---------------------------------------------------------------------
 Center     Atomic      Atomic             Coordinates (Angstroms)
 Number     Number       Type             X           Y           Z
 ---------------------------------------------------------------------
      1          6           0       -0.676457    0.374339   -0.004045
      2          8           0       -1.791365   -0.152668    0.039732
      3          6           0        0.534065   -0.391238   -0.092083
      4          6           0        1.761113    0.115397    0.007825
      5          1           0        0.436854   -1.518423   -0.019843
      6          1           0        1.883171    1.154266   -0.003744
      7          1           0        2.802655   -0.496940    0.272116
      8          1           0       -0.504086    1.491449   -0.036573
 ---------------------------------------------------------------------

 SCF Done:  E(RB2PLYPD3) =  -191.592714881     A.U. after   13 cycles
 E2(B2PLYPD3) =    -0.2499539742D+00 E(B2PLYPD3) =    -0.19184266885552D+03

 The electronic state is 1-A.
 Alpha  occ. eigenvalues --  -19.73093 -10.72294 -10.66873 -10.64755  -1.18399
 Alpha  occ. eigenvalues --   -0.93273  -0.75730  -0.66410  -0.56896  -0.55028
 Alpha  occ. eigenvalues --   -0.49750  -0.46527  -0.44874  -0.34689  -0.34211
 Alpha virt. eigenvalues --   -0.02656   0.05047   0.06698   0.08115   0.09679
 Alpha virt. eigenvalues --    0.11934   0.13866   0.15247   0.17434   0.19362
 Alpha virt. eigenvalues --    0.20004   0.21120   0.24720   0.26434   0.28600

 Mulliken charges:
               1
     1  C    0.154163
     2  O   -0.356348
     3  C   -0.028832
     4  C   -0.121127
     5  H    0.101648
     6  H    0.081554
     7  H    0.097238
     8  H    0.071705
 Sum of Mulliken charges =   0.00000

 Dipole moment (field-independent basis, Debye):
    X=              3.6122    Y=              0.9292    Z=              0.1046  Tot=              3.7312
 Quadrupole moment (field-independent basis, Debye-Ang):
   XX=            -27.3004   YY=            -22.0450   ZZ=            -25.3292
   XY=             -1.0825   XZ=              0.8782   YZ=             -0.2125

 Normal termination of Gaussian 09 at Wed Aug 26 14:28:24 2020.
