 Gaussian 09, Revision D.01,
 Gaussian 09:  ES64L-G09RevD.01 24-Apr-2013

 --------------------
 #p B2PLYPD3/Def2QZVP
 --------------------

 --------
 acrolein
 --------
 Symbolic Z-matrix:
 Charge =  0 Multiplicity = 1

                         Standard orientation:
 ---------------------------------------------------------------------
 Center     Atomic      Atomic             Coordinates (Angstroms)
 Number     Number       Type             X           Y           Z
 ---------------------------------------------------------------------
      1          6           0       -0.671723    0.364156    0.000910
      2          8           0       -1.802484   -0.146850    0.045947
      3          6           0        0.545768   -0.401323   -0.095660
      4          6           0        1.789549    0.108416    0.027645
      5          1           0        0.335255   -1.510813   -0.095720
      6          1           0        1.780051    1.112005   -0.049554
      7          1           0        2.748686   -0.467757    0.277126
      8          1           0       -0.425688    1.613876   -0.096796
 ---------------------------------------------------------------------

 SCF Done:  E(RB2PLYPD3) =  -191.581471413     A.U. after   14 cycles
 E2(B2PLYPD3) =    -0.2519607825D+00 E(B2PLYPD3) =    -0.19183343219567D+03

 The electronic state is 1-A.
 Alpha  occ. eigenvalues --  -19.73762 -10.73806 -10.66298 -10.65250  -1.18317
 Alpha  occ. eigenvalues --   -0.93424  -0.76265  -0.65046  -0.56478  -0.55238
 Alpha  occ. eigenvalues --   -0.50499  -0.46827  -0.45423  -0.34608  -0.33872
 Alpha virt. eigenvalues --   -0.03206   0.05444   0.06285   0.08005   0.09927
 Alpha virt. eigenvalues --    0.12026   0.13230   0.15197   0.16563   0.19339
 Alpha virt. eigenvalues --    0.20431   0.21340   0.24671   0.26103   0.28499

 Mulliken charges:
               1
     1  C    0.173571
     2  O   -0.353357
     3  C   -0.021704
     4  C   -0.128978
     5  H    0.095597
     6  H    0.089479
     7  H    0.118227
     8  H    0.027164
 Sum of Mulliken charges =   0.00000

 Dipole moment (field-independent basis, Debye):
    X=              3.7034    Y=              0.6435    Z=              0.0119  Tot=              3.7589
 Quadrupole moment (field-independent basis, Debye-Ang):
   XX=            -27.0260   YY=            -22.5058   ZZ=            -25.4076
   XY=             -0.9335   XZ=              0.8560   YZ=             -0.2069

 Normal termination of Gaussian 09 at Wed Aug 26 12:48:13 2020.
