 Gaussian 09, Revision D.01,
 Gaussian 09:  ES64L-G09RevD.01 24-Apr-2013

 --------------------
 #p B2PLYPD3/Def2QZVP
 --------------------

 --------
 acrolein
 --------
 Symbolic Z-matrix:
 Charge =  0 Multiplicity = 1

                         Standard orientation:
 ---------------------------------------------------------------------
 Center     Atomic      Atomic             Coordinates (Angstroms)
 Number     Number       Type             X           Y           Z
 ---------------------------------------------------------------------
      1          6           0        0.670925    0.372178    0.026623
      2          8           0        1.779092   -0.167843   -0.040918
      3          6           0       -0.550486   -0.392963    0.017579
      4          6           0       -1.759961    0.109502   -0.002754
      5          1           0       -0.550426   -1.417567    0.158938
      6          1           0       -1.731361    1.166060   -0.116580
      7          1           0       -2.624875   -0.460765   -0.118396
      8          1           0        0.511052    1.522709    0.154695
 ---------------------------------------------------------------------

 SCF Done:  E(RB2PLYPD3) =  -191.599979474     A.U. after   13 cycles
 E2(B2PLYPD3) =    -0.2484357641D+00 E(B2PLYPD3) =    -0.19184841523850D+03

 The electronic state is 1-A.
 Alpha  occ. eigenvalues --  -19.73294 -10.72731 -10.64334 -10.63153  -1.18501
 Alpha  occ. eigenvalues --   -0.94382  -0.76222  -0.67066  -0.57831  -0.56147
 Alpha  occ. eigenvalues --   -0.50966  -0.46949  -0.45456  -0.35068  -0.34255
 Alpha virt. eigenvalues --   -0.02274   0.05877   0.06963   0.08102   0.09906
 Alpha virt. eigenvalues --    0.12537   0.13745   0.15009   0.17923   0.18996
 Alpha virt. eigenvalues --    0.20129   0.21784   0.25138   0.26465   0.29056

 Mulliken charges:
               1
     1  C    0.145093
     2  O   -0.349906
     3  C   -0.016131
     4  C   -0.117428
     5  H    0.097225
     6  H    0.065362
     7  H    0.106128
     8  H    0.069657
 Sum of Mulliken charges =   0.00000

 Dipole moment (field-independent basis, Debye):
    X=             -3.4984    Y=              0.8040    Z=              0.1130  Tot=              3.5914
 Quadrupole moment (field-independent basis, Debye-Ang):
   XX=            -27.4274   YY=            -22.0256   ZZ=            -25.0192
   XY=              1.6998   XZ=              0.5438   YZ=             -0.1742

 Normal termination of Gaussian 09 at Wed Aug 26 11:07:54 2020.
