 Gaussian 09, Revision D.01,
 Gaussian 09:  ES64L-G09RevD.01 24-Apr-2013

 --------------------
 #p B2PLYPD3/Def2QZVP
 --------------------

 --------
 acrolein
 --------
 Symbolic Z-matrix:
 Charge =  0 Multiplicity = 1

                         Standard orientation:
 ---------------------------------------------------------------------
 Center     Atomic      Atomic             Coordinates (Angstroms)
 Number     Number       Type             X           Y           Z
 ---------------------------------------------------------------------
      1          6           0       -0.673343    0.338630    0.037650
      2          8           0       -1.785895   -0.113182   -0.041007
      3          6           0        0.563325   -0.457777    0.044426
      4          6           0        1.764437    0.149946   -0.037551
      5          1           0        0.506192   -1.518535    0.028853
      6          1           0        1.877464    1.225756   -0.052334
      7          1           0        2.552869   -0.395731   -0.017302
      8          1           0       -0.575888    1.409167    0.101688
 ---------------------------------------------------------------------

 SCF Done:  E(RB2PLYPD3) =  -191.603860861     A.U. after   12 cycles
 E2(B2PLYPD3) =    -0.2460813332D+00 E(B2PLYPD3) =    -0.19184994219436D+03

 The electronic state is 1-A.
 Alpha  occ. eigenvalues --  -19.72484 -10.71012 -10.64411 -10.64225  -1.19788
 Alpha  occ. eigenvalues --   -0.93078  -0.76541  -0.67567  -0.57692  -0.56757
 Alpha  occ. eigenvalues --   -0.50666  -0.48120  -0.46757  -0.34421  -0.33686
 Alpha virt. eigenvalues --   -0.01771   0.05950   0.07354   0.08306   0.09697
 Alpha virt. eigenvalues --    0.12775   0.14305   0.15474   0.17584   0.19638
 Alpha virt. eigenvalues --    0.20110   0.22279   0.25281   0.26223   0.28634

 Mulliken charges:
               1
     1  C    0.149785
     2  O   -0.345081
     3  C   -0.044687
     4  C   -0.132524
     5  H    0.103231
     6  H    0.086518
     7  H    0.106207
     8  H    0.076552
 Sum of Mulliken charges =   0.00000

 Dipole moment (field-independent basis, Debye):
    X=              3.4908    Y=              0.7424    Z=              0.1320  Tot=              3.5714
 Quadrupole moment (field-independent basis, Debye-Ang):
   XX=            -27.4106   YY=            -21.5509   ZZ=            -25.0712
   XY=             -0.9781   XZ=             -0.3339   YZ=             -0.0360

 Normal termination of Gaussian 09 at Wed Aug 26 10:00:48 2020.
