 Gaussian 09, Revision D.01,
 Gaussian 09:  ES64L-G09RevD.01 24-Apr-2013

 --------------------
 #p B2PLYPD3/Def2QZVP
 --------------------

 --------
 acrolein
 --------
 Symbolic Z-matrix:
 Charge =  0 Multiplicity = 1

                         Standard orientation:
 ---------------------------------------------------------------------
 Center     Atomic      Atomic             Coordinates (Angstroms)
 Number     Number       Type             X           Y           Z
 ---------------------------------------------------------------------
      1          6           0        0.632818    0.305166    0.097241
      2          8           0        1.837583   -0.091211   -0.072049
      3          6           0       -0.586759   -0.481763    0.031250
      4          6           0       -1.719850    0.173348   -0.062349
      5          1           0       -0.560015   -1.527934    0.070811
      6          1           0       -1.864911    1.269343   -0.168570
      7          1           0       -2.730556   -0.398067    0.079335
      8          1           0        0.497567    1.405833    0.197966
 ---------------------------------------------------------------------

 SCF Done:  E(RB2PLYPD3) =  -191.595770486     A.U. after   14 cycles
 E2(B2PLYPD3) =    -0.2510522496D+00 E(B2PLYPD3) =    -0.19184682273598D+03

 The electronic state is 1-A.
 Alpha  occ. eigenvalues --  -19.72780 -10.72408 -10.66921 -10.64675  -1.15420
 Alpha  occ. eigenvalues --   -0.94435  -0.75343  -0.67575  -0.56386  -0.55864
 Alpha  occ. eigenvalues --   -0.49615  -0.46420  -0.44614  -0.35026  -0.33805
 Alpha virt. eigenvalues --   -0.02829   0.05298   0.06690   0.07544   0.09483
 Alpha virt. eigenvalues --    0.12306   0.14150   0.15178   0.17491   0.18686
 Alpha virt. eigenvalues --    0.20237   0.21335   0.24809   0.26230   0.28878

 Mulliken charges:
               1
     1  C    0.146512
     2  O   -0.380231
     3  C   -0.023345
     4  C   -0.108901
     5  H    0.111040
     6  H    0.092243
     7  H    0.084291
     8  H    0.078391
 Sum of Mulliken charges =   0.00000

 Dipole moment (field-independent basis, Debye):
    X=             -3.9949    Y=              0.6924    Z=              0.3389  Tot=              4.0686
 Quadrupole moment (field-independent basis, Debye-Ang):
   XX=            -28.2052   YY=            -21.5731   ZZ=            -25.3003
   XY=              0.6304   XZ=              0.3675   YZ=             -0.2655

 Normal termination of Gaussian 09 at Wed Aug 26 13:34:37 2020.
