 Gaussian 09, Revision D.01,
 Gaussian 09:  ES64L-G09RevD.01 24-Apr-2013

 --------------------
 #p B2PLYPD3/Def2QZVP
 --------------------

 --------
 acrolein
 --------
 Symbolic Z-matrix:
 Charge =  0 Multiplicity = 1

                         Standard orientation:
 ---------------------------------------------------------------------
 Center     Atomic      Atomic             Coordinates (Angstroms)
 Number     Number       Type             X           Y           Z
 ---------------------------------------------------------------------
      1          6           0        0.670957    0.349138    0.001684
      2          8           0        1.797266   -0.113374   -0.005873
      3          6           0       -0.578969   -0.462943    0.019268
      4          6           0       -1.751899    0.145461   -0.013277
      5          1           0       -0.455831   -1.551380   -0.013510
      6          1           0       -1.859475    1.245205    0.016446
      7          1           0       -2.614784   -0.393557   -0.009751
      8          1           0        0.511422    1.416789    0.007750
 ---------------------------------------------------------------------

 SCF Done:  E(RB2PLYPD3) =  -191.612974535     A.U. after   12 cycles
 E2(B2PLYPD3) =    -0.2469344937D+00 E(B2PLYPD3) =    -0.19185990902854D+03

 The electronic state is 1-A.
 Alpha  occ. eigenvalues --  -19.72831 -10.71520 -10.64775 -10.64534  -1.19045
 Alpha  occ. eigenvalues --   -0.93164  -0.75730  -0.67134  -0.56959  -0.56328
 Alpha  occ. eigenvalues --   -0.50794  -0.46939  -0.46419  -0.34885  -0.33815
 Alpha virt. eigenvalues --   -0.01537   0.05798   0.07232   0.07978   0.09685
 Alpha virt. eigenvalues --    0.12684   0.14149   0.15324   0.17378   0.19713
 Alpha virt. eigenvalues --    0.19992   0.21985   0.25378   0.26606   0.28520

 Mulliken charges:
               1
     1  C    0.158190
     2  O   -0.352182
     3  C   -0.045017
     4  C   -0.127669
     5  H    0.103553
     6  H    0.082289
     7  H    0.102717
     8  H    0.078118
 Sum of Mulliken charges =   0.00000

 Dipole moment (field-independent basis, Debye):
    X=             -3.5059    Y=              0.7698    Z=              0.0100  Tot=              3.5894
 Quadrupole moment (field-independent basis, Debye-Ang):
   XX=            -27.6093   YY=            -21.5887   ZZ=            -25.1629
   XY=              0.8281   XZ=              0.0379   YZ=              0.0628

 Normal termination of Gaussian 09 at Wed Aug 26 15:41:49 2020.
