 Gaussian 09, Revision D.01,
 Gaussian 09:  ES64L-G09RevD.01 24-Apr-2013

 --------------------
 #p B2PLYPD3/Def2QZVP
 --------------------

 --------
 acrolein
 --------
 Symbolic Z-matrix:
 Charge =  0 Multiplicity = 1

                         Standard orientation:
 ---------------------------------------------------------------------
 Center     Atomic      Atomic             Coordinates (Angstroms)
 Number     Number       Type             X           Y           Z
 ---------------------------------------------------------------------
      1          6           0       -0.662281    0.303791    0.075164
      2          8           0       -1.781700   -0.068908   -0.058561
      3          6           0        0.548254   -0.486244    0.026432
      4          6           0        1.765799    0.154350   -0.060292
      5          1           0        0.395320   -1.582919    0.019467
      6          1           0        1.989905    1.379275   -0.138179
      7          1           0        2.545899   -0.442398    0.154013
      8          1           0       -0.588155    1.365932    0.185366
 ---------------------------------------------------------------------

 SCF Done:  E(RB2PLYPD3) =  -191.583448682     A.U. after   14 cycles
 E2(B2PLYPD3) =    -0.2477403983D+00 E(B2PLYPD3) =    -0.19183118908016D+03

 The electronic state is 1-A.
 Alpha  occ. eigenvalues --  -19.72077 -10.70076 -10.67112 -10.65450  -1.20578
 Alpha  occ. eigenvalues --   -0.92291  -0.75938  -0.66503  -0.56416  -0.55718
 Alpha  occ. eigenvalues --   -0.50299  -0.47156  -0.46814  -0.34065  -0.33072
 Alpha virt. eigenvalues --   -0.02414   0.05235   0.06954   0.08574   0.09583
 Alpha virt. eigenvalues --    0.12031   0.14073   0.15544   0.17361   0.18419
 Alpha virt. eigenvalues --    0.19973   0.22154   0.24865   0.26303   0.28510

 Mulliken charges:
               1
     1  C    0.155814
     2  O   -0.339405
     3  C   -0.050559
     4  C   -0.127954
     5  H    0.104689
     6  H    0.093676
     7  H    0.107139
     8  H    0.056601
 Sum of Mulliken charges =   0.00000

 Dipole moment (field-independent basis, Debye):
    X=              3.5006    Y=              0.5593    Z=              0.3070  Tot=              3.5582
 Quadrupole moment (field-independent basis, Debye-Ang):
   XX=            -27.6022   YY=            -21.4475   ZZ=            -25.3289
   XY=             -0.3944   XZ=             -0.1721   YZ=             -0.2800

 Normal termination of Gaussian 09 at Wed Aug 26 12:52:56 2020.
