 Gaussian 09, Revision D.01,
 Gaussian 09:  ES64L-G09RevD.01 24-Apr-2013

 --------------------
 #p B2PLYPD3/Def2QZVP
 --------------------

 --------
 acrolein
 --------
 Symbolic Z-matrix:
 Charge =  0 Multiplicity = 1

                         Standard orientation:
 ---------------------------------------------------------------------
 Center     Atomic      Atomic             Coordinates (Angstroms)
 Number     Number       Type             X           Y           Z
 ---------------------------------------------------------------------
      1          6           0        0.667549    0.334099    0.003052
      2          8           0        1.808280   -0.101940   -0.015449
      3          6           0       -0.574554   -0.452461    0.040137
      4          6           0       -1.757295    0.148881   -0.031281
      5          1           0       -0.397598   -1.615657    0.018086
      6          1           0       -1.863693    1.245780    0.075326
      7          1           0       -2.660552   -0.446001   -0.059832
      8          1           0        0.441397    1.448289    0.018562
 ---------------------------------------------------------------------

 SCF Done:  E(RB2PLYPD3) =  -191.607437474     A.U. after   13 cycles
 E2(B2PLYPD3) =    -0.2488691618D+00 E(B2PLYPD3) =    -0.19185630663550D+03

 The electronic state is 1-A.
 Alpha  occ. eigenvalues --  -19.73138 -10.72117 -10.66009 -10.65494  -1.18954
 Alpha  occ. eigenvalues --   -0.93128  -0.75576  -0.65467  -0.56469  -0.55648
 Alpha  occ. eigenvalues --   -0.50421  -0.46598  -0.45925  -0.34970  -0.33802
 Alpha virt. eigenvalues --   -0.02075   0.05649   0.06592   0.08096   0.09708
 Alpha virt. eigenvalues --    0.12548   0.13738   0.15194   0.16781   0.19774
 Alpha virt. eigenvalues --    0.19962   0.21695   0.24894   0.26624   0.28222

 Mulliken charges:
               1
     1  C    0.167784
     2  O   -0.350753
     3  C   -0.032680
     4  C   -0.127161
     5  H    0.093575
     6  H    0.089178
     7  H    0.106035
     8  H    0.054023
 Sum of Mulliken charges =   0.00000

 Dipole moment (field-independent basis, Debye):
    X=             -3.5999    Y=              0.6654    Z=              0.0712  Tot=              3.6616
 Quadrupole moment (field-independent basis, Debye-Ang):
   XX=            -27.6065   YY=            -21.8532   ZZ=            -25.3689
   XY=              0.5825   XZ=              0.0944   YZ=              0.1414

 Normal termination of Gaussian 09 at Wed Aug 26 09:38:09 2020.
