 Gaussian 09, Revision D.01,
 Gaussian 09:  ES64L-G09RevD.01 24-Apr-2013

 --------------------
 #p B2PLYPD3/Def2QZVP
 --------------------

 --------
 acrolein
 --------
 Symbolic Z-matrix:
 Charge =  0 Multiplicity = 1

                         Standard orientation:
 ---------------------------------------------------------------------
 Center     Atomic      Atomic             Coordinates (Angstroms)
 Number     Number       Type             X           Y           Z
 ---------------------------------------------------------------------
      1          6           0        0.676462    0.335012   -0.068477
      2          8           0        1.762739   -0.123235    0.052410
      3          6           0       -0.507107   -0.421376   -0.022847
      4          6           0       -1.759036    0.112867    0.026746
      5          1           0       -0.377726   -1.443330   -0.011210
      6          1           0       -1.914483    1.194144    0.241753
      7          1           0       -2.820350   -0.426754   -0.105127
      8          1           0        0.548732    1.502801   -0.157236
 ---------------------------------------------------------------------

 SCF Done:  E(RB2PLYPD3) =  -191.593815372     A.U. after   13 cycles
 E2(B2PLYPD3) =    -0.2478757998D+00 E(B2PLYPD3) =    -0.19184169117163D+03

 The electronic state is 1-A.
 Alpha  occ. eigenvalues --  -19.72650 -10.71263 -10.67777 -10.64017  -1.21213
 Alpha  occ. eigenvalues --   -0.92890  -0.75543  -0.66488  -0.57036  -0.55765
 Alpha  occ. eigenvalues --   -0.50321  -0.47941  -0.45980  -0.34214  -0.33503
 Alpha virt. eigenvalues --   -0.02647   0.05300   0.07257   0.08752   0.09696
 Alpha virt. eigenvalues --    0.11913   0.14039   0.15548   0.17585   0.19278
 Alpha virt. eigenvalues --    0.19886   0.20912   0.25220   0.26255   0.28828

 Mulliken charges:
               1
     1  C    0.159921
     2  O   -0.334464
     3  C   -0.035964
     4  C   -0.123358
     5  H    0.111619
     6  H    0.082765
     7  H    0.096758
     8  H    0.042723
 Sum of Mulliken charges =   0.00000

 Dipole moment (field-independent basis, Debye):
    X=             -3.5027    Y=              0.6287    Z=             -0.1249  Tot=              3.5609
 Quadrupole moment (field-independent basis, Debye-Ang):
   XX=            -26.5184   YY=            -22.3961   ZZ=            -25.2385
   XY=              0.7255   XZ=             -0.3608   YZ=              0.3212

 Normal termination of Gaussian 09 at Wed Aug 26 13:23:23 2020.
