 Gaussian 09, Revision D.01,
 Gaussian 09:  ES64L-G09RevD.01 24-Apr-2013

 --------------------
 #p B2PLYPD3/Def2QZVP
 --------------------

 --------
 acrolein
 --------
 Symbolic Z-matrix:
 Charge =  0 Multiplicity = 1

                         Standard orientation:
 ---------------------------------------------------------------------
 Center     Atomic      Atomic             Coordinates (Angstroms)
 Number     Number       Type             X           Y           Z
 ---------------------------------------------------------------------
      1          6           0       -0.665385   -0.352918    0.030320
      2          8           0       -1.818818    0.087528   -0.035066
      3          6           0        0.603511    0.494421    0.079978
      4          6           0        1.757802   -0.155676   -0.040278
      5          1           0        0.348342    1.631942   -0.077481
      6          1           0        2.038342   -1.326770   -0.002707
      7          1           0        2.569047    0.418312   -0.081270
      8          1           0       -0.580760   -1.338676    0.021868
 ---------------------------------------------------------------------

 SCF Done:  E(RB2PLYPD3) =  -191.575175074     A.U. after   13 cycles
 E2(B2PLYPD3) =    -0.2489964153D+00 E(B2PLYPD3) =    -0.19182417148974D+03

 The electronic state is 1-A.
 Alpha  occ. eigenvalues --  -19.72509 -10.70721 -10.66182 -10.65812  -1.17734
 Alpha  occ. eigenvalues --   -0.92581  -0.75900  -0.67476  -0.56522  -0.55249
 Alpha  occ. eigenvalues --   -0.50333  -0.45739  -0.45275  -0.34896  -0.33493
 Alpha virt. eigenvalues --   -0.01597   0.05291   0.06896   0.07213   0.09363
 Alpha virt. eigenvalues --    0.12291   0.13712   0.15381   0.17317   0.18774
 Alpha virt. eigenvalues --    0.20044   0.22101   0.24310   0.26846   0.27924

 Mulliken charges:
               1
     1  C    0.171055
     2  O   -0.368681
     3  C   -0.071161
     4  C   -0.120288
     5  H    0.110759
     6  H    0.089992
     7  H    0.100158
     8  H    0.088167
 Sum of Mulliken charges =   0.00000

 Dipole moment (field-independent basis, Debye):
    X=              3.6364    Y=             -0.8241    Z=             -0.0191  Tot=              3.7286
 Quadrupole moment (field-independent basis, Debye-Ang):
   XX=            -27.9123   YY=            -21.2313   ZZ=            -25.3633
   XY=              0.3224   XZ=             -0.4110   YZ=             -0.2262

 Normal termination of Gaussian 09 at Wed Aug 26 13:15:53 2020.
