 Gaussian 09, Revision D.01,
 Gaussian 09:  ES64L-G09RevD.01 24-Apr-2013

 --------------------
 #p B2PLYPD3/Def2QZVP
 --------------------

 --------
 acrolein
 --------
 Symbolic Z-matrix:
 Charge =  0 Multiplicity = 1

                         Standard orientation:
 ---------------------------------------------------------------------
 Center     Atomic      Atomic             Coordinates (Angstroms)
 Number     Number       Type             X           Y           Z
 ---------------------------------------------------------------------
      1          6           0        0.667845    0.342478    0.002666
      2          8           0        1.789692   -0.116049   -0.008813
      3          6           0       -0.561851   -0.460020    0.001274
      4          6           0       -1.750772    0.141787   -0.015669
      5          1           0       -0.475487   -1.515352    0.048862
      6          1           0       -1.822122    1.247290   -0.014709
      7          1           0       -2.640055   -0.404723    0.032131
      8          1           0        0.488794    1.455712    0.074589
 ---------------------------------------------------------------------

 SCF Done:  E(RB2PLYPD3) =  -191.615054872     A.U. after   12 cycles
 E2(B2PLYPD3) =    -0.2472453580D+00 E(B2PLYPD3) =    -0.19186230023031D+03

 The electronic state is 1-A.
 Alpha  occ. eigenvalues --  -19.72869 -10.71814 -10.65325 -10.64188  -1.19446
 Alpha  occ. eigenvalues --   -0.93211  -0.75530  -0.66912  -0.56903  -0.56131
 Alpha  occ. eigenvalues --   -0.50643  -0.47292  -0.46681  -0.34739  -0.33815
 Alpha virt. eigenvalues --   -0.01758   0.05781   0.07132   0.08178   0.09731
 Alpha virt. eigenvalues --    0.12621   0.14030   0.15330   0.17523   0.19633
 Alpha virt. eigenvalues --    0.20033   0.21652   0.25377   0.26517   0.28788

 Mulliken charges:
               1
     1  C    0.156305
     2  O   -0.347156
     3  C   -0.038030
     4  C   -0.127745
     5  H    0.105699
     6  H    0.082065
     7  H    0.103427
     8  H    0.065434
 Sum of Mulliken charges =   0.00000

 Dipole moment (field-independent basis, Debye):
    X=             -3.5194    Y=              0.6865    Z=              0.1080  Tot=              3.5873
 Quadrupole moment (field-independent basis, Debye-Ang):
   XX=            -27.4738   YY=            -21.7506   ZZ=            -25.1921
   XY=              0.9143   XZ=             -0.0432   YZ=             -0.0737

 Normal termination of Gaussian 09 at Wed Aug 26 20:21:47 2020.
