 Gaussian 09, Revision D.01,
 Gaussian 09:  ES64L-G09RevD.01 24-Apr-2013

 --------------------
 #p B2PLYPD3/Def2QZVP
 --------------------

 --------
 acrolein
 --------
 Symbolic Z-matrix:
 Charge =  0 Multiplicity = 1

                         Standard orientation:
 ---------------------------------------------------------------------
 Center     Atomic      Atomic             Coordinates (Angstroms)
 Number     Number       Type             X           Y           Z
 ---------------------------------------------------------------------
      1          6           0        0.666766    0.335012    0.021604
      2          8           0        1.807823   -0.109381   -0.020891
      3          6           0       -0.595477   -0.476076    0.051058
      4          6           0       -1.750594    0.141327   -0.028969
      5          1           0       -0.436910   -1.510793   -0.068278
      6          1           0       -1.873791    1.302054   -0.001945
      7          1           0       -2.573670   -0.412313   -0.023680
      8          1           0        0.497621    1.494526   -0.001127
 ---------------------------------------------------------------------

 SCF Done:  E(RB2PLYPD3) =  -191.599405431     A.U. after   13 cycles
 E2(B2PLYPD3) =    -0.2481905571D+00 E(B2PLYPD3) =    -0.19184759598765D+03

 The electronic state is 1-A.
 Alpha  occ. eigenvalues --  -19.73126 -10.72534 -10.65142 -10.64384  -1.18710
 Alpha  occ. eigenvalues --   -0.93577  -0.75457  -0.66178  -0.57487  -0.55156
 Alpha  occ. eigenvalues --   -0.50647  -0.47136  -0.46167  -0.35292  -0.33531
 Alpha virt. eigenvalues --   -0.01595   0.05656   0.07132   0.07752   0.09648
 Alpha virt. eigenvalues --    0.12391   0.13605   0.15180   0.17416   0.19262
 Alpha virt. eigenvalues --    0.19920   0.22056   0.25009   0.26688   0.28458

 Mulliken charges:
               1
     1  C    0.164756
     2  O   -0.350634
     3  C   -0.050487
     4  C   -0.116352
     5  H    0.108329
     6  H    0.085711
     7  H    0.104035
     8  H    0.054642
 Sum of Mulliken charges =   0.00000

 Dipole moment (field-independent basis, Debye):
    X=             -3.5534    Y=              0.6167    Z=             -0.0192  Tot=              3.6066
 Quadrupole moment (field-independent basis, Debye-Ang):
   XX=            -27.7044   YY=            -21.7112   ZZ=            -25.2342
   XY=              0.7065   XZ=              0.2044   YZ=              0.1373

 Normal termination of Gaussian 09 at Wed Aug 26 09:03:11 2020.
