 Gaussian 09, Revision D.01,
 Gaussian 09:  ES64L-G09RevD.01 24-Apr-2013

 --------------------
 #p B2PLYPD3/Def2QZVP
 --------------------

 --------
 acrolein
 --------
 Symbolic Z-matrix:
 Charge =  0 Multiplicity = 1

                         Standard orientation:
 ---------------------------------------------------------------------
 Center     Atomic      Atomic             Coordinates (Angstroms)
 Number     Number       Type             X           Y           Z
 ---------------------------------------------------------------------
      1          6           0        0.681399    0.364017    0.007331
      2          8           0        1.785210   -0.135180   -0.018141
      3          6           0       -0.562759   -0.435860    0.014090
      4          6           0       -1.760064    0.131856   -0.008228
      5          1           0       -0.454551   -1.527758    0.049873
      6          1           0       -1.817815    1.211031   -0.056706
      7          1           0       -2.645637   -0.436590   -0.023664
      8          1           0        0.484869    1.474678    0.096470
 ---------------------------------------------------------------------

 SCF Done:  E(RB2PLYPD3) =  -191.615129774     A.U. after   12 cycles
 E2(B2PLYPD3) =    -0.2472981512D+00 E(B2PLYPD3) =    -0.19186242792479D+03

 The electronic state is 1-A.
 Alpha  occ. eigenvalues --  -19.73150 -10.72122 -10.64858 -10.64283  -1.19663
 Alpha  occ. eigenvalues --   -0.93031  -0.75470  -0.66502  -0.56855  -0.56152
 Alpha  occ. eigenvalues --   -0.50954  -0.46945  -0.46479  -0.34772  -0.33963
 Alpha virt. eigenvalues --   -0.01648   0.05829   0.07069   0.08117   0.09811
 Alpha virt. eigenvalues --    0.12602   0.13894   0.15373   0.17346   0.19577
 Alpha virt. eigenvalues --    0.20076   0.21807   0.25499   0.26531   0.28674

 Mulliken charges:
               1
     1  C    0.158659
     2  O   -0.343847
     3  C   -0.037686
     4  C   -0.133288
     5  H    0.100586
     6  H    0.079931
     7  H    0.106550
     8  H    0.069095
 Sum of Mulliken charges =   0.00000

 Dipole moment (field-independent basis, Debye):
    X=             -3.4017    Y=              0.7800    Z=              0.0543  Tot=              3.4904
 Quadrupole moment (field-independent basis, Debye-Ang):
   XX=            -27.4412   YY=            -21.7962   ZZ=            -25.2112
   XY=              1.0587   XZ=              0.2114   YZ=             -0.0759

 Normal termination of Gaussian 09 at Wed Aug 26 19:57:50 2020.
