 Gaussian 09, Revision D.01,
 Gaussian 09:  ES64L-G09RevD.01 24-Apr-2013

 --------------------
 #p B2PLYPD3/Def2QZVP
 --------------------

 --------
 acrolein
 --------
 Symbolic Z-matrix:
 Charge =  0 Multiplicity = 1

                         Standard orientation:
 ---------------------------------------------------------------------
 Center     Atomic      Atomic             Coordinates (Angstroms)
 Number     Number       Type             X           Y           Z
 ---------------------------------------------------------------------
      1          6           0       -0.655062   -0.325498   -0.087613
      2          8           0       -1.786536    0.075876    0.083804
      3          6           0        0.578614    0.480900   -0.067537
      4          6           0        1.753776   -0.157437    0.012180
      5          1           0        0.313159    1.677533   -0.083600
      6          1           0        1.886732   -1.247890    0.084919
      7          1           0        2.626511    0.312795    0.290563
      8          1           0       -0.598084   -1.337236   -0.104489
 ---------------------------------------------------------------------

 SCF Done:  E(RB2PLYPD3) =  -191.588398863     A.U. after   13 cycles
 E2(B2PLYPD3) =    -0.2478715224D+00 E(B2PLYPD3) =    -0.19183627038544D+03

 The electronic state is 1-A.
 Alpha  occ. eigenvalues --  -19.72285 -10.70264 -10.66481 -10.65530  -1.19181
 Alpha  occ. eigenvalues --   -0.92779  -0.76166  -0.67290  -0.57508  -0.55572
 Alpha  occ. eigenvalues --   -0.50357  -0.46593  -0.45508  -0.34691  -0.33515
 Alpha virt. eigenvalues --   -0.01918   0.05689   0.06742   0.07958   0.09526
 Alpha virt. eigenvalues --    0.12671   0.14257   0.15178   0.16895   0.19317
 Alpha virt. eigenvalues --    0.19749   0.22349   0.24514   0.26694   0.28535

 Mulliken charges:
               1
     1  C    0.165760
     2  O   -0.358062
     3  C   -0.041846
     4  C   -0.113234
     5  H    0.098683
     6  H    0.080082
     7  H    0.098591
     8  H    0.070025
 Sum of Mulliken charges =   0.00000

 Dipole moment (field-independent basis, Debye):
    X=              3.5144    Y=             -0.7471    Z=             -0.0828  Tot=              3.5939
 Quadrupole moment (field-independent basis, Debye-Ang):
   XX=            -27.5914   YY=            -21.6050   ZZ=            -25.1738
   XY=              0.2932   XZ=              1.2629   YZ=             -0.0750

 Normal termination of Gaussian 09 at Wed Aug 26 13:07:38 2020.
