 Gaussian 09, Revision D.01,
 Gaussian 09:  ES64L-G09RevD.01 24-Apr-2013

 --------------------
 #p B2PLYPD3/Def2QZVP
 --------------------

 --------
 acrolein
 --------
 Symbolic Z-matrix:
 Charge =  0 Multiplicity = 1

                         Standard orientation:
 ---------------------------------------------------------------------
 Center     Atomic      Atomic             Coordinates (Angstroms)
 Number     Number       Type             X           Y           Z
 ---------------------------------------------------------------------
      1          6           0       -0.687044    0.341296    0.037915
      2          8           0       -1.790741   -0.105672   -0.040840
      3          6           0        0.557922   -0.464621    0.042332
      4          6           0        1.764933    0.139933   -0.032976
      5          1           0        0.466837   -1.544032    0.001317
      6          1           0        1.940983    1.325746   -0.102649
      7          1           0        2.626451   -0.438617    0.016798
      8          1           0       -0.523211    1.402637    0.127630
 ---------------------------------------------------------------------

 SCF Done:  E(RB2PLYPD3) =  -191.605892009     A.U. after   12 cycles
 E2(B2PLYPD3) =    -0.2469902745D+00 E(B2PLYPD3) =    -0.19185288228387D+03

 The electronic state is 1-A.
 Alpha  occ. eigenvalues --  -19.72730 -10.71103 -10.66344 -10.64730  -1.20512
 Alpha  occ. eigenvalues --   -0.92188  -0.75310  -0.66784  -0.56594  -0.55809
 Alpha  occ. eigenvalues --   -0.50896  -0.47147  -0.46336  -0.34411  -0.33690
 Alpha virt. eigenvalues --   -0.01660   0.05538   0.07196   0.08234   0.09538
 Alpha virt. eigenvalues --    0.12314   0.13987   0.15521   0.17713   0.18790
 Alpha virt. eigenvalues --    0.20017   0.21760   0.25215   0.26566   0.28394

 Mulliken charges:
               1
     1  C    0.162568
     2  O   -0.338599
     3  C   -0.057796
     4  C   -0.129327
     5  H    0.104553
     6  H    0.080001
     7  H    0.104728
     8  H    0.073872
 Sum of Mulliken charges =   0.00000

 Dipole moment (field-independent basis, Debye):
    X=              3.4019    Y=              0.6979    Z=              0.1050  Tot=              3.4743
 Quadrupole moment (field-independent basis, Debye-Ang):
   XX=            -27.4336   YY=            -21.6281   ZZ=            -25.3174
   XY=             -0.8015   XZ=             -0.3418   YZ=             -0.0744

 Normal termination of Gaussian 09 at Wed Aug 26 10:30:31 2020.
