 Gaussian 09, Revision D.01,
 Gaussian 09:  ES64L-G09RevD.01 24-Apr-2013

 --------------------
 #p B2PLYPD3/Def2QZVP
 --------------------

 --------
 acrolein
 --------
 Symbolic Z-matrix:
 Charge =  0 Multiplicity = 1

                         Standard orientation:
 ---------------------------------------------------------------------
 Center     Atomic      Atomic             Coordinates (Angstroms)
 Number     Number       Type             X           Y           Z
 ---------------------------------------------------------------------
      1          6           0        0.684569    0.357526   -0.021229
      2          8           0        1.778257   -0.130332    0.019172
      3          6           0       -0.555279   -0.440115   -0.012055
      4          6           0       -1.767405    0.136267    0.005216
      5          1           0       -0.424588   -1.513639   -0.008426
      6          1           0       -1.849762    1.208652    0.079806
      7          1           0       -2.667432   -0.435581   -0.001345
      8          1           0        0.544415    1.461155   -0.055003
 ---------------------------------------------------------------------

 SCF Done:  E(RB2PLYPD3) =  -191.617065824     A.U. after   12 cycles
 E2(B2PLYPD3) =    -0.2465889576D+00 E(B2PLYPD3) =    -0.19186365478154D+03

 The electronic state is 1-A.
 Alpha  occ. eigenvalues --  -19.72833 -10.71510 -10.65265 -10.64384  -1.20347
 Alpha  occ. eigenvalues --   -0.92568  -0.75426  -0.66875  -0.56591  -0.56547
 Alpha  occ. eigenvalues --   -0.50851  -0.47182  -0.46977  -0.34458  -0.33807
 Alpha virt. eigenvalues --   -0.01656   0.05824   0.07272   0.08280   0.09792
 Alpha virt. eigenvalues --    0.12530   0.13982   0.15451   0.17496   0.19655
 Alpha virt. eigenvalues --    0.20031   0.21723   0.25482   0.26389   0.28749

 Mulliken charges:
               1
     1  C    0.157695
     2  O   -0.340922
     3  C   -0.045010
     4  C   -0.134968
     5  H    0.105111
     6  H    0.084536
     7  H    0.104644
     8  H    0.068913
 Sum of Mulliken charges =   0.00000

 Dipole moment (field-independent basis, Debye):
    X=             -3.3626    Y=              0.7770    Z=             -0.0239  Tot=              3.4513
 Quadrupole moment (field-independent basis, Debye-Ang):
   XX=            -27.2709   YY=            -21.7801   ZZ=            -25.2137
   XY=              1.0052   XZ=             -0.2159   YZ=              0.0868

 Normal termination of Gaussian 09 at Wed Aug 26 15:44:37 2020.
