 Gaussian 09, Revision D.01,
 Gaussian 09:  ES64L-G09RevD.01 24-Apr-2013

 --------------------
 #p B2PLYPD3/Def2QZVP
 --------------------

 --------
 acrolein
 --------
 Symbolic Z-matrix:
 Charge =  0 Multiplicity = 1

                         Standard orientation:
 ---------------------------------------------------------------------
 Center     Atomic      Atomic             Coordinates (Angstroms)
 Number     Number       Type             X           Y           Z
 ---------------------------------------------------------------------
      1          6           0       -0.669822    0.343163    0.010913
      2          8           0       -1.796941   -0.102800   -0.010550
      3          6           0        0.571225   -0.455598    0.016613
      4          6           0        1.775610    0.149795   -0.019274
      5          1           0        0.363001   -1.590341    0.025522
      6          1           0        1.815767    1.220177    0.068753
      7          1           0        2.641894   -0.406497   -0.039260
      8          1           0       -0.507214    1.374901   -0.020125
 ---------------------------------------------------------------------

 SCF Done:  E(RB2PLYPD3) =  -191.608196105     A.U. after   13 cycles
 E2(B2PLYPD3) =    -0.2473738820D+00 E(B2PLYPD3) =    -0.19185556998736D+03

 The electronic state is 1-A.
 Alpha  occ. eigenvalues --  -19.72744 -10.70902 -10.65373 -10.65238  -1.19330
 Alpha  occ. eigenvalues --   -0.92757  -0.76294  -0.67104  -0.56869  -0.56426
 Alpha  occ. eigenvalues --   -0.50871  -0.46778  -0.46484  -0.34478  -0.33857
 Alpha virt. eigenvalues --   -0.02012   0.05829   0.07149   0.08131   0.09736
 Alpha virt. eigenvalues --    0.12720   0.13963   0.15325   0.17111   0.19733
 Alpha virt. eigenvalues --    0.20108   0.21930   0.25082   0.26878   0.28682

 Mulliken charges:
               1
     1  C    0.163190
     2  O   -0.354371
     3  C   -0.038712
     4  C   -0.137839
     5  H    0.096504
     6  H    0.088695
     7  H    0.110313
     8  H    0.072220
 Sum of Mulliken charges =   0.00000

 Dipole moment (field-independent basis, Debye):
    X=              3.5080    Y=              0.7753    Z=              0.0749  Tot=              3.5934
 Quadrupole moment (field-independent basis, Debye-Ang):
   XX=            -27.5631   YY=            -21.6944   ZZ=            -25.2268
   XY=             -0.7359   XZ=             -0.0281   YZ=              0.0789

 Normal termination of Gaussian 09 at Wed Aug 26 08:56:27 2020.
