 Gaussian 09, Revision D.01,
 Gaussian 09:  ES64L-G09RevD.01 24-Apr-2013

 --------------------
 #p B2PLYPD3/Def2QZVP
 --------------------

 --------
 acrolein
 --------
 Symbolic Z-matrix:
 Charge =  0 Multiplicity = 1

                         Standard orientation:
 ---------------------------------------------------------------------
 Center     Atomic      Atomic             Coordinates (Angstroms)
 Number     Number       Type             X           Y           Z
 ---------------------------------------------------------------------
      1          6           0       -0.653650   -0.322932    0.006787
      2          8           0       -1.823274    0.090251   -0.025709
      3          6           0        0.592084    0.426116    0.061164
      4          6           0        1.758387   -0.139661   -0.050491
      5          1           0        0.363778    1.576130    0.011861
      6          1           0        1.942422   -1.181284    0.056042
      7          1           0        2.569072    0.430630   -0.042980
      8          1           0       -0.470010   -1.328625    0.075988
 ---------------------------------------------------------------------

 SCF Done:  E(RB2PLYPD3) =  -191.592684399     A.U. after   13 cycles
 E2(B2PLYPD3) =    -0.2478530857D+00 E(B2PLYPD3) =    -0.19184053748467D+03

 The electronic state is 1-A.
 Alpha  occ. eigenvalues --  -19.72922 -10.70871 -10.65066 -10.64392  -1.17634
 Alpha  occ. eigenvalues --   -0.94526  -0.77916  -0.67170  -0.57747  -0.56857
 Alpha  occ. eigenvalues --   -0.50874  -0.46143  -0.45668  -0.35480  -0.33871
 Alpha virt. eigenvalues --   -0.02411   0.05781   0.07037   0.08284   0.09655
 Alpha virt. eigenvalues --    0.12972   0.13831   0.15201   0.17112   0.19694
 Alpha virt. eigenvalues --    0.20004   0.22610   0.24765   0.26860   0.27751

 Mulliken charges:
               1
     1  C    0.167920
     2  O   -0.369363
     3  C   -0.029210
     4  C   -0.117366
     5  H    0.087602
     6  H    0.085636
     7  H    0.103725
     8  H    0.071056
 Sum of Mulliken charges =   0.00000

 Dipole moment (field-independent basis, Debye):
    X=              3.8025    Y=             -0.7644    Z=              0.1172  Tot=              3.8803
 Quadrupole moment (field-independent basis, Debye-Ang):
   XX=            -27.5674   YY=            -21.9065   ZZ=            -24.9850
   XY=              0.3911   XZ=             -0.1429   YZ=             -0.1485

 Normal termination of Gaussian 09 at Wed Aug 26 10:53:30 2020.
