 Gaussian 09, Revision D.01,
 Gaussian 09:  ES64L-G09RevD.01 24-Apr-2013

 --------------------
 #p B2PLYPD3/Def2QZVP
 --------------------

 --------
 acrolein
 --------
 Symbolic Z-matrix:
 Charge =  0 Multiplicity = 1

                         Standard orientation:
 ---------------------------------------------------------------------
 Center     Atomic      Atomic             Coordinates (Angstroms)
 Number     Number       Type             X           Y           Z
 ---------------------------------------------------------------------
      1          6           0        0.691903    0.353412    0.015542
      2          8           0        1.794030   -0.155324   -0.050207
      3          6           0       -0.546275   -0.404046    0.094935
      4          6           0       -1.738146    0.121961   -0.061522
      5          1           0       -0.549239   -1.373717    0.103073
      6          1           0       -1.835032    1.205852    0.067044
      7          1           0       -2.837545   -0.536661   -0.162976
      8          1           0        0.424688    1.519156    0.100786
 ---------------------------------------------------------------------

 SCF Done:  E(RB2PLYPD3) =  -191.572455997     A.U. after   13 cycles
 E2(B2PLYPD3) =    -0.2493569350D+00 E(B2PLYPD3) =    -0.19182181293175D+03

 The electronic state is 1-A.
 Alpha  occ. eigenvalues --  -19.73657 -10.73068 -10.67182 -10.62760  -1.19791
 Alpha  occ. eigenvalues --   -0.94053  -0.74558  -0.67687  -0.55954  -0.55575
 Alpha  occ. eigenvalues --   -0.50146  -0.47258  -0.45413  -0.35149  -0.34098
 Alpha virt. eigenvalues --   -0.02031   0.04794   0.06827   0.08220   0.09630
 Alpha virt. eigenvalues --    0.11859   0.13295   0.15181   0.18322   0.19639
 Alpha virt. eigenvalues --    0.19742   0.20502   0.24350   0.25974   0.28039

 Mulliken charges:
               1
     1  C    0.160352
     2  O   -0.338996
     3  C   -0.023286
     4  C   -0.118267
     5  H    0.105414
     6  H    0.077458
     7  H    0.087248
     8  H    0.050076
 Sum of Mulliken charges =   0.00000

 Dipole moment (field-independent basis, Debye):
    X=             -3.4467    Y=              0.6932    Z=              0.1682  Tot=              3.5197
 Quadrupole moment (field-independent basis, Debye-Ang):
   XX=            -27.2199   YY=            -22.3337   ZZ=            -25.2581
   XY=              1.2233   XZ=              0.4527   YZ=              0.1547

 Normal termination of Gaussian 09 at Wed Aug 26 12:50:00 2020.
