 Gaussian 09, Revision D.01,
 Gaussian 09:  ES64L-G09RevD.01 24-Apr-2013

 --------------------
 #p B2PLYPD3/Def2QZVP
 --------------------

 --------
 acrolein
 --------
 Symbolic Z-matrix:
 Charge =  0 Multiplicity = 1

                         Standard orientation:
 ---------------------------------------------------------------------
 Center     Atomic      Atomic             Coordinates (Angstroms)
 Number     Number       Type             X           Y           Z
 ---------------------------------------------------------------------
      1          6           0       -0.670323    0.315725    0.052952
      2          8           0       -1.799359   -0.096934   -0.034724
      3          6           0        0.577970   -0.466716    0.006739
      4          6           0        1.753172    0.155769   -0.019158
      5          1           0        0.453726   -1.562773    0.035040
      6          1           0        1.853835    1.237340   -0.092565
      7          1           0        2.633830   -0.375788    0.029914
      8          1           0       -0.511431    1.448035    0.062204
 ---------------------------------------------------------------------

 SCF Done:  E(RB2PLYPD3) =  -191.612560422     A.U. after   13 cycles
 E2(B2PLYPD3) =    -0.2470672454D+00 E(B2PLYPD3) =    -0.19185962766720D+03

 The electronic state is 1-A.
 Alpha  occ. eigenvalues --  -19.72894 -10.71782 -10.65133 -10.64856  -1.19822
 Alpha  occ. eigenvalues --   -0.93214  -0.75776  -0.66195  -0.57046  -0.56236
 Alpha  occ. eigenvalues --   -0.50721  -0.47216  -0.46900  -0.34915  -0.33512
 Alpha virt. eigenvalues --   -0.01793   0.05849   0.07055   0.08291   0.09692
 Alpha virt. eigenvalues --    0.12691   0.14142   0.15308   0.17155   0.19766
 Alpha virt. eigenvalues --    0.20042   0.21894   0.25245   0.26409   0.28564

 Mulliken charges:
               1
     1  C    0.161274
     2  O   -0.341387
     3  C   -0.035395
     4  C   -0.125615
     5  H    0.098654
     6  H    0.088774
     7  H    0.103874
     8  H    0.049821
 Sum of Mulliken charges =   0.00000

 Dipole moment (field-independent basis, Debye):
    X=              3.5400    Y=              0.5973    Z=              0.1322  Tot=              3.5925
 Quadrupole moment (field-independent basis, Debye-Ang):
   XX=            -27.3343   YY=            -21.8704   ZZ=            -25.1895
   XY=             -0.6246   XZ=             -0.2145   YZ=             -0.1780

 Normal termination of Gaussian 09 at Wed Aug 26 09:47:32 2020.
