 Gaussian 09, Revision D.01,
 Gaussian 09:  ES64L-G09RevD.01 24-Apr-2013

 --------------------
 #p B2PLYPD3/Def2QZVP
 --------------------

 --------
 acrolein
 --------
 Symbolic Z-matrix:
 Charge =  0 Multiplicity = 1

                         Standard orientation:
 ---------------------------------------------------------------------
 Center     Atomic      Atomic             Coordinates (Angstroms)
 Number     Number       Type             X           Y           Z
 ---------------------------------------------------------------------
      1          6           0        0.658987    0.329557    0.014560
      2          8           0        1.794337   -0.108962   -0.019381
      3          6           0       -0.570843   -0.453244    0.010706
      4          6           0       -1.745601    0.155868   -0.023191
      5          1           0       -0.456940   -1.532043    0.049564
      6          1           0       -1.801156    1.208922   -0.040118
      7          1           0       -2.653768   -0.416972    0.032332
      8          1           0        0.501901    1.418700    0.100819
 ---------------------------------------------------------------------

 SCF Done:  E(RB2PLYPD3) =  -191.615952350     A.U. after   12 cycles
 E2(B2PLYPD3) =    -0.2470841688D+00 E(B2PLYPD3) =    -0.19186303651907D+03

 The electronic state is 1-A.
 Alpha  occ. eigenvalues --  -19.72733 -10.71423 -10.65141 -10.64316  -1.19001
 Alpha  occ. eigenvalues --   -0.93702  -0.75854  -0.67131  -0.56866  -0.56503
 Alpha  occ. eigenvalues --   -0.50447  -0.47420  -0.46506  -0.34945  -0.33762
 Alpha virt. eigenvalues --   -0.01860   0.05819   0.07054   0.08318   0.09773
 Alpha virt. eigenvalues --    0.12753   0.13983   0.15277   0.17389   0.19694
 Alpha virt. eigenvalues --    0.20204   0.21711   0.25404   0.26575   0.28775

 Mulliken charges:
               1
     1  C    0.152135
     2  O   -0.353707
     3  C   -0.027006
     4  C   -0.130897
     5  H    0.102067
     6  H    0.089883
     7  H    0.103103
     8  H    0.064422
 Sum of Mulliken charges =   0.00000

 Dipole moment (field-independent basis, Debye):
    X=             -3.5959    Y=              0.6926    Z=              0.1310  Tot=              3.6643
 Quadrupole moment (field-independent basis, Debye-Ang):
   XX=            -27.5653   YY=            -21.7539   ZZ=            -25.1224
   XY=              0.8493   XZ=              0.0560   YZ=             -0.0969

 Normal termination of Gaussian 09 at Wed Aug 26 16:28:41 2020.
