 Gaussian 09, Revision D.01,
 Gaussian 09:  ES64L-G09RevD.01 24-Apr-2013

 --------------------
 #p B2PLYPD3/Def2QZVP
 --------------------

 --------
 acrolein
 --------
 Symbolic Z-matrix:
 Charge =  0 Multiplicity = 1

                         Standard orientation:
 ---------------------------------------------------------------------
 Center     Atomic      Atomic             Coordinates (Angstroms)
 Number     Number       Type             X           Y           Z
 ---------------------------------------------------------------------
      1          6           0        0.667460    0.340657    0.023864
      2          8           0        1.787792   -0.108070   -0.014465
      3          6           0       -0.559747   -0.464849   -0.014899
      4          6           0       -1.738147    0.155505   -0.017580
      5          1           0       -0.517169   -1.537619    0.081320
      6          1           0       -1.864141    1.244319   -0.008199
      7          1           0       -2.653682   -0.399674    0.045402
      8          1           0        0.515261    1.369655    0.048881
 ---------------------------------------------------------------------

 SCF Done:  E(RB2PLYPD3) =  -191.613653541     A.U. after   12 cycles
 E2(B2PLYPD3) =    -0.2463893009D+00 E(B2PLYPD3) =    -0.19186004284204D+03

 The electronic state is 1-A.
 Alpha  occ. eigenvalues --  -19.72508 -10.70763 -10.65376 -10.64271  -1.19519
 Alpha  occ. eigenvalues --   -0.93147  -0.75655  -0.67884  -0.57101  -0.56311
 Alpha  occ. eigenvalues --   -0.50538  -0.47075  -0.46590  -0.34673  -0.33841
 Alpha virt. eigenvalues --   -0.01580   0.05750   0.07194   0.08154   0.09615
 Alpha virt. eigenvalues --    0.12749   0.14355   0.15286   0.17743   0.19771
 Alpha virt. eigenvalues --    0.19996   0.21542   0.25322   0.26647   0.28594

 Mulliken charges:
               1
     1  C    0.150626
     2  O   -0.349038
     3  C   -0.038921
     4  C   -0.128012
     5  H    0.103748
     6  H    0.082682
     7  H    0.095807
     8  H    0.083108
 Sum of Mulliken charges =   0.00000

 Dipole moment (field-independent basis, Debye):
    X=             -3.5289    Y=              0.7814    Z=              0.1879  Tot=              3.6193
 Quadrupole moment (field-independent basis, Debye-Ang):
   XX=            -27.5417   YY=            -21.5799   ZZ=            -25.1125
   XY=              0.8694   XZ=             -0.0884   YZ=             -0.1438

 Normal termination of Gaussian 09 at Wed Aug 26 08:35:50 2020.
