 Gaussian 09, Revision D.01,
 Gaussian 09:  ES64L-G09RevD.01 24-Apr-2013

 --------------------
 #p B2PLYPD3/Def2QZVP
 --------------------

 --------
 acrolein
 --------
 Symbolic Z-matrix:
 Charge =  0 Multiplicity = 1

                         Standard orientation:
 ---------------------------------------------------------------------
 Center     Atomic      Atomic             Coordinates (Angstroms)
 Number     Number       Type             X           Y           Z
 ---------------------------------------------------------------------
      1          6           0       -0.662516   -0.345737    0.029131
      2          8           0       -1.793808    0.101503   -0.020474
      3          6           0        0.574916    0.469482    0.006896
      4          6           0        1.752530   -0.152218   -0.019860
      5          1           0        0.417661    1.623604    0.005332
      6          1           0        1.835626   -1.252898   -0.080607
      7          1           0        2.618350    0.373368    0.072012
      8          1           0       -0.510753   -1.385255    0.070056
 ---------------------------------------------------------------------

 SCF Done:  E(RB2PLYPD3) =  -191.606728958     A.U. after   13 cycles
 E2(B2PLYPD3) =    -0.2473892118D+00 E(B2PLYPD3) =    -0.19185411816987D+03

 The electronic state is 1-A.
 Alpha  occ. eigenvalues --  -19.72660 -10.71087 -10.65350 -10.65023  -1.18961
 Alpha  occ. eigenvalues --   -0.92971  -0.75963  -0.66907  -0.56781  -0.56306
 Alpha  occ. eigenvalues --   -0.50624  -0.46554  -0.46297  -0.34707  -0.33782
 Alpha virt. eigenvalues --   -0.01731   0.05770   0.06952   0.07979   0.09671
 Alpha virt. eigenvalues --    0.12644   0.14225   0.15366   0.16999   0.19552
 Alpha virt. eigenvalues --    0.20071   0.22049   0.25257   0.26662   0.28727

 Mulliken charges:
               1
     1  C    0.159054
     2  O   -0.354680
     3  C   -0.042076
     4  C   -0.129494
     5  H    0.098658
     6  H    0.083605
     7  H    0.105999
     8  H    0.078934
 Sum of Mulliken charges =   0.00000

 Dipole moment (field-independent basis, Debye):
    X=              3.5287    Y=             -0.7771    Z=              0.1052  Tot=              3.6148
 Quadrupole moment (field-independent basis, Debye-Ang):
   XX=            -27.6939   YY=            -21.5137   ZZ=            -25.2222
   XY=              0.7118   XZ=             -0.0473   YZ=              0.1098

 Normal termination of Gaussian 09 at Wed Aug 26 09:13:16 2020.
