 Gaussian 09, Revision D.01,
 Gaussian 09:  ES64L-G09RevD.01 24-Apr-2013

 --------------------
 #p B2PLYPD3/Def2QZVP
 --------------------

 --------
 acrolein
 --------
 Symbolic Z-matrix:
 Charge =  0 Multiplicity = 1

                         Standard orientation:
 ---------------------------------------------------------------------
 Center     Atomic      Atomic             Coordinates (Angstroms)
 Number     Number       Type             X           Y           Z
 ---------------------------------------------------------------------
      1          6           0        0.653864    0.321554   -0.025225
      2          8           0        1.794050   -0.103676    0.036999
      3          6           0       -0.559447   -0.457024   -0.044266
      4          6           0       -1.748525    0.146457    0.010827
      5          1           0       -0.417894   -1.525764   -0.070917
      6          1           0       -1.809648    1.240066   -0.016109
      7          1           0       -2.701530   -0.408821    0.186568
      8          1           0        0.501328    1.458001   -0.043551
 ---------------------------------------------------------------------

 SCF Done:  E(RB2PLYPD3) =  -191.612285641     A.U. after   13 cycles
 E2(B2PLYPD3) =    -0.2482170848D+00 E(B2PLYPD3) =    -0.19186050272572D+03

 The electronic state is 1-A.
 Alpha  occ. eigenvalues --  -19.72722 -10.71706 -10.66456 -10.64579  -1.18968
 Alpha  occ. eigenvalues --   -0.93536  -0.75577  -0.66499  -0.56480  -0.56058
 Alpha  occ. eigenvalues --   -0.50150  -0.47259  -0.46418  -0.34807  -0.33640
 Alpha virt. eigenvalues --   -0.02215   0.05619   0.06958   0.08360   0.09721
 Alpha virt. eigenvalues --    0.12398   0.13854   0.15235   0.17365   0.19652
 Alpha virt. eigenvalues --    0.19945   0.21428   0.25184   0.26454   0.28914

 Mulliken charges:
               1
     1  C    0.157483
     2  O   -0.353994
     3  C   -0.025801
     4  C   -0.123566
     5  H    0.104930
     6  H    0.088386
     7  H    0.103068
     8  H    0.049495
 Sum of Mulliken charges =   0.00000

 Dipole moment (field-independent basis, Debye):
    X=             -3.6652    Y=              0.6128    Z=             -0.0384  Tot=              3.7163
 Quadrupole moment (field-independent basis, Debye-Ang):
   XX=            -27.4243   YY=            -21.9342   ZZ=            -25.2314
   XY=              0.7385   XZ=             -0.5920   YZ=             -0.0452

 Normal termination of Gaussian 09 at Wed Aug 26 09:17:36 2020.
