 Gaussian 09, Revision D.01,
 Gaussian 09:  ES64L-G09RevD.01 24-Apr-2013

 --------------------
 #p B2PLYPD3/Def2QZVP
 --------------------

 --------
 acrolein
 --------
 Symbolic Z-matrix:
 Charge =  0 Multiplicity = 1

                         Standard orientation:
 ---------------------------------------------------------------------
 Center     Atomic      Atomic             Coordinates (Angstroms)
 Number     Number       Type             X           Y           Z
 ---------------------------------------------------------------------
      1          6           0        0.673612    0.369890    0.038267
      2          8           0        1.798774   -0.127475   -0.036156
      3          6           0       -0.558454   -0.450618    0.019571
      4          6           0       -1.751052    0.128723   -0.032632
      5          1           0       -0.474985   -1.542451    0.106643
      6          1           0       -1.917669    1.265205    0.000559
      7          1           0       -2.663420   -0.441995   -0.039834
      8          1           0        0.481241    1.451071    0.070636
 ---------------------------------------------------------------------

 SCF Done:  E(RB2PLYPD3) =  -191.610717385     A.U. after   12 cycles
 E2(B2PLYPD3) =    -0.2485927044D+00 E(B2PLYPD3) =    -0.19185931008976D+03

 The electronic state is 1-A.
 Alpha  occ. eigenvalues --  -19.73019 -10.72102 -10.65908 -10.64653  -1.18322
 Alpha  occ. eigenvalues --   -0.92858  -0.75331  -0.66693  -0.56431  -0.55744
 Alpha  occ. eigenvalues --   -0.50487  -0.46399  -0.45688  -0.34691  -0.34064
 Alpha virt. eigenvalues --   -0.01885   0.05546   0.06939   0.07831   0.09561
 Alpha virt. eigenvalues --    0.12367   0.14016   0.15275   0.17537   0.19444
 Alpha virt. eigenvalues --    0.19962   0.21553   0.25354   0.26530   0.28477

 Mulliken charges:
               1
     1  C    0.160188
     2  O   -0.355793
     3  C   -0.044835
     4  C   -0.124896
     5  H    0.105323
     6  H    0.075585
     7  H    0.099574
     8  H    0.084854
 Sum of Mulliken charges =   0.00000

 Dipole moment (field-independent basis, Debye):
    X=             -3.5545    Y=              0.8272    Z=              0.2158  Tot=              3.6558
 Quadrupole moment (field-independent basis, Debye-Ang):
   XX=            -27.6508   YY=            -21.6016   ZZ=            -25.3333
   XY=              0.9257   XZ=              0.1985   YZ=             -0.0819

 Normal termination of Gaussian 09 at Wed Aug 26 09:36:33 2020.
