 Gaussian 09, Revision D.01,
 Gaussian 09:  ES64L-G09RevD.01 24-Apr-2013

 --------------------
 #p B2PLYPD3/Def2QZVP
 --------------------

 --------
 acrolein
 --------
 Symbolic Z-matrix:
 Charge =  0 Multiplicity = 1

                         Standard orientation:
 ---------------------------------------------------------------------
 Center     Atomic      Atomic             Coordinates (Angstroms)
 Number     Number       Type             X           Y           Z
 ---------------------------------------------------------------------
      1          6           0        0.668467    0.362420    0.035274
      2          8           0        1.797122   -0.130910   -0.033199
      3          6           0       -0.564998   -0.423114    0.028388
      4          6           0       -1.757385    0.139491   -0.035199
      5          1           0       -0.424709   -1.577239    0.013068
      6          1           0       -1.785893    1.188505   -0.110752
      7          1           0       -2.720088   -0.456008    0.069808
      8          1           0        0.477211    1.419240    0.122692
 ---------------------------------------------------------------------

 SCF Done:  E(RB2PLYPD3) =  -191.605957914     A.U. after   13 cycles
 E2(B2PLYPD3) =    -0.2486739893D+00 E(B2PLYPD3) =    -0.19185463190313D+03

 The electronic state is 1-A.
 Alpha  occ. eigenvalues --  -19.73072 -10.71791 -10.65639 -10.64866  -1.18280
 Alpha  occ. eigenvalues --   -0.93442  -0.75842  -0.66648  -0.56588  -0.55889
 Alpha  occ. eigenvalues --   -0.50433  -0.46184  -0.45686  -0.34879  -0.34139
 Alpha virt. eigenvalues --   -0.02188   0.05627   0.06738   0.08063   0.09796
 Alpha virt. eigenvalues --    0.12489   0.13753   0.15357   0.17081   0.19341
 Alpha virt. eigenvalues --    0.20134   0.21522   0.25475   0.26665   0.28931

 Mulliken charges:
               1
     1  C    0.155319
     2  O   -0.358865
     3  C   -0.028373
     4  C   -0.131936
     5  H    0.095392
     6  H    0.082531
     7  H    0.107816
     8  H    0.078117
 Sum of Mulliken charges =   0.00000

 Dipole moment (field-independent basis, Debye):
    X=             -3.5615    Y=              0.8675    Z=              0.1367  Tot=              3.6682
 Quadrupole moment (field-independent basis, Debye-Ang):
   XX=            -27.6401   YY=            -21.7913   ZZ=            -25.2718
   XY=              1.0454   XZ=              0.1432   YZ=             -0.1129

 Normal termination of Gaussian 09 at Wed Aug 26 09:11:17 2020.
