 Gaussian 09, Revision D.01,
 Gaussian 09:  ES64L-G09RevD.01 24-Apr-2013

 --------------------
 #p B2PLYPD3/Def2QZVP
 --------------------

 --------
 acrolein
 --------
 Symbolic Z-matrix:
 Charge =  0 Multiplicity = 1

                         Standard orientation:
 ---------------------------------------------------------------------
 Center     Atomic      Atomic             Coordinates (Angstroms)
 Number     Number       Type             X           Y           Z
 ---------------------------------------------------------------------
      1          6           0       -0.663966    0.334118   -0.013572
      2          8           0       -1.799363   -0.107413    0.016551
      3          6           0        0.575949   -0.456915   -0.017922
      4          6           0        1.749857    0.154793    0.015162
      5          1           0        0.457522   -1.518446   -0.040814
      6          1           0        1.844328    1.196432   -0.025845
      7          1           0        2.624032   -0.408376    0.054206
      8          1           0       -0.502014    1.397723   -0.021963
 ---------------------------------------------------------------------

 SCF Done:  E(RB2PLYPD3) =  -191.614559433     A.U. after   12 cycles
 E2(B2PLYPD3) =    -0.2466108271D+00 E(B2PLYPD3) =    -0.19186117025975D+03

 The electronic state is 1-A.
 Alpha  occ. eigenvalues --  -19.72719 -10.71228 -10.64632 -10.64202  -1.18904
 Alpha  occ. eigenvalues --   -0.93631  -0.76187  -0.67721  -0.57078  -0.56768
 Alpha  occ. eigenvalues --   -0.50640  -0.47781  -0.46401  -0.34885  -0.33763
 Alpha virt. eigenvalues --   -0.01776   0.05843   0.07322   0.08210   0.09744
 Alpha virt. eigenvalues --    0.12862   0.14089   0.15297   0.17512   0.19973
 Alpha virt. eigenvalues --    0.20069   0.21915   0.25410   0.26621   0.28514

 Mulliken charges:
               1
     1  C    0.152453
     2  O   -0.355849
     3  C   -0.032091
     4  C   -0.132381
     5  H    0.104198
     6  H    0.090118
     7  H    0.101111
     8  H    0.072441
 Sum of Mulliken charges =   0.00000

 Dipole moment (field-independent basis, Debye):
    X=              3.5973    Y=              0.7329    Z=             -0.0726  Tot=              3.6719
 Quadrupole moment (field-independent basis, Debye-Ang):
   XX=            -27.5643   YY=            -21.6810   ZZ=            -25.0538
   XY=             -0.7709   XZ=              0.1499   YZ=             -0.0199

 Normal termination of Gaussian 09 at Wed Aug 26 18:53:18 2020.
