 Gaussian 09, Revision D.01,
 Gaussian 09:  ES64L-G09RevD.01 24-Apr-2013

 --------------------
 #p B2PLYPD3/Def2QZVP
 --------------------

 --------
 acrolein
 --------
 Symbolic Z-matrix:
 Charge =  0 Multiplicity = 1

                         Standard orientation:
 ---------------------------------------------------------------------
 Center     Atomic      Atomic             Coordinates (Angstroms)
 Number     Number       Type             X           Y           Z
 ---------------------------------------------------------------------
      1          6           0        0.680908    0.370935    0.033606
      2          8           0        1.783932   -0.139925   -0.021829
      3          6           0       -0.582325   -0.444040    0.034120
      4          6           0       -1.742090    0.136286   -0.025225
      5          1           0       -0.452911   -1.509176   -0.023833
      6          1           0       -1.828081    1.172704    0.028894
      7          1           0       -2.631034   -0.406920   -0.036602
      8          1           0        0.501607    1.483698   -0.048828
 ---------------------------------------------------------------------

 SCF Done:  E(RB2PLYPD3) =  -191.612028839     A.U. after   13 cycles
 E2(B2PLYPD3) =    -0.2466329686D+00 E(B2PLYPD3) =    -0.19185866180755D+03

 The electronic state is 1-A.
 Alpha  occ. eigenvalues --  -19.73200 -10.72287 -10.63888 -10.63650  -1.19357
 Alpha  occ. eigenvalues --   -0.93552  -0.75251  -0.67092  -0.56992  -0.56547
 Alpha  occ. eigenvalues --   -0.51040  -0.46969  -0.46582  -0.35213  -0.33820
 Alpha virt. eigenvalues --   -0.01204   0.05900   0.07266   0.07838   0.09855
 Alpha virt. eigenvalues --    0.12742   0.13966   0.15314   0.17407   0.19767
 Alpha virt. eigenvalues --    0.20214   0.22019   0.25358   0.26741   0.28491

 Mulliken charges:
               1
     1  C    0.157582
     2  O   -0.346110
     3  C   -0.043203
     4  C   -0.126619
     5  H    0.106502
     6  H    0.080175
     7  H    0.098080
     8  H    0.073593
 Sum of Mulliken charges =   0.00000

 Dipole moment (field-independent basis, Debye):
    X=             -3.3563    Y=              0.8318    Z=              0.0419  Tot=              3.4581
 Quadrupole moment (field-independent basis, Debye-Ang):
   XX=            -27.4837   YY=            -21.7186   ZZ=            -25.0657
   XY=              0.9779   XZ=              0.1501   YZ=              0.0870

 Normal termination of Gaussian 09 at Wed Aug 26 08:35:44 2020.
