 Gaussian 09, Revision D.01,
 Gaussian 09:  ES64L-G09RevD.01 24-Apr-2013

 --------------------
 #p B2PLYPD3/Def2QZVP
 --------------------

 --------
 acrolein
 --------
 Symbolic Z-matrix:
 Charge =  0 Multiplicity = 1

                         Standard orientation:
 ---------------------------------------------------------------------
 Center     Atomic      Atomic             Coordinates (Angstroms)
 Number     Number       Type             X           Y           Z
 ---------------------------------------------------------------------
      1          6           0       -0.645971    0.354731   -0.061330
      2          8           0       -1.786052   -0.137112    0.039558
      3          6           0        0.550520   -0.456054   -0.046284
      4          6           0        1.730993    0.158274    0.025017
      5          1           0        0.446834   -1.530951    0.020820
      6          1           0        1.700459    1.157851   -0.020479
      7          1           0        2.867309   -0.410311    0.100546
      8          1           0       -0.539436    1.538591    0.078227
 ---------------------------------------------------------------------

 SCF Done:  E(RB2PLYPD3) =  -191.581292740     A.U. after   13 cycles
 E2(B2PLYPD3) =    -0.2507784705D+00 E(B2PLYPD3) =    -0.19183207121043D+03

 The electronic state is 1-A.
 Alpha  occ. eigenvalues --  -19.72860 -10.72812 -10.66681 -10.64796  -1.17594
 Alpha  occ. eigenvalues --   -0.93861  -0.74759  -0.66843  -0.56441  -0.54876
 Alpha  occ. eigenvalues --   -0.49103  -0.46398  -0.46024  -0.34797  -0.33793
 Alpha virt. eigenvalues --   -0.02342   0.05093   0.06300   0.07539   0.09673
 Alpha virt. eigenvalues --    0.11824   0.13835   0.15119   0.17160   0.19626
 Alpha virt. eigenvalues --    0.20379   0.20896   0.24607   0.26143   0.29071

 Mulliken charges:
               1
     1  C    0.150230
     2  O   -0.362458
     3  C   -0.026755
     4  C   -0.127555
     5  H    0.115271
     6  H    0.095048
     7  H    0.095529
     8  H    0.060690
 Sum of Mulliken charges =   0.00000

 Dipole moment (field-independent basis, Debye):
    X=              3.6410    Y=              0.7625    Z=             -0.0409  Tot=              3.7202
 Quadrupole moment (field-independent basis, Debye-Ang):
   XX=            -27.5608   YY=            -21.8323   ZZ=            -25.4326
   XY=             -1.1668   XZ=              0.3787   YZ=             -0.0664

 Normal termination of Gaussian 09 at Wed Aug 26 13:12:37 2020.
