 Gaussian 09, Revision D.01,
 Gaussian 09:  ES64L-G09RevD.01 24-Apr-2013

 --------------------
 #p B2PLYPD3/Def2QZVP
 --------------------

 --------
 acrolein
 --------
 Symbolic Z-matrix:
 Charge =  0 Multiplicity = 1

                         Standard orientation:
 ---------------------------------------------------------------------
 Center     Atomic      Atomic             Coordinates (Angstroms)
 Number     Number       Type             X           Y           Z
 ---------------------------------------------------------------------
      1          6           0       -0.670202    0.336624    0.004792
      2          8           0       -1.785787   -0.115377   -0.009585
      3          6           0        0.565652   -0.454316    0.005495
      4          6           0        1.757468    0.151418   -0.013837
      5          1           0        0.447346   -1.497742    0.032798
      6          1           0        1.814920    1.224382   -0.013796
      7          1           0        2.666843   -0.416658    0.019901
      8          1           0       -0.560317    1.410672    0.059072
 ---------------------------------------------------------------------

 SCF Done:  E(RB2PLYPD3) =  -191.616423518     A.U. after   12 cycles
 E2(B2PLYPD3) =    -0.2462836831D+00 E(B2PLYPD3) =    -0.19186270720143D+03

 The electronic state is 1-A.
 Alpha  occ. eigenvalues --  -19.72559 -10.71003 -10.65370 -10.64107  -1.19812
 Alpha  occ. eigenvalues --   -0.93096  -0.75570  -0.67664  -0.57014  -0.56469
 Alpha  occ. eigenvalues --   -0.50625  -0.47616  -0.46853  -0.34649  -0.33689
 Alpha virt. eigenvalues --   -0.01682   0.05818   0.07346   0.08352   0.09758
 Alpha virt. eigenvalues --    0.12631   0.14024   0.15372   0.17707   0.19706
 Alpha virt. eigenvalues --    0.20042   0.21622   0.25460   0.26447   0.28950

 Mulliken charges:
               1
     1  C    0.152303
     2  O   -0.347884
     3  C   -0.039650
     4  C   -0.133204
     5  H    0.107444
     6  H    0.088459
     7  H    0.102978
     8  H    0.069553
 Sum of Mulliken charges =   0.00000

 Dipole moment (field-independent basis, Debye):
    X=              3.4784    Y=              0.7329    Z=              0.0822  Tot=              3.5557
 Quadrupole moment (field-independent basis, Debye-Ang):
   XX=            -27.4164   YY=            -21.7170   ZZ=            -25.1255
   XY=             -0.9729   XZ=             -0.0074   YZ=             -0.0508

 Normal termination of Gaussian 09 at Wed Aug 26 15:43:00 2020.
