 Gaussian 09, Revision D.01,
 Gaussian 09:  ES64L-G09RevD.01 24-Apr-2013

 --------------------
 #p B2PLYPD3/Def2QZVP
 --------------------

 --------
 acrolein
 --------
 Symbolic Z-matrix:
 Charge =  0 Multiplicity = 1

                         Standard orientation:
 ---------------------------------------------------------------------
 Center     Atomic      Atomic             Coordinates (Angstroms)
 Number     Number       Type             X           Y           Z
 ---------------------------------------------------------------------
      1          6           0       -0.664438    0.340101   -0.008352
      2          8           0       -1.798289   -0.109875    0.021617
      3          6           0        0.561469   -0.456792   -0.033673
      4          6           0        1.756907    0.140308    0.009848
      5          1           0        0.436135   -1.522481   -0.030236
      6          1           0        1.852638    1.258945    0.008192
      7          1           0        2.656603   -0.430129    0.097375
      8          1           0       -0.482698    1.430957   -0.055207
 ---------------------------------------------------------------------

 SCF Done:  E(RB2PLYPD3) =  -191.614805113     A.U. after   13 cycles
 E2(B2PLYPD3) =    -0.2478601005D+00 E(B2PLYPD3) =    -0.19186266521352D+03

 The electronic state is 1-A.
 Alpha  occ. eigenvalues --  -19.72816 -10.71601 -10.66016 -10.64459  -1.18891
 Alpha  occ. eigenvalues --   -0.93139  -0.75665  -0.66925  -0.56620  -0.55999
 Alpha  occ. eigenvalues --   -0.50502  -0.47030  -0.46429  -0.34701  -0.33831
 Alpha virt. eigenvalues --   -0.02033   0.05647   0.07144   0.08153   0.09698
 Alpha virt. eigenvalues --    0.12520   0.13892   0.15309   0.17531   0.19531
 Alpha virt. eigenvalues --    0.19942   0.21630   0.25305   0.26548   0.28675

 Mulliken charges:
               1
     1  C    0.159134
     2  O   -0.355175
     3  C   -0.037382
     4  C   -0.128360
     5  H    0.105914
     6  H    0.084380
     7  H    0.104346
     8  H    0.067142
 Sum of Mulliken charges =   0.00000

 Dipole moment (field-independent basis, Debye):
    X=              3.6056    Y=              0.6992    Z=             -0.0104  Tot=              3.6728
 Quadrupole moment (field-independent basis, Debye-Ang):
   XX=            -27.5598   YY=            -21.7385   ZZ=            -25.2464
   XY=             -0.8030   XZ=              0.3579   YZ=             -0.0422

 Normal termination of Gaussian 09 at Wed Aug 26 16:27:08 2020.
