 Gaussian 09, Revision D.01,
 Gaussian 09:  ES64L-G09RevD.01 24-Apr-2013

 --------------------
 #p B2PLYPD3/Def2QZVP
 --------------------

 --------
 acrolein
 --------
 Symbolic Z-matrix:
 Charge =  0 Multiplicity = 1

                         Standard orientation:
 ---------------------------------------------------------------------
 Center     Atomic      Atomic             Coordinates (Angstroms)
 Number     Number       Type             X           Y           Z
 ---------------------------------------------------------------------
      1          6           0        0.673007    0.356429   -0.019252
      2          8           0        1.770872   -0.128684    0.024206
      3          6           0       -0.552118   -0.448168   -0.020983
      4          6           0       -1.744246    0.160795    0.000070
      5          1           0       -0.436306   -1.542968   -0.069186
      6          1           0       -1.784701    1.152708   -0.027782
      7          1           0       -2.788943   -0.409157    0.147648
      8          1           0        0.583117    1.414545   -0.003335
 ---------------------------------------------------------------------

 SCF Done:  E(RB2PLYPD3) =  -191.600918912     A.U. after   12 cycles
 E2(B2PLYPD3) =    -0.2466970448D+00 E(B2PLYPD3) =    -0.19184761595690D+03

 The electronic state is 1-A.
 Alpha  occ. eigenvalues --  -19.72473 -10.70895 -10.65632 -10.64611  -1.20033
 Alpha  occ. eigenvalues --   -0.92934  -0.75135  -0.67959  -0.57799  -0.55289
 Alpha  occ. eigenvalues --   -0.50111  -0.47234  -0.46513  -0.34494  -0.33778
 Alpha virt. eigenvalues --   -0.01584   0.05579   0.07107   0.08144   0.09704
 Alpha virt. eigenvalues --    0.12327   0.14199   0.15333   0.17490   0.19672
 Alpha virt. eigenvalues --    0.20292   0.21288   0.25480   0.26252   0.29198

 Mulliken charges:
               1
     1  C    0.144945
     2  O   -0.346402
     3  C   -0.035142
     4  C   -0.136535
     5  H    0.108487
     6  H    0.092095
     7  H    0.093124
     8  H    0.079429
 Sum of Mulliken charges =   0.00000

 Dipole moment (field-independent basis, Debye):
    X=             -3.3665    Y=              0.8714    Z=             -0.0377  Tot=              3.4777
 Quadrupole moment (field-independent basis, Debye-Ang):
   XX=            -27.4113   YY=            -21.6851   ZZ=            -25.1831
   XY=              1.0343   XZ=             -0.4058   YZ=             -0.0143

 Normal termination of Gaussian 09 at Wed Aug 26 09:05:38 2020.
