 Gaussian 09, Revision D.01,
 Gaussian 09:  ES64L-G09RevD.01 24-Apr-2013

 --------------------
 #p B2PLYPD3/Def2QZVP
 --------------------

 --------
 acrolein
 --------
 Symbolic Z-matrix:
 Charge =  0 Multiplicity = 1

                         Standard orientation:
 ---------------------------------------------------------------------
 Center     Atomic      Atomic             Coordinates (Angstroms)
 Number     Number       Type             X           Y           Z
 ---------------------------------------------------------------------
      1          6           0       -0.671221    0.361779   -0.058182
      2          8           0       -1.776759   -0.135253    0.061571
      3          6           0        0.573483   -0.449023   -0.052915
      4          6           0        1.729071    0.150551    0.016414
      5          1           0        0.428686   -1.468998   -0.011077
      6          1           0        1.691672    1.190545    0.285889
      7          1           0        2.798095   -0.420537    0.022987
      8          1           0       -0.492374    1.401175   -0.222270
 ---------------------------------------------------------------------

 SCF Done:  E(RB2PLYPD3) =  -191.598393565     A.U. after   14 cycles
 E2(B2PLYPD3) =    -0.2474791773D+00 E(B2PLYPD3) =    -0.19184587274196D+03

 The electronic state is 1-A.
 Alpha  occ. eigenvalues --  -19.73042 -10.71524 -10.65923 -10.63390  -1.19238
 Alpha  occ. eigenvalues --   -0.93672  -0.74628  -0.68198  -0.56520  -0.55549
 Alpha  occ. eigenvalues --   -0.50879  -0.46919  -0.45922  -0.34977  -0.33914
 Alpha virt. eigenvalues --   -0.01499   0.05442   0.07271   0.07538   0.09798
 Alpha virt. eigenvalues --    0.12465   0.13666   0.15397   0.17613   0.18890
 Alpha virt. eigenvalues --    0.20582   0.20925   0.24678   0.26539   0.28947

 Mulliken charges:
               1
     1  C    0.155216
     2  O   -0.353606
     3  C   -0.046553
     4  C   -0.121988
     5  H    0.110943
     6  H    0.079328
     7  H    0.091771
     8  H    0.084888
 Sum of Mulliken charges =   0.00000

 Dipole moment (field-independent basis, Debye):
    X=              3.3079    Y=              0.8157    Z=             -0.0424  Tot=              3.4072
 Quadrupole moment (field-independent basis, Debye-Ang):
   XX=            -27.7373   YY=            -21.8780   ZZ=            -25.0686
   XY=             -1.1816   XZ=              0.7611   YZ=              0.2311

 Normal termination of Gaussian 09 at Wed Aug 26 11:04:05 2020.
