 Gaussian 09, Revision D.01,
 Gaussian 09:  ES64L-G09RevD.01 24-Apr-2013

 --------------------
 #p B2PLYPD3/Def2QZVP
 --------------------

 --------
 acrolein
 --------
 Symbolic Z-matrix:
 Charge =  0 Multiplicity = 1

                         Standard orientation:
 ---------------------------------------------------------------------
 Center     Atomic      Atomic             Coordinates (Angstroms)
 Number     Number       Type             X           Y           Z
 ---------------------------------------------------------------------
      1          6           0        0.678014    0.351550   -0.031422
      2          8           0        1.775538   -0.127943    0.022476
      3          6           0       -0.546545   -0.433202   -0.007467
      4          6           0       -1.758737    0.131348    0.015363
      5          1           0       -0.442142   -1.520892   -0.025372
      6          1           0       -1.832086    1.215222    0.064034
      7          1           0       -2.674077   -0.434751   -0.028774
      8          1           0        0.507605    1.465788   -0.048537
 ---------------------------------------------------------------------

 SCF Done:  E(RB2PLYPD3) =  -191.616291565     A.U. after   12 cycles
 E2(B2PLYPD3) =    -0.2468681133D+00 E(B2PLYPD3) =    -0.19186315967878D+03

 The electronic state is 1-A.
 Alpha  occ. eigenvalues --  -19.72872 -10.71563 -10.65499 -10.64281  -1.20332
 Alpha  occ. eigenvalues --   -0.92917  -0.75586  -0.66545  -0.56683  -0.56402
 Alpha  occ. eigenvalues --   -0.50836  -0.47294  -0.46555  -0.34595  -0.33871
 Alpha virt. eigenvalues --   -0.01799   0.05789   0.07105   0.08458   0.09797
 Alpha virt. eigenvalues --    0.12524   0.14004   0.15417   0.17429   0.19693
 Alpha virt. eigenvalues --    0.19956   0.21636   0.25604   0.26387   0.28825

 Mulliken charges:
               1
     1  C    0.156886
     2  O   -0.340184
     3  C   -0.034469
     4  C   -0.133235
     5  H    0.101135
     6  H    0.081440
     7  H    0.106056
     8  H    0.062370
 Sum of Mulliken charges =   0.00000

 Dipole moment (field-independent basis, Debye):
    X=             -3.4225    Y=              0.7340    Z=             -0.0941  Tot=              3.5016
 Quadrupole moment (field-independent basis, Debye-Ang):
   XX=            -27.2040   YY=            -21.8889   ZZ=            -25.2076
   XY=              1.0060   XZ=             -0.1150   YZ=              0.1118

 Normal termination of Gaussian 09 at Wed Aug 26 19:04:21 2020.
