 Gaussian 09, Revision D.01,
 Gaussian 09:  ES64L-G09RevD.01 24-Apr-2013

 --------------------
 #p B2PLYPD3/Def2QZVP
 --------------------

 --------
 acrolein
 --------
 Symbolic Z-matrix:
 Charge =  0 Multiplicity = 1

                         Standard orientation:
 ---------------------------------------------------------------------
 Center     Atomic      Atomic             Coordinates (Angstroms)
 Number     Number       Type             X           Y           Z
 ---------------------------------------------------------------------
      1          6           0       -0.682738    0.362470    0.048923
      2          8           0       -1.766246   -0.142399   -0.036154
      3          6           0        0.558789   -0.438892    0.011003
      4          6           0        1.748576    0.133720   -0.026043
      5          1           0        0.464740   -1.435892    0.060620
      6          1           0        1.804514    1.225075   -0.084747
      7          1           0        2.687950   -0.436250    0.034915
      8          1           0       -0.574998    1.442467    0.075138
 ---------------------------------------------------------------------

 SCF Done:  E(RB2PLYPD3) =  -191.611723141     A.U. after   13 cycles
 E2(B2PLYPD3) =    -0.2457507188D+00 E(B2PLYPD3) =    -0.19185747385980D+03

 The electronic state is 1-A.
 Alpha  occ. eigenvalues --  -19.72727 -10.71245 -10.65198 -10.63136  -1.20333
 Alpha  occ. eigenvalues --   -0.93103  -0.74908  -0.68146  -0.57096  -0.56354
 Alpha  occ. eigenvalues --   -0.50942  -0.47147  -0.47027  -0.34736  -0.33802
 Alpha virt. eigenvalues --   -0.01262   0.05788   0.07492   0.08198   0.09808
 Alpha virt. eigenvalues --    0.12439   0.14004   0.15443   0.18082   0.19475
 Alpha virt. eigenvalues --    0.19957   0.21475   0.25619   0.26424   0.29178

 Mulliken charges:
               1
     1  C    0.151418
     2  O   -0.341674
     3  C   -0.048530
     4  C   -0.130439
     5  H    0.112453
     6  H    0.078918
     7  H    0.098819
     8  H    0.079035
 Sum of Mulliken charges =   0.00000

 Dipole moment (field-independent basis, Debye):
    X=              3.2799    Y=              0.8297    Z=              0.1813  Tot=              3.3881
 Quadrupole moment (field-independent basis, Debye-Ang):
   XX=            -27.3351   YY=            -21.7265   ZZ=            -25.0690
   XY=             -1.2521   XZ=             -0.1694   YZ=             -0.1753

 Normal termination of Gaussian 09 at Wed Aug 26 10:22:35 2020.
