 Gaussian 09, Revision D.01,
 Gaussian 09:  ES64L-G09RevD.01 24-Apr-2013

 --------------------
 #p B2PLYPD3/Def2QZVP
 --------------------

 --------
 acrolein
 --------
 Symbolic Z-matrix:
 Charge =  0 Multiplicity = 1

                         Standard orientation:
 ---------------------------------------------------------------------
 Center     Atomic      Atomic             Coordinates (Angstroms)
 Number     Number       Type             X           Y           Z
 ---------------------------------------------------------------------
      1          6           0        0.663740    0.338763   -0.016332
      2          8           0        1.794521   -0.108159    0.011346
      3          6           0       -0.572415   -0.468187   -0.011122
      4          6           0       -1.744991    0.151570   -0.002652
      5          1           0       -0.435945   -1.553986    0.013768
      6          1           0       -1.839375    1.225252    0.034519
      7          1           0       -2.658896   -0.388810    0.036438
      8          1           0        0.500040    1.449936    0.005139
 ---------------------------------------------------------------------

 SCF Done:  E(RB2PLYPD3) =  -191.615888494     A.U. after   12 cycles
 E2(B2PLYPD3) =    -0.2473593364D+00 E(B2PLYPD3) =    -0.19186324783060D+03

 The electronic state is 1-A.
 Alpha  occ. eigenvalues --  -19.72816 -10.71767 -10.65220 -10.64677  -1.19129
 Alpha  occ. eigenvalues --   -0.93239  -0.75452  -0.66740  -0.56693  -0.56285
 Alpha  occ. eigenvalues --   -0.50511  -0.47088  -0.46543  -0.34888  -0.33706
 Alpha virt. eigenvalues --   -0.01685   0.05773   0.07087   0.08077   0.09717
 Alpha virt. eigenvalues --    0.12661   0.14074   0.15295   0.17222   0.19928
 Alpha virt. eigenvalues --    0.19976   0.21711   0.25374   0.26480   0.28623

 Mulliken charges:
               1
     1  C    0.157498
     2  O   -0.351263
     3  C   -0.037394
     4  C   -0.126423
     5  H    0.105589
     6  H    0.086949
     7  H    0.100184
     8  H    0.064860
 Sum of Mulliken charges =   0.00000

 Dipole moment (field-independent basis, Debye):
    X=             -3.5498    Y=              0.6989    Z=              0.0316  Tot=              3.6181
 Quadrupole moment (field-independent basis, Debye-Ang):
   XX=            -27.5211   YY=            -21.7093   ZZ=            -25.2106
   XY=              0.7094   XZ=             -0.2063   YZ=              0.0044

 Normal termination of Gaussian 09 at Wed Aug 26 15:52:29 2020.
