 Gaussian 09, Revision D.01,
 Gaussian 09:  ES64L-G09RevD.01 24-Apr-2013

 --------------------
 #p B2PLYPD3/Def2QZVP
 --------------------

 --------
 acrolein
 --------
 Symbolic Z-matrix:
 Charge =  0 Multiplicity = 1

                         Standard orientation:
 ---------------------------------------------------------------------
 Center     Atomic      Atomic             Coordinates (Angstroms)
 Number     Number       Type             X           Y           Z
 ---------------------------------------------------------------------
      1          6           0       -0.677951    0.346814    0.042007
      2          8           0       -1.783003   -0.127781   -0.031128
      3          6           0        0.554106   -0.418368    0.038543
      4          6           0        1.771737    0.139297   -0.029627
      5          1           0        0.408725   -1.544544    0.009664
      6          1           0        1.805962    1.184406    0.034647
      7          1           0        2.708220   -0.453656   -0.063890
      8          1           0       -0.546242    1.429585   -0.036942
 ---------------------------------------------------------------------

 SCF Done:  E(RB2PLYPD3) =  -191.611523089     A.U. after   12 cycles
 E2(B2PLYPD3) =    -0.2472891541D+00 E(B2PLYPD3) =    -0.19185881224330D+03

 The electronic state is 1-A.
 Alpha  occ. eigenvalues --  -19.72805 -10.71256 -10.65652 -10.64800  -1.19929
 Alpha  occ. eigenvalues --   -0.92973  -0.75911  -0.66618  -0.56828  -0.56312
 Alpha  occ. eigenvalues --   -0.50727  -0.47082  -0.46161  -0.34620  -0.33900
 Alpha virt. eigenvalues --   -0.02069   0.05765   0.07003   0.08403   0.09837
 Alpha virt. eigenvalues --    0.12495   0.13932   0.15348   0.17307   0.19667
 Alpha virt. eigenvalues --    0.20188   0.21520   0.25174   0.26713   0.28948

 Mulliken charges:
               1
     1  C    0.156751
     2  O   -0.345351
     3  C   -0.030401
     4  C   -0.136878
     5  H    0.095523
     6  H    0.087374
     7  H    0.109951
     8  H    0.063031
 Sum of Mulliken charges =   0.00000

 Dipole moment (field-independent basis, Debye):
    X=              3.4687    Y=              0.7840    Z=              0.0849  Tot=              3.5572
 Quadrupole moment (field-independent basis, Debye-Ang):
   XX=            -27.2080   YY=            -21.9397   ZZ=            -25.2255
   XY=             -1.0846   XZ=             -0.2450   YZ=              0.0744

 Normal termination of Gaussian 09 at Wed Aug 26 09:04:42 2020.
