 Gaussian 09, Revision D.01,
 Gaussian 09:  ES64L-G09RevD.01 24-Apr-2013

 --------------------
 #p B2PLYPD3/Def2QZVP
 --------------------

 --------
 acrolein
 --------
 Symbolic Z-matrix:
 Charge =  0 Multiplicity = 1

                         Standard orientation:
 ---------------------------------------------------------------------
 Center     Atomic      Atomic             Coordinates (Angstroms)
 Number     Number       Type             X           Y           Z
 ---------------------------------------------------------------------
      1          6           0       -0.685320    0.339861    0.083975
      2          8           0       -1.765341   -0.128257   -0.061779
      3          6           0        0.528882   -0.428660    0.058130
      4          6           0        1.753739    0.146768   -0.060533
      5          1           0        0.432821   -1.458601    0.016052
      6          1           0        1.765084    1.066582   -0.049838
      7          1           0        2.751040   -0.446183    0.007007
      8          1           0       -0.410024    1.516447    0.031575
 ---------------------------------------------------------------------

 SCF Done:  E(RB2PLYPD3) =  -191.576081055     A.U. after   12 cycles
 E2(B2PLYPD3) =    -0.2474838621D+00 E(B2PLYPD3) =    -0.19182356491717D+03

 The electronic state is 1-A.
 Alpha  occ. eigenvalues --  -19.73376 -10.72157 -10.64901 -10.63789  -1.21495
 Alpha  occ. eigenvalues --   -0.93531  -0.76517  -0.67303  -0.57020  -0.56307
 Alpha  occ. eigenvalues --   -0.50350  -0.48152  -0.48028  -0.34561  -0.33556
 Alpha virt. eigenvalues --   -0.02297   0.05762   0.07088   0.08401   0.10024
 Alpha virt. eigenvalues --    0.12579   0.13634   0.15313   0.17579   0.19451
 Alpha virt. eigenvalues --    0.20559   0.21794   0.25208   0.26304   0.28824

 Mulliken charges:
               1
     1  C    0.153750
     2  O   -0.326597
     3  C   -0.011241
     4  C   -0.151935
     5  H    0.103860
     6  H    0.101406
     7  H    0.102482
     8  H    0.028274
 Sum of Mulliken charges =   0.00000

 Dipole moment (field-independent basis, Debye):
    X=              3.3541    Y=              0.5692    Z=              0.2093  Tot=              3.4085
 Quadrupole moment (field-independent basis, Debye-Ang):
   XX=            -26.7534   YY=            -22.3533   ZZ=            -25.1210
   XY=             -0.8367   XZ=             -0.3283   YZ=             -0.0701

 Normal termination of Gaussian 09 at Wed Aug 26 11:38:33 2020.
