 Gaussian 09, Revision D.01,
 Gaussian 09:  ES64L-G09RevD.01 24-Apr-2013

 --------------------
 #p B2PLYPD3/Def2QZVP
 --------------------

 --------
 acrolein
 --------
 Symbolic Z-matrix:
 Charge =  0 Multiplicity = 1

                         Standard orientation:
 ---------------------------------------------------------------------
 Center     Atomic      Atomic             Coordinates (Angstroms)
 Number     Number       Type             X           Y           Z
 ---------------------------------------------------------------------
      1          6           0        0.677266    0.364179    0.004776
      2          8           0        1.785371   -0.138606   -0.004546
      3          6           0       -0.567298   -0.439950    0.022129
      4          6           0       -1.755788    0.140112   -0.014240
      5          1           0       -0.460231   -1.516889   -0.034439
      6          1           0       -1.813713    1.193184    0.031879
      7          1           0       -2.667748   -0.432904   -0.010178
      8          1           0        0.533640    1.479406   -0.026886
 ---------------------------------------------------------------------

 SCF Done:  E(RB2PLYPD3) =  -191.615685146     A.U. after   12 cycles
 E2(B2PLYPD3) =    -0.2472347712D+00 E(B2PLYPD3) =    -0.19186291991697D+03

 The electronic state is 1-A.
 Alpha  occ. eigenvalues --  -19.72972 -10.72052 -10.64811 -10.64252  -1.19261
 Alpha  occ. eigenvalues --   -0.93131  -0.75256  -0.66919  -0.56735  -0.56349
 Alpha  occ. eigenvalues --   -0.50572  -0.46974  -0.46578  -0.34798  -0.33910
 Alpha virt. eigenvalues --   -0.01614   0.05823   0.07116   0.08004   0.09814
 Alpha virt. eigenvalues --    0.12550   0.13908   0.15314   0.17445   0.19839
 Alpha virt. eigenvalues --    0.20049   0.21696   0.25386   0.26421   0.28834

 Mulliken charges:
               1
     1  C    0.153719
     2  O   -0.348068
     3  C   -0.039713
     4  C   -0.130636
     5  H    0.105309
     6  H    0.083496
     7  H    0.102454
     8  H    0.073440
 Sum of Mulliken charges =   0.00000

 Dipole moment (field-independent basis, Debye):
    X=             -3.4280    Y=              0.8182    Z=             -0.0072  Tot=              3.5243
 Quadrupole moment (field-independent basis, Debye-Ang):
   XX=            -27.4875   YY=            -21.7083   ZZ=            -25.2005
   XY=              1.1224   XZ=              0.0160   YZ=              0.0967

 Normal termination of Gaussian 09 at Wed Aug 26 16:01:27 2020.
