 Gaussian 09, Revision D.01,
 Gaussian 09:  ES64L-G09RevD.01 24-Apr-2013

 --------------------
 #p B2PLYPD3/Def2QZVP
 --------------------

 --------
 acrolein
 --------
 Symbolic Z-matrix:
 Charge =  0 Multiplicity = 1

                         Standard orientation:
 ---------------------------------------------------------------------
 Center     Atomic      Atomic             Coordinates (Angstroms)
 Number     Number       Type             X           Y           Z
 ---------------------------------------------------------------------
      1          6           0       -0.690937    0.361678    0.041665
      2          8           0       -1.770062   -0.138809   -0.037473
      3          6           0        0.556845   -0.435576    0.014935
      4          6           0        1.757034    0.150000   -0.036147
      5          1           0        0.416056   -1.492778    0.093282
      6          1           0        1.815868    1.146981   -0.048395
      7          1           0        2.776457   -0.436828    0.029663
      8          1           0       -0.585544    1.436492    0.102508
 ---------------------------------------------------------------------

 SCF Done:  E(RB2PLYPD3) =  -191.605678547     A.U. after   12 cycles
 E2(B2PLYPD3) =    -0.2460686099D+00 E(B2PLYPD3) =    -0.19185174715689D+03

 The electronic state is 1-A.
 Alpha  occ. eigenvalues --  -19.72765 -10.71180 -10.65286 -10.64167  -1.20748
 Alpha  occ. eigenvalues --   -0.92645  -0.75078  -0.67863  -0.57560  -0.55605
 Alpha  occ. eigenvalues --   -0.50716  -0.47360  -0.46758  -0.34516  -0.33800
 Alpha virt. eigenvalues --   -0.01397   0.05693   0.07283   0.08272   0.09794
 Alpha virt. eigenvalues --    0.12350   0.14066   0.15413   0.17719   0.19770
 Alpha virt. eigenvalues --    0.20147   0.21316   0.25492   0.26385   0.28986

 Mulliken charges:
               1
     1  C    0.148842
     2  O   -0.338477
     3  C   -0.041509
     4  C   -0.138812
     5  H    0.108577
     6  H    0.090579
     7  H    0.093955
     8  H    0.076845
 Sum of Mulliken charges =   0.00000

 Dipole moment (field-independent basis, Debye):
    X=              3.2352    Y=              0.8786    Z=              0.2326  Tot=              3.3605
 Quadrupole moment (field-independent basis, Debye-Ang):
   XX=            -27.2351   YY=            -21.8002   ZZ=            -25.1655
   XY=             -1.0446   XZ=             -0.1337   YZ=             -0.1649

 Normal termination of Gaussian 09 at Wed Aug 26 08:34:58 2020.
