 Gaussian 09, Revision D.01,
 Gaussian 09:  ES64L-G09RevD.01 24-Apr-2013

 --------------------
 #p B2PLYPD3/Def2QZVP
 --------------------

 --------
 acrolein
 --------
 Symbolic Z-matrix:
 Charge =  0 Multiplicity = 1

                         Standard orientation:
 ---------------------------------------------------------------------
 Center     Atomic      Atomic             Coordinates (Angstroms)
 Number     Number       Type             X           Y           Z
 ---------------------------------------------------------------------
      1          6           0        0.683832    0.399060    0.028255
      2          8           0        1.781660   -0.162604   -0.026064
      3          6           0       -0.546658   -0.443167    0.082539
      4          6           0       -1.750517    0.117464   -0.046253
      5          1           0       -0.459349   -1.530505   -0.105591
      6          1           0       -1.911377    1.270438    0.070241
      7          1           0       -2.747044   -0.478619   -0.062074
      8          1           0        0.544551    1.599379   -0.081308
 ---------------------------------------------------------------------

 SCF Done:  E(RB2PLYPD3) =  -191.592297661     A.U. after   13 cycles
 E2(B2PLYPD3) =    -0.2509022349D+00 E(B2PLYPD3) =    -0.19184319989606D+03

 The electronic state is 1-A.
 Alpha  occ. eigenvalues --  -19.73271 -10.73492 -10.66960 -10.65092  -1.18522
 Alpha  occ. eigenvalues --   -0.92185  -0.73720  -0.65254  -0.55548  -0.55116
 Alpha  occ. eigenvalues --   -0.49738  -0.46279  -0.44826  -0.34740  -0.33883
 Alpha virt. eigenvalues --   -0.01920   0.05277   0.06354   0.07127   0.09556
 Alpha virt. eigenvalues --    0.11686   0.13513   0.14934   0.17682   0.19544
 Alpha virt. eigenvalues --    0.19704   0.21106   0.23937   0.26472   0.28555

 Mulliken charges:
               1
     1  C    0.162984
     2  O   -0.346994
     3  C   -0.058529
     4  C   -0.111652
     5  H    0.115886
     6  H    0.071617
     7  H    0.092473
     8  H    0.074215
 Sum of Mulliken charges =   0.00000

 Dipole moment (field-independent basis, Debye):
    X=             -3.4003    Y=              0.8829    Z=             -0.0378  Tot=              3.5132
 Quadrupole moment (field-independent basis, Debye-Ang):
   XX=            -27.5641   YY=            -21.6915   ZZ=            -25.6079
   XY=              1.2341   XZ=              0.2166   YZ=              0.2809

 Normal termination of Gaussian 09 at Wed Aug 26 14:27:58 2020.
