 Gaussian 09, Revision D.01,
 Gaussian 09:  ES64L-G09RevD.01 24-Apr-2013

 --------------------
 #p B2PLYPD3/Def2QZVP
 --------------------

 --------
 acrolein
 --------
 Symbolic Z-matrix:
 Charge =  0 Multiplicity = 1

                         Standard orientation:
 ---------------------------------------------------------------------
 Center     Atomic      Atomic             Coordinates (Angstroms)
 Number     Number       Type             X           Y           Z
 ---------------------------------------------------------------------
      1          6           0       -0.680010    0.351110   -0.002484
      2          8           0       -1.765988   -0.147979    0.019797
      3          6           0        0.545326   -0.406461   -0.040875
      4          6           0        1.732350    0.138583   -0.011650
      5          1           0        0.554265   -1.421321   -0.079165
      6          1           0        1.749027    1.170495   -0.121056
      7          1           0        2.766653   -0.465658    0.296346
      8          1           0       -0.528034    1.400927    0.075553
 ---------------------------------------------------------------------

 SCF Done:  E(RB2PLYPD3) =  -191.590319045     A.U. after   14 cycles
 E2(B2PLYPD3) =    -0.2461860900D+00 E(B2PLYPD3) =    -0.19183650513508D+03

 The electronic state is 1-A.
 Alpha  occ. eigenvalues --  -19.72725 -10.70919 -10.65761 -10.62638  -1.20522
 Alpha  occ. eigenvalues --   -0.94157  -0.75265  -0.68494  -0.57946  -0.55504
 Alpha  occ. eigenvalues --   -0.50237  -0.47728  -0.46134  -0.34861  -0.33952
 Alpha virt. eigenvalues --   -0.01650   0.05356   0.07226   0.08470   0.09749
 Alpha virt. eigenvalues --    0.12331   0.13976   0.15424   0.17995   0.19133
 Alpha virt. eigenvalues --    0.20176   0.21256   0.25240   0.26697   0.28834

 Mulliken charges:
               1
     1  C    0.135240
     2  O   -0.339522
     3  C   -0.019301
     4  C   -0.132258
     5  H    0.102421
     6  H    0.078334
     7  H    0.097236
     8  H    0.077849
 Sum of Mulliken charges =   0.00000

 Dipole moment (field-independent basis, Debye):
    X=              3.3435    Y=              0.8422    Z=              0.0612  Tot=              3.4485
 Quadrupole moment (field-independent basis, Debye-Ang):
   XX=            -27.3678   YY=            -22.0128   ZZ=            -24.8876
   XY=             -1.4340   XZ=              0.6090   YZ=             -0.2016

 Normal termination of Gaussian 09 at Wed Aug 26 13:13:49 2020.
