 Gaussian 09, Revision D.01,
 Gaussian 09:  ES64L-G09RevD.01 24-Apr-2013

 --------------------
 #p B2PLYPD3/Def2QZVP
 --------------------

 --------
 acrolein
 --------
 Symbolic Z-matrix:
 Charge =  0 Multiplicity = 1

                         Standard orientation:
 ---------------------------------------------------------------------
 Center     Atomic      Atomic             Coordinates (Angstroms)
 Number     Number       Type             X           Y           Z
 ---------------------------------------------------------------------
      1          6           0       -0.665752    0.342945    0.011848
      2          8           0       -1.779905   -0.107961   -0.035347
      3          6           0        0.554823   -0.462078    0.042658
      4          6           0        1.756033    0.138307   -0.010579
      5          1           0        0.453713   -1.544459    0.066753
      6          1           0        1.890262    1.277562   -0.045442
      7          1           0        2.620998   -0.371406   -0.134326
      8          1           0       -0.596359    1.386949    0.132233
 ---------------------------------------------------------------------

 SCF Done:  E(RB2PLYPD3) =  -191.607230532     A.U. after   12 cycles
 E2(B2PLYPD3) =    -0.2464831081D+00 E(B2PLYPD3) =    -0.19185371364036D+03

 The electronic state is 1-A.
 Alpha  occ. eigenvalues --  -19.72301 -10.70618 -10.65542 -10.64710  -1.19785
 Alpha  occ. eigenvalues --   -0.92770  -0.75944  -0.67488  -0.57093  -0.56586
 Alpha  occ. eigenvalues --   -0.50664  -0.47067  -0.46414  -0.34520  -0.33623
 Alpha virt. eigenvalues --   -0.01747   0.05728   0.07283   0.08231   0.09576
 Alpha virt. eigenvalues --    0.12498   0.14498   0.15347   0.17529   0.19466
 Alpha virt. eigenvalues --    0.19918   0.21845   0.25231   0.26300   0.28875

 Mulliken charges:
               1
     1  C    0.155718
     2  O   -0.348145
     3  C   -0.051530
     4  C   -0.122660
     5  H    0.107883
     6  H    0.076301
     7  H    0.103022
     8  H    0.079411
 Sum of Mulliken charges =   0.00000

 Dipole moment (field-independent basis, Debye):
    X=              3.5003    Y=              0.7415    Z=              0.0446  Tot=              3.5783
 Quadrupole moment (field-independent basis, Debye-Ang):
   XX=            -27.3495   YY=            -21.6131   ZZ=            -25.1427
   XY=             -0.9132   XZ=             -0.5861   YZ=             -0.0171

 Normal termination of Gaussian 09 at Wed Aug 26 21:22:06 2020.
