 Gaussian 09, Revision D.01,
 Gaussian 09:  ES64L-G09RevD.01 24-Apr-2013

 --------------------
 #p B2PLYPD3/Def2QZVP
 --------------------

 --------
 acrolein
 --------
 Symbolic Z-matrix:
 Charge =  0 Multiplicity = 1

                         Standard orientation:
 ---------------------------------------------------------------------
 Center     Atomic      Atomic             Coordinates (Angstroms)
 Number     Number       Type             X           Y           Z
 ---------------------------------------------------------------------
      1          6           0       -0.671693    0.339516    0.019117
      2          8           0       -1.791692   -0.108819   -0.020694
      3          6           0        0.562906   -0.453626    0.002903
      4          6           0        1.767712    0.142920   -0.019984
      5          1           0        0.416597   -1.537584    0.082342
      6          1           0        1.843269    1.245378   -0.010983
      7          1           0        2.645737   -0.413051    0.003661
      8          1           0       -0.525616    1.402946    0.078319
 ---------------------------------------------------------------------

 SCF Done:  E(RB2PLYPD3) =  -191.614561468     A.U. after   12 cycles
 E2(B2PLYPD3) =    -0.2469237464D+00 E(B2PLYPD3) =    -0.19186148521492D+03

 The electronic state is 1-A.
 Alpha  occ. eigenvalues --  -19.72686 -10.71067 -10.65544 -10.64694  -1.19649
 Alpha  occ. eigenvalues --   -0.92810  -0.75949  -0.67091  -0.56822  -0.56372
 Alpha  occ. eigenvalues --   -0.50826  -0.47236  -0.46542  -0.34543  -0.33790
 Alpha virt. eigenvalues --   -0.01894   0.05784   0.07207   0.08320   0.09714
 Alpha virt. eigenvalues --    0.12607   0.14041   0.15332   0.17500   0.19576
 Alpha virt. eigenvalues --    0.20017   0.21810   0.25303   0.26667   0.28811

 Mulliken charges:
               1
     1  C    0.158096
     2  O   -0.349186
     3  C   -0.039694
     4  C   -0.133625
     5  H    0.101928
     6  H    0.085116
     7  H    0.107477
     8  H    0.069887
 Sum of Mulliken charges =   0.00000

 Dipole moment (field-independent basis, Debye):
    X=              3.5055    Y=              0.7349    Z=              0.1635  Tot=              3.5855
 Quadrupole moment (field-independent basis, Debye-Ang):
   XX=            -27.4352   YY=            -21.7313   ZZ=            -25.2002
   XY=             -0.8379   XZ=             -0.0674   YZ=             -0.1060

 Normal termination of Gaussian 09 at Wed Aug 26 16:25:04 2020.
