 Gaussian 09, Revision D.01,
 Gaussian 09:  ES64L-G09RevD.01 24-Apr-2013

 --------------------
 #p B2PLYPD3/Def2QZVP
 --------------------

 --------
 acrolein
 --------
 Symbolic Z-matrix:
 Charge =  0 Multiplicity = 1

                         Standard orientation:
 ---------------------------------------------------------------------
 Center     Atomic      Atomic             Coordinates (Angstroms)
 Number     Number       Type             X           Y           Z
 ---------------------------------------------------------------------
      1          6           0        0.668399    0.350625    0.012323
      2          8           0        1.794504   -0.111911   -0.005269
      3          6           0       -0.568078   -0.456609   -0.005836
      4          6           0       -1.755355    0.144324   -0.007930
      5          1           0       -0.421594   -1.563743    0.017783
      6          1           0       -1.856936    1.237276   -0.007699
      7          1           0       -2.671107   -0.401560    0.032969
      8          1           0        0.523813    1.393276    0.007758
 ---------------------------------------------------------------------

 SCF Done:  E(RB2PLYPD3) =  -191.614131067     A.U. after   12 cycles
 E2(B2PLYPD3) =    -0.2471795279D+00 E(B2PLYPD3) =    -0.19186131059467D+03

 The electronic state is 1-A.
 Alpha  occ. eigenvalues --  -19.72691 -10.71105 -10.65482 -10.64821  -1.19012
 Alpha  occ. eigenvalues --   -0.92931  -0.75719  -0.67324  -0.56719  -0.56257
 Alpha  occ. eigenvalues --   -0.50640  -0.46532  -0.46443  -0.34719  -0.33880
 Alpha virt. eigenvalues --   -0.01748   0.05714   0.07175   0.08072   0.09668
 Alpha virt. eigenvalues --    0.12593   0.14182   0.15332   0.17349   0.19682
 Alpha virt. eigenvalues --    0.19985   0.21711   0.25416   0.26662   0.28717

 Mulliken charges:
               1
     1  C    0.158663
     2  O   -0.355474
     3  C   -0.041817
     4  C   -0.130118
     5  H    0.103314
     6  H    0.082859
     7  H    0.102642
     8  H    0.079931
 Sum of Mulliken charges =   0.00000

 Dipole moment (field-independent basis, Debye):
    X=             -3.5302    Y=              0.8063    Z=              0.0676  Tot=              3.6217
 Quadrupole moment (field-independent basis, Debye-Ang):
   XX=            -27.5484   YY=            -21.6229   ZZ=            -25.2153
   XY=              0.8064   XZ=             -0.0605   YZ=             -0.0527

 Normal termination of Gaussian 09 at Wed Aug 26 18:35:13 2020.
