 Gaussian 09, Revision D.01,
 Gaussian 09:  ES64L-G09RevD.01 24-Apr-2013

 --------------------
 #p B2PLYPD3/Def2QZVP
 --------------------

 --------
 acrolein
 --------
 Symbolic Z-matrix:
 Charge =  0 Multiplicity = 1

                         Standard orientation:
 ---------------------------------------------------------------------
 Center     Atomic      Atomic             Coordinates (Angstroms)
 Number     Number       Type             X           Y           Z
 ---------------------------------------------------------------------
      1          6           0        0.689973    0.390479   -0.016759
      2          8           0        1.775305   -0.161448    0.028119
      3          6           0       -0.542286   -0.439450   -0.045206
      4          6           0       -1.779735    0.122916    0.025453
      5          1           0       -0.401275   -1.503127   -0.091300
      6          1           0       -1.780441    1.185193   -0.150644
      7          1           0       -2.732830   -0.456592    0.194361
      8          1           0        0.504391    1.622439    0.041707
 ---------------------------------------------------------------------

 SCF Done:  E(RB2PLYPD3) =  -191.597299466     A.U. after   14 cycles
 E2(B2PLYPD3) =    -0.2501819841D+00 E(B2PLYPD3) =    -0.19184748145042D+03

 The electronic state is 1-A.
 Alpha  occ. eigenvalues --  -19.73442 -10.73450 -10.66163 -10.64842  -1.19583
 Alpha  occ. eigenvalues --   -0.92002  -0.74404  -0.65643  -0.56143  -0.55096
 Alpha  occ. eigenvalues --   -0.50209  -0.47328  -0.46341  -0.34054  -0.33720
 Alpha virt. eigenvalues --   -0.02129   0.05533   0.06719   0.07423   0.09897
 Alpha virt. eigenvalues --    0.11975   0.13335   0.15391   0.16972   0.19530
 Alpha virt. eigenvalues --    0.20304   0.21292   0.24725   0.26221   0.29040

 Mulliken charges:
               1
     1  C    0.166351
     2  O   -0.339705
     3  C   -0.047476
     4  C   -0.137508
     5  H    0.111033
     6  H    0.085892
     7  H    0.109210
     8  H    0.052203
 Sum of Mulliken charges =   0.00000

 Dipole moment (field-independent basis, Debye):
    X=             -3.3425    Y=              0.7537    Z=             -0.0951  Tot=              3.4278
 Quadrupole moment (field-independent basis, Debye-Ang):
   XX=            -27.3252   YY=            -21.9402   ZZ=            -25.4918
   XY=              1.2577   XZ=             -0.3739   YZ=             -0.1786

 Normal termination of Gaussian 09 at Wed Aug 26 10:37:31 2020.
