 Gaussian 09, Revision D.01,
 Gaussian 09:  ES64L-G09RevD.01 24-Apr-2013

 --------------------
 #p B2PLYPD3/Def2QZVP
 --------------------

 --------
 acrolein
 --------
 Symbolic Z-matrix:
 Charge =  0 Multiplicity = 1

                         Standard orientation:
 ---------------------------------------------------------------------
 Center     Atomic      Atomic             Coordinates (Angstroms)
 Number     Number       Type             X           Y           Z
 ---------------------------------------------------------------------
      1          6           0        0.671396    0.340994   -0.011313
      2          8           0        1.794004   -0.115673    0.023205
      3          6           0       -0.563685   -0.462289   -0.032621
      4          6           0       -1.757601    0.141058    0.014248
      5          1           0       -0.451632   -1.498754   -0.036712
      6          1           0       -1.858885    1.236221    0.007355
      7          1           0       -2.660993   -0.401543    0.082324
      8          1           0        0.518822    1.470884   -0.060494
 ---------------------------------------------------------------------

 SCF Done:  E(RB2PLYPD3) =  -191.614494392     A.U. after   12 cycles
 E2(B2PLYPD3) =    -0.2473456614D+00 E(B2PLYPD3) =    -0.19186184005341D+03

 The electronic state is 1-A.
 Alpha  occ. eigenvalues --  -19.72854 -10.71917 -10.65549 -10.64290  -1.19416
 Alpha  occ. eigenvalues --   -0.93005  -0.75474  -0.66991  -0.56815  -0.56163
 Alpha  occ. eigenvalues --   -0.50608  -0.47448  -0.46655  -0.34666  -0.33711
 Alpha virt. eigenvalues --   -0.01831   0.05748   0.07259   0.08132   0.09694
 Alpha virt. eigenvalues --    0.12520   0.13987   0.15358   0.17574   0.19730
 Alpha virt. eigenvalues --    0.19957   0.21590   0.25310   0.26351   0.28732

 Mulliken charges:
               1
     1  C    0.158076
     2  O   -0.347883
     3  C   -0.043069
     4  C   -0.125862
     5  H    0.109917
     6  H    0.084657
     7  H    0.101344
     8  H    0.062820
 Sum of Mulliken charges =   0.00000

 Dipole moment (field-independent basis, Debye):
    X=             -3.5352    Y=              0.6853    Z=             -0.0365  Tot=              3.6012
 Quadrupole moment (field-independent basis, Debye-Ang):
   XX=            -27.3626   YY=            -21.7938   ZZ=            -25.2196
   XY=              0.8252   XZ=             -0.3208   YZ=             -0.0212

 Normal termination of Gaussian 09 at Wed Aug 26 08:40:22 2020.
