 Gaussian 09, Revision D.01,
 Gaussian 09:  ES64L-G09RevD.01 24-Apr-2013

 --------------------
 #p B2PLYPD3/Def2QZVP
 --------------------

 --------
 acrolein
 --------
 Symbolic Z-matrix:
 Charge =  0 Multiplicity = 1

                         Standard orientation:
 ---------------------------------------------------------------------
 Center     Atomic      Atomic             Coordinates (Angstroms)
 Number     Number       Type             X           Y           Z
 ---------------------------------------------------------------------
      1          6           0       -0.689330    0.360688    0.061803
      2          8           0       -1.753618   -0.150461   -0.062786
      3          6           0        0.547603   -0.398367    0.044090
      4          6           0        1.747875    0.145791   -0.070945
      5          1           0        0.492928   -1.513632    0.087379
      6          1           0        1.737700    1.048771   -0.198339
      7          1           0        2.698383   -0.422763    0.152141
      8          1           0       -0.536960    1.442638    0.251422
 ---------------------------------------------------------------------

 SCF Done:  E(RB2PLYPD3) =  -191.581864416     A.U. after   13 cycles
 E2(B2PLYPD3) =    -0.2457792070D+00 E(B2PLYPD3) =    -0.19182764362346D+03

 The electronic state is 1-A.
 Alpha  occ. eigenvalues --  -19.72978 -10.71376 -10.63840 -10.63436  -1.21198
 Alpha  occ. eigenvalues --   -0.93835  -0.76228  -0.67478  -0.58300  -0.56147
 Alpha  occ. eigenvalues --   -0.51187  -0.47642  -0.46478  -0.34664  -0.33876
 Alpha virt. eigenvalues --   -0.01712   0.05947   0.06996   0.08565   0.09999
 Alpha virt. eigenvalues --    0.12678   0.14042   0.15612   0.17080   0.19226
 Alpha virt. eigenvalues --    0.20393   0.22150   0.25305   0.26692   0.29037

 Mulliken charges:
               1
     1  C    0.136603
     2  O   -0.329535
     3  C   -0.019705
     4  C   -0.155375
     5  H    0.094455
     6  H    0.094749
     7  H    0.106523
     8  H    0.072286
 Sum of Mulliken charges =   0.00000

 Dipole moment (field-independent basis, Debye):
    X=              3.2117    Y=              0.8633    Z=              0.3144  Tot=              3.3406
 Quadrupole moment (field-independent basis, Debye-Ang):
   XX=            -27.0999   YY=            -22.0052   ZZ=            -24.9046
   XY=             -1.2590   XZ=             -0.1587   YZ=             -0.3012

 Normal termination of Gaussian 09 at Wed Aug 26 11:37:00 2020.
