 Gaussian 09, Revision D.01,
 Gaussian 09:  ES64L-G09RevD.01 24-Apr-2013

 --------------------
 #p B2PLYPD3/Def2QZVP
 --------------------

 --------
 acrolein
 --------
 Symbolic Z-matrix:
 Charge =  0 Multiplicity = 1

                         Standard orientation:
 ---------------------------------------------------------------------
 Center     Atomic      Atomic             Coordinates (Angstroms)
 Number     Number       Type             X           Y           Z
 ---------------------------------------------------------------------
      1          6           0       -0.674485    0.362468    0.020369
      2          8           0       -1.772255   -0.133801   -0.023725
      3          6           0        0.555656   -0.421094   -0.003730
      4          6           0        1.759140    0.123627   -0.028763
      5          1           0        0.396393   -1.481971    0.130732
      6          1           0        1.830328    1.165917   -0.005159
      7          1           0        2.628941   -0.431978    0.028857
      8          1           0       -0.519485    1.428435    0.108118
 ---------------------------------------------------------------------

 SCF Done:  E(RB2PLYPD3) =  -191.613543425     A.U. after   12 cycles
 E2(B2PLYPD3) =    -0.2459936801D+00 E(B2PLYPD3) =    -0.19185953710557D+03

 The electronic state is 1-A.
 Alpha  occ. eigenvalues --  -19.72833 -10.71136 -10.64271 -10.63806  -1.19901
 Alpha  occ. eigenvalues --   -0.93457  -0.76367  -0.67446  -0.57209  -0.56986
 Alpha  occ. eigenvalues --   -0.51280  -0.47513  -0.46318  -0.34781  -0.33948
 Alpha virt. eigenvalues --   -0.01678   0.05913   0.07310   0.08462   0.09870
 Alpha virt. eigenvalues --    0.12738   0.14045   0.15310   0.17648   0.19757
 Alpha virt. eigenvalues --    0.20028   0.22132   0.25537   0.26777   0.28815

 Mulliken charges:
               1
     1  C    0.154458
     2  O   -0.347754
     3  C   -0.032893
     4  C   -0.133602
     5  H    0.101056
     6  H    0.080302
     7  H    0.104997
     8  H    0.073436
 Sum of Mulliken charges =   0.00000

 Dipole moment (field-independent basis, Debye):
    X=              3.4007    Y=              0.8371    Z=              0.2505  Tot=              3.5111
 Quadrupole moment (field-independent basis, Debye-Ang):
   XX=            -27.2673   YY=            -21.8554   ZZ=            -24.9871
   XY=             -0.9952   XZ=              0.0214   YZ=             -0.1588

 Normal termination of Gaussian 09 at Wed Aug 26 10:24:34 2020.
