 Gaussian 09, Revision D.01,
 Gaussian 09:  ES64L-G09RevD.01 24-Apr-2013

 --------------------
 #p B2PLYPD3/Def2QZVP
 --------------------

 --------
 acrolein
 --------
 Symbolic Z-matrix:
 Charge =  0 Multiplicity = 1

                         Standard orientation:
 ---------------------------------------------------------------------
 Center     Atomic      Atomic             Coordinates (Angstroms)
 Number     Number       Type             X           Y           Z
 ---------------------------------------------------------------------
      1          6           0        0.675225   -0.350131    0.088536
      2          8           0        1.780887    0.096256   -0.061257
      3          6           0       -0.573651    0.486860    0.060488
      4          6           0       -1.761659   -0.162805   -0.053727
      5          1           0       -0.437616    1.642642    0.012224
      6          1           0       -1.793272   -1.202680    0.028479
      7          1           0       -2.547138    0.302152   -0.089165
      8          1           0        0.491434   -1.355707   -0.033269
 ---------------------------------------------------------------------

 SCF Done:  E(RB2PLYPD3) =  -191.578373877     A.U. after   13 cycles
 E2(B2PLYPD3) =    -0.2467819951D+00 E(B2PLYPD3) =    -0.19182515587240D+03

 The electronic state is 1-A.
 Alpha  occ. eigenvalues --  -19.72781 -10.70886 -10.65617 -10.63332  -1.20022
 Alpha  occ. eigenvalues --   -0.92671  -0.76949  -0.67599  -0.57931  -0.56613
 Alpha  occ. eigenvalues --   -0.51149  -0.47307  -0.46804  -0.34356  -0.33589
 Alpha virt. eigenvalues --   -0.01656   0.06056   0.07226   0.07385   0.09754
 Alpha virt. eigenvalues --    0.12947   0.14567   0.15368   0.17186   0.19771
 Alpha virt. eigenvalues --    0.20350   0.22736   0.24389   0.27031   0.28666

 Mulliken charges:
               1
     1  C    0.161115
     2  O   -0.343059
     3  C   -0.046717
     4  C   -0.147488
     5  H    0.097354
     6  H    0.082297
     7  H    0.114517
     8  H    0.081980
 Sum of Mulliken charges =   0.00000

 Dipole moment (field-independent basis, Debye):
    X=             -3.3437    Y=             -0.7833    Z=              0.1764  Tot=              3.4387
 Quadrupole moment (field-independent basis, Debye-Ang):
   XX=            -27.5353   YY=            -21.4703   ZZ=            -25.0963
   XY=             -0.6852   XZ=              0.4786   YZ=             -0.0977

 Normal termination of Gaussian 09 at Wed Aug 26 12:58:30 2020.
