 Gaussian 09, Revision D.01,
 Gaussian 09:  ES64L-G09RevD.01 24-Apr-2013

 --------------------
 #p B2PLYPD3/Def2QZVP
 --------------------

 --------
 acrolein
 --------
 Symbolic Z-matrix:
 Charge =  0 Multiplicity = 1

                         Standard orientation:
 ---------------------------------------------------------------------
 Center     Atomic      Atomic             Coordinates (Angstroms)
 Number     Number       Type             X           Y           Z
 ---------------------------------------------------------------------
      1          6           0       -0.673666    0.373776   -0.064546
      2          8           0       -1.787047   -0.142230    0.077713
      3          6           0        0.577783   -0.425704   -0.083745
      4          6           0        1.772404    0.138155    0.022735
      5          1           0        0.391396   -1.545234   -0.127895
      6          1           0        1.823328    1.124105    0.082620
      7          1           0        2.573776   -0.443710    0.286587
      8          1           0       -0.551251    1.485311   -0.109682
 ---------------------------------------------------------------------

 SCF Done:  E(RB2PLYPD3) =  -191.600721276     A.U. after   13 cycles
 E2(B2PLYPD3) =    -0.2482443159D+00 E(B2PLYPD3) =    -0.19184896559192D+03

 The electronic state is 1-A.
 Alpha  occ. eigenvalues --  -19.73087 -10.72294 -10.65038 -10.63686  -1.18229
 Alpha  occ. eigenvalues --   -0.93455  -0.76237  -0.66806  -0.57538  -0.56507
 Alpha  occ. eigenvalues --   -0.50538  -0.47194  -0.45793  -0.34712  -0.33954
 Alpha virt. eigenvalues --   -0.02065   0.05905   0.07073   0.07743   0.09865
 Alpha virt. eigenvalues --    0.12727   0.13837   0.15274   0.17060   0.19203
 Alpha virt. eigenvalues --    0.20343   0.22512   0.24843   0.26443   0.28335

 Mulliken charges:
               1
     1  C    0.154108
     2  O   -0.358896
     3  C   -0.032372
     4  C   -0.127342
     5  H    0.100688
     6  H    0.084403
     7  H    0.102892
     8  H    0.076520
 Sum of Mulliken charges =   0.00000

 Dipole moment (field-independent basis, Debye):
    X=              3.4252    Y=              0.8817    Z=             -0.0665  Tot=              3.5375
 Quadrupole moment (field-independent basis, Debye-Ang):
   XX=            -27.8026   YY=            -21.6483   ZZ=            -25.0848
   XY=             -1.0334   XZ=              1.1625   YZ=              0.0116

 Normal termination of Gaussian 09 at Wed Aug 26 13:25:49 2020.
