 Gaussian 09, Revision D.01,
 Gaussian 09:  ES64L-G09RevD.01 24-Apr-2013

 --------------------
 #p B2PLYPD3/Def2QZVP
 --------------------

 --------
 acrolein
 --------
 Symbolic Z-matrix:
 Charge =  0 Multiplicity = 1

                         Standard orientation:
 ---------------------------------------------------------------------
 Center     Atomic      Atomic             Coordinates (Angstroms)
 Number     Number       Type             X           Y           Z
 ---------------------------------------------------------------------
      1          6           0        0.666308    0.355802    0.022164
      2          8           0        1.787314   -0.132340   -0.023865
      3          6           0       -0.564836   -0.436808    0.008966
      4          6           0       -1.744288    0.147269   -0.022942
      5          1           0       -0.475384   -1.538019    0.089155
      6          1           0       -1.780358    1.172211   -0.002537
      7          1           0       -2.692478   -0.427091   -0.016513
      8          1           0        0.506601    1.454040    0.071684
 ---------------------------------------------------------------------

 SCF Done:  E(RB2PLYPD3) =  -191.612377987     A.U. after   12 cycles
 E2(B2PLYPD3) =    -0.2474949340D+00 E(B2PLYPD3) =    -0.19185987292082D+03

 The electronic state is 1-A.
 Alpha  occ. eigenvalues --  -19.72913 -10.71879 -10.64852 -10.64316  -1.18809
 Alpha  occ. eigenvalues --   -0.93648  -0.75555  -0.67054  -0.56961  -0.56201
 Alpha  occ. eigenvalues --   -0.50370  -0.47007  -0.46213  -0.34921  -0.33995
 Alpha virt. eigenvalues --   -0.01764   0.05779   0.06888   0.08157   0.09798
 Alpha virt. eigenvalues --    0.12627   0.13984   0.15260   0.17315   0.19904
 Alpha virt. eigenvalues --    0.20223   0.21542   0.25596   0.26386   0.28968

 Mulliken charges:
               1
     1  C    0.148445
     2  O   -0.352914
     3  C   -0.025134
     4  C   -0.132127
     5  H    0.100515
     6  H    0.085110
     7  H    0.102236
     8  H    0.073868
 Sum of Mulliken charges =   0.00000

 Dipole moment (field-independent basis, Debye):
    X=             -3.5246    Y=              0.8137    Z=              0.1669  Tot=              3.6212
 Quadrupole moment (field-independent basis, Debye-Ang):
   XX=            -27.5300   YY=            -21.7477   ZZ=            -25.1631
   XY=              1.0930   XZ=              0.1056   YZ=             -0.0842

 Normal termination of Gaussian 09 at Wed Aug 26 19:08:06 2020.
