 Gaussian 09, Revision D.01,
 Gaussian 09:  ES64L-G09RevD.01 24-Apr-2013

 --------------------
 #p B2PLYPD3/Def2QZVP
 --------------------

 --------
 acrolein
 --------
 Symbolic Z-matrix:
 Charge =  0 Multiplicity = 1

                         Standard orientation:
 ---------------------------------------------------------------------
 Center     Atomic      Atomic             Coordinates (Angstroms)
 Number     Number       Type             X           Y           Z
 ---------------------------------------------------------------------
      1          6           0        0.676415    0.347152   -0.026307
      2          8           0        1.775164   -0.126407    0.021019
      3          6           0       -0.549227   -0.434524   -0.022483
      4          6           0       -1.750569    0.136694    0.003981
      5          1           0       -0.439301   -1.503157   -0.000896
      6          1           0       -1.819312    1.196210    0.022179
      7          1           0       -2.743191   -0.412058    0.069122
      8          1           0        0.540779    1.434329    0.010299
 ---------------------------------------------------------------------

 SCF Done:  E(RB2PLYPD3) =  -191.614490488     A.U. after   13 cycles
 E2(B2PLYPD3) =    -0.2464035216D+00 E(B2PLYPD3) =    -0.19186089400916D+03

 The electronic state is 1-A.
 Alpha  occ. eigenvalues --  -19.72700 -10.71156 -10.65736 -10.64077  -1.20347
 Alpha  occ. eigenvalues --   -0.93108  -0.75368  -0.67294  -0.57070  -0.56112
 Alpha  occ. eigenvalues --   -0.50681  -0.47313  -0.46470  -0.34732  -0.33857
 Alpha virt. eigenvalues --   -0.01660   0.05693   0.07245   0.08487   0.09739
 Alpha virt. eigenvalues --    0.12453   0.14156   0.15400   0.17651   0.19842
 Alpha virt. eigenvalues --    0.19939   0.21287   0.25638   0.26382   0.28936

 Mulliken charges:
               1
     1  C    0.152573
     2  O   -0.342717
     3  C   -0.034425
     4  C   -0.130160
     5  H    0.105515
     6  H    0.082221
     7  H    0.099255
     8  H    0.067739
 Sum of Mulliken charges =   0.00000

 Dipole moment (field-independent basis, Debye):
    X=             -3.4249    Y=              0.7770    Z=              0.0051  Tot=              3.5119
 Quadrupole moment (field-independent basis, Debye-Ang):
   XX=            -27.1214   YY=            -21.9265   ZZ=            -25.1515
   XY=              0.9829   XZ=             -0.3086   YZ=             -0.0108

 Normal termination of Gaussian 09 at Wed Aug 26 19:43:05 2020.
