 Gaussian 09, Revision D.01,
 Gaussian 09:  ES64L-G09RevD.01 24-Apr-2013

 --------------------
 #p B2PLYPD3/Def2QZVP
 --------------------

 --------
 acrolein
 --------
 Symbolic Z-matrix:
 Charge =  0 Multiplicity = 1

                         Standard orientation:
 ---------------------------------------------------------------------
 Center     Atomic      Atomic             Coordinates (Angstroms)
 Number     Number       Type             X           Y           Z
 ---------------------------------------------------------------------
      1          6           0        0.648055    0.334149    0.040822
      2          8           0        1.797337   -0.100100   -0.034668
      3          6           0       -0.568379   -0.468894    0.021556
      4          6           0       -1.743871    0.141592   -0.041657
      5          1           0       -0.438981   -1.513188    0.021322
      6          1           0       -1.853637    1.275054   -0.095496
      7          1           0       -2.623011   -0.381776    0.098209
      8          1           0        0.522103    1.379627    0.128985
 ---------------------------------------------------------------------

 SCF Done:  E(RB2PLYPD3) =  -191.608429148     A.U. after   13 cycles
 E2(B2PLYPD3) =    -0.2475369564D+00 E(B2PLYPD3) =    -0.19185596610394D+03

 The electronic state is 1-A.
 Alpha  occ. eigenvalues --  -19.72501 -10.70972 -10.65644 -10.64229  -1.18099
 Alpha  occ. eigenvalues --   -0.93655  -0.76126  -0.67858  -0.57030  -0.56401
 Alpha  occ. eigenvalues --   -0.50447  -0.47190  -0.45945  -0.34811  -0.33762
 Alpha virt. eigenvalues --   -0.02105   0.05631   0.07289   0.08073   0.09683
 Alpha virt. eigenvalues --    0.12564   0.14104   0.15408   0.17608   0.19018
 Alpha virt. eigenvalues --    0.20126   0.21964   0.25223   0.26657   0.28946

 Mulliken charges:
               1
     1  C    0.153499
     2  O   -0.364611
     3  C   -0.040466
     4  C   -0.119397
     5  H    0.110228
     6  H    0.079943
     7  H    0.101654
     8  H    0.079149
 Sum of Mulliken charges =   0.00000

 Dipole moment (field-independent basis, Debye):
    X=             -3.6798    Y=              0.7203    Z=              0.2004  Tot=              3.7550
 Quadrupole moment (field-independent basis, Debye-Ang):
   XX=            -27.7152   YY=            -21.5889   ZZ=            -25.1053
   XY=              0.7511   XZ=              0.0734   YZ=             -0.1341

 Normal termination of Gaussian 09 at Wed Aug 26 20:53:33 2020.
