 Gaussian 09, Revision D.01,
 Gaussian 09:  ES64L-G09RevD.01 24-Apr-2013

 --------------------
 #p B2PLYPD3/Def2QZVP
 --------------------

 --------
 acrolein
 --------
 Symbolic Z-matrix:
 Charge =  0 Multiplicity = 1

                         Standard orientation:
 ---------------------------------------------------------------------
 Center     Atomic      Atomic             Coordinates (Angstroms)
 Number     Number       Type             X           Y           Z
 ---------------------------------------------------------------------
      1          6           0        0.664592    0.316404   -0.005449
      2          8           0        1.802933   -0.087377    0.048673
      3          6           0       -0.562631   -0.478925   -0.074809
      4          6           0       -1.766825    0.178565    0.008497
      5          1           0       -0.509164   -1.531322   -0.082227
      6          1           0       -1.846133    1.298825    0.025282
      7          1           0       -2.675885   -0.426046    0.273937
      8          1           0        0.596902    1.261303   -0.175809
 ---------------------------------------------------------------------

 SCF Done:  E(RB2PLYPD3) =  -191.589941756     A.U. after   13 cycles
 E2(B2PLYPD3) =    -0.2475844938D+00 E(B2PLYPD3) =    -0.19183752625020D+03

 The electronic state is 1-A.
 Alpha  occ. eigenvalues --  -19.72100 -10.69649 -10.67150 -10.64911  -1.19290
 Alpha  occ. eigenvalues --   -0.92439  -0.75718  -0.69012  -0.57467  -0.55494
 Alpha  occ. eigenvalues --   -0.50000  -0.47734  -0.46237  -0.34245  -0.33347
 Alpha virt. eigenvalues --   -0.02356   0.05462   0.07329   0.07932   0.09489
 Alpha virt. eigenvalues --    0.12547   0.14083   0.15269   0.17858   0.19507
 Alpha virt. eigenvalues --    0.19553   0.21444   0.24529   0.26553   0.28732

 Mulliken charges:
               1
     1  C    0.156939
     2  O   -0.356872
     3  C   -0.051471
     4  C   -0.128408
     5  H    0.111017
     6  H    0.088950
     7  H    0.097315
     8  H    0.082531
 Sum of Mulliken charges =   0.00000

 Dipole moment (field-independent basis, Debye):
    X=             -3.6098    Y=              0.7267    Z=             -0.0015  Tot=              3.6823
 Quadrupole moment (field-independent basis, Debye-Ang):
   XX=            -27.8790   YY=            -21.4859   ZZ=            -25.1599
   XY=              0.8839   XZ=             -0.9870   YZ=             -0.0946

 Normal termination of Gaussian 09 at Wed Aug 26 13:38:11 2020.
