 Gaussian 09, Revision D.01,
 Gaussian 09:  ES64L-G09RevD.01 24-Apr-2013

 --------------------
 #p B2PLYPD3/Def2QZVP
 --------------------

 --------
 acrolein
 --------
 Symbolic Z-matrix:
 Charge =  0 Multiplicity = 1

                         Standard orientation:
 ---------------------------------------------------------------------
 Center     Atomic      Atomic             Coordinates (Angstroms)
 Number     Number       Type             X           Y           Z
 ---------------------------------------------------------------------
      1          6           0       -0.688100    0.391036   -0.063996
      2          8           0       -1.781091   -0.158960    0.076776
      3          6           0        0.559987   -0.392942   -0.109224
      4          6           0        1.753692    0.098613    0.024430
      5          1           0        0.483070   -1.447484    0.041884
      6          1           0        1.873198    1.212111    0.264223
      7          1           0        2.636044   -0.471903    0.131112
      8          1           0       -0.497057    1.398713   -0.158684
 ---------------------------------------------------------------------

 SCF Done:  E(RB2PLYPD3) =  -191.600118419     A.U. after   13 cycles
 E2(B2PLYPD3) =    -0.2475823926D+00 E(B2PLYPD3) =    -0.19184770081131D+03

 The electronic state is 1-A.
 Alpha  occ. eigenvalues --  -19.73247 -10.71600 -10.65069 -10.63356  -1.18567
 Alpha  occ. eigenvalues --   -0.93666  -0.76550  -0.67616  -0.57101  -0.56274
 Alpha  occ. eigenvalues --   -0.51397  -0.46506  -0.44911  -0.35080  -0.34245
 Alpha virt. eigenvalues --   -0.01955   0.05580   0.07393   0.07911   0.09705
 Alpha virt. eigenvalues --    0.12586   0.13662   0.15503   0.18118   0.18587
 Alpha virt. eigenvalues --    0.20028   0.21842   0.25065   0.26502   0.28539

 Mulliken charges:
               1
     1  C    0.162522
     2  O   -0.356078
     3  C   -0.050937
     4  C   -0.108796
     5  H    0.100333
     6  H    0.056669
     7  H    0.101595
     8  H    0.094693
 Sum of Mulliken charges =   0.00000

 Dipole moment (field-independent basis, Debye):
    X=              3.3960    Y=              0.9583    Z=              0.0607  Tot=              3.5291
 Quadrupole moment (field-independent basis, Debye-Ang):
   XX=            -27.5172   YY=            -21.9126   ZZ=            -24.9862
   XY=             -1.4165   XZ=              1.1465   YZ=             -0.0151

 Normal termination of Gaussian 09 at Wed Aug 26 13:40:32 2020.
