 Gaussian 09, Revision D.01,
 Gaussian 09:  ES64L-G09RevD.01 24-Apr-2013

 --------------------
 #p B2PLYPD3/Def2QZVP
 --------------------

 --------
 acrolein
 --------
 Symbolic Z-matrix:
 Charge =  0 Multiplicity = 1

                         Standard orientation:
 ---------------------------------------------------------------------
 Center     Atomic      Atomic             Coordinates (Angstroms)
 Number     Number       Type             X           Y           Z
 ---------------------------------------------------------------------
      1          6           0       -0.677337    0.340728    0.034459
      2          8           0       -1.794436   -0.106756   -0.020075
      3          6           0        0.587038   -0.462597    0.011444
      4          6           0        1.768372    0.153432   -0.022931
      5          1           0        0.387223   -1.592308   -0.012455
      6          1           0        1.836867    1.253179   -0.048339
      7          1           0        2.608273   -0.407264    0.061526
      8          1           0       -0.545318    1.411056    0.022029
 ---------------------------------------------------------------------

 SCF Done:  E(RB2PLYPD3) =  -191.608200420     A.U. after   13 cycles
 E2(B2PLYPD3) =    -0.2469153579D+00 E(B2PLYPD3) =    -0.19185511577821D+03

 The electronic state is 1-A.
 Alpha  occ. eigenvalues --  -19.72822 -10.71273 -10.65249 -10.64905  -1.19847
 Alpha  occ. eigenvalues --   -0.92714  -0.75601  -0.66534  -0.56896  -0.56230
 Alpha  occ. eigenvalues --   -0.50899  -0.46905  -0.46592  -0.34782  -0.33575
 Alpha virt. eigenvalues --   -0.01549   0.05859   0.07101   0.08101   0.09729
 Alpha virt. eigenvalues --    0.12593   0.13944   0.15408   0.17095   0.19577
 Alpha virt. eigenvalues --    0.19931   0.22083   0.25309   0.26604   0.28621

 Mulliken charges:
               1
     1  C    0.163551
     2  O   -0.345749
     3  C   -0.047790
     4  C   -0.133160
     5  H    0.098372
     6  H    0.088321
     7  H    0.108618
     8  H    0.067838
 Sum of Mulliken charges =   0.00000

 Dipole moment (field-independent basis, Debye):
    X=              3.3890    Y=              0.7458    Z=              0.0935  Tot=              3.4713
 Quadrupole moment (field-independent basis, Debye-Ang):
   XX=            -27.6272   YY=            -21.6244   ZZ=            -25.2316
   XY=             -0.7551   XZ=             -0.0195   YZ=             -0.0663

 Normal termination of Gaussian 09 at Wed Aug 26 08:40:21 2020.
