 Gaussian 09, Revision D.01,
 Gaussian 09:  ES64L-G09RevD.01 24-Apr-2013

 --------------------
 #p B2PLYPD3/Def2QZVP
 --------------------

 --------
 acrolein
 --------
 Symbolic Z-matrix:
 Charge =  0 Multiplicity = 1

                         Standard orientation:
 ---------------------------------------------------------------------
 Center     Atomic      Atomic             Coordinates (Angstroms)
 Number     Number       Type             X           Y           Z
 ---------------------------------------------------------------------
      1          6           0        0.664176    0.322024   -0.025454
      2          8           0        1.791351   -0.100614    0.015678
      3          6           0       -0.583181   -0.461728    0.007404
      4          6           0       -1.737517    0.164059   -0.011957
      5          1           0       -0.445691   -1.551742   -0.018932
      6          1           0       -1.859159    1.204423    0.098781
      7          1           0       -2.626483   -0.397317    0.010473
      8          1           0        0.539654    1.403423   -0.035704
 ---------------------------------------------------------------------

 SCF Done:  E(RB2PLYPD3) =  -191.613879799     A.U. after   12 cycles
 E2(B2PLYPD3) =    -0.2460288885D+00 E(B2PLYPD3) =    -0.19185990868744D+03

 The electronic state is 1-A.
 Alpha  occ. eigenvalues --  -19.72604 -10.71047 -10.64625 -10.64444  -1.19717
 Alpha  occ. eigenvalues --   -0.93653  -0.75783  -0.67117  -0.57173  -0.56682
 Alpha  occ. eigenvalues --   -0.50691  -0.47215  -0.46844  -0.35159  -0.33505
 Alpha virt. eigenvalues --   -0.01455   0.05880   0.07196   0.08321   0.09736
 Alpha virt. eigenvalues --    0.12860   0.14194   0.15231   0.17296   0.19903
 Alpha virt. eigenvalues --    0.20138   0.21975   0.25238   0.26551   0.28206

 Mulliken charges:
               1
     1  C    0.154843
     2  O   -0.347050
     3  C   -0.034739
     4  C   -0.125475
     5  H    0.101527
     6  H    0.090981
     7  H    0.096788
     8  H    0.063124
 Sum of Mulliken charges =   0.00000

 Dipole moment (field-independent basis, Debye):
    X=             -3.5135    Y=              0.6801    Z=              0.0019  Tot=              3.5788
 Quadrupole moment (field-independent basis, Debye-Ang):
   XX=            -27.4891   YY=            -21.7192   ZZ=            -25.0370
   XY=              0.6742   XZ=             -0.2553   YZ=              0.1463

 Normal termination of Gaussian 09 at Wed Aug 26 10:16:57 2020.
