 Gaussian 09, Revision D.01,
 Gaussian 09:  ES64L-G09RevD.01 24-Apr-2013

 --------------------
 #p B2PLYPD3/Def2QZVP
 --------------------

 --------
 acrolein
 --------
 Symbolic Z-matrix:
 Charge =  0 Multiplicity = 1

                         Standard orientation:
 ---------------------------------------------------------------------
 Center     Atomic      Atomic             Coordinates (Angstroms)
 Number     Number       Type             X           Y           Z
 ---------------------------------------------------------------------
      1          6           0        0.672297    0.329945   -0.034075
      2          8           0        1.787432   -0.102747    0.035503
      3          6           0       -0.569950   -0.479212   -0.042647
      4          6           0       -1.745667    0.164024    0.007415
      5          1           0       -0.420735   -1.559433   -0.024590
      6          1           0       -1.812143    1.269213   -0.000359
      7          1           0       -2.755711   -0.393182    0.162028
      8          1           0        0.549055    1.416838   -0.005266
 ---------------------------------------------------------------------

 SCF Done:  E(RB2PLYPD3) =  -191.610382624     A.U. after   13 cycles
 E2(B2PLYPD3) =    -0.2472899839D+00 E(B2PLYPD3) =    -0.19185767260773D+03

 The electronic state is 1-A.
 Alpha  occ. eigenvalues --  -19.72608 -10.71212 -10.66739 -10.64929  -1.20176
 Alpha  occ. eigenvalues --   -0.92516  -0.74355  -0.66972  -0.56451  -0.55645
 Alpha  occ. eigenvalues --   -0.50485  -0.47065  -0.46357  -0.34653  -0.33555
 Alpha virt. eigenvalues --   -0.01505   0.05556   0.07066   0.08088   0.09629
 Alpha virt. eigenvalues --    0.12304   0.14026   0.15325   0.17491   0.19592
 Alpha virt. eigenvalues --    0.19904   0.21107   0.25048   0.26548   0.28892

 Mulliken charges:
               1
     1  C    0.157417
     2  O   -0.343256
     3  C   -0.043420
     4  C   -0.126571
     5  H    0.108646
     6  H    0.088753
     7  H    0.094770
     8  H    0.063660
 Sum of Mulliken charges =   0.00000

 Dipole moment (field-independent basis, Debye):
    X=             -3.4109    Y=              0.7007    Z=             -0.0026  Tot=              3.4821
 Quadrupole moment (field-independent basis, Debye-Ang):
   XX=            -27.5300   YY=            -21.7176   ZZ=            -25.3236
   XY=              0.7279   XZ=             -0.5629   YZ=             -0.0575

 Normal termination of Gaussian 09 at Wed Aug 26 09:23:59 2020.
