 Gaussian 09, Revision D.01,
 Gaussian 09:  ES64L-G09RevD.01 24-Apr-2013

 --------------------
 #p B2PLYPD3/Def2QZVP
 --------------------

 --------
 acrolein
 --------
 Symbolic Z-matrix:
 Charge =  0 Multiplicity = 1

                         Standard orientation:
 ---------------------------------------------------------------------
 Center     Atomic      Atomic             Coordinates (Angstroms)
 Number     Number       Type             X           Y           Z
 ---------------------------------------------------------------------
      1          6           0        0.680586    0.384160    0.047095
      2          8           0        1.785653   -0.173550   -0.059859
      3          6           0       -0.559679   -0.404293    0.010644
      4          6           0       -1.743704    0.148011   -0.050465
      5          1           0       -0.517360   -1.398154    0.282013
      6          1           0       -1.716674    1.107586   -0.078326
      7          1           0       -2.874114   -0.515195   -0.015261
      8          1           0        0.559705    1.426900    0.246804
 ---------------------------------------------------------------------

 SCF Done:  E(RB2PLYPD3) =  -191.566270138     A.U. after   13 cycles
 E2(B2PLYPD3) =    -0.2489513904D+00 E(B2PLYPD3) =    -0.19181522152878D+03

 The electronic state is 1-A.
 Alpha  occ. eigenvalues --  -19.73199 -10.72143 -10.65517 -10.63289  -1.18007
 Alpha  occ. eigenvalues --   -0.94163  -0.75446  -0.68886  -0.57861  -0.54543
 Alpha  occ. eigenvalues --   -0.50251  -0.46569  -0.44955  -0.34960  -0.34263
 Alpha virt. eigenvalues --   -0.01914   0.04852   0.06529   0.07772   0.09647
 Alpha virt. eigenvalues --    0.11930   0.13586   0.14899   0.18374   0.19360
 Alpha virt. eigenvalues --    0.20494   0.20563   0.24673   0.26530   0.28462

 Mulliken charges:
               1
     1  C    0.137560
     2  O   -0.356479
     3  C   -0.027528
     4  C   -0.137842
     5  H    0.107747
     6  H    0.086916
     7  H    0.095083
     8  H    0.094543
 Sum of Mulliken charges =   0.00000

 Dipole moment (field-independent basis, Debye):
    X=             -3.3819    Y=              1.0530    Z=              0.4606  Tot=              3.5718
 Quadrupole moment (field-independent basis, Debye-Ang):
   XX=            -27.6638   YY=            -21.8804   ZZ=            -25.1001
   XY=              1.6446   XZ=              0.2717   YZ=             -0.3079

 Normal termination of Gaussian 09 at Wed Aug 26 13:57:05 2020.
