 Gaussian 09, Revision D.01,
 Gaussian 09:  ES64L-G09RevD.01 24-Apr-2013

 --------------------
 #p B2PLYPD3/Def2QZVP
 --------------------

 --------
 acrolein
 --------
 Symbolic Z-matrix:
 Charge =  0 Multiplicity = 1

                         Standard orientation:
 ---------------------------------------------------------------------
 Center     Atomic      Atomic             Coordinates (Angstroms)
 Number     Number       Type             X           Y           Z
 ---------------------------------------------------------------------
      1          6           0        0.671931    0.356973    0.016206
      2          8           0        1.785283   -0.132696   -0.005109
      3          6           0       -0.563697   -0.453081   -0.008293
      4          6           0       -1.747987    0.139697   -0.007110
      5          1           0       -0.461435   -1.510090    0.012642
      6          1           0       -1.797479    1.219383   -0.010848
      7          1           0       -2.686879   -0.418998    0.039467
      8          1           0        0.502050    1.509745   -0.005210
 ---------------------------------------------------------------------

 SCF Done:  E(RB2PLYPD3) =  -191.613969651     A.U. after   12 cycles
 E2(B2PLYPD3) =    -0.2477536510D+00 E(B2PLYPD3) =    -0.19186172330177D+03

 The electronic state is 1-A.
 Alpha  occ. eigenvalues --  -19.73057 -10.72395 -10.65342 -10.64158  -1.19331
 Alpha  occ. eigenvalues --   -0.93168  -0.74902  -0.66668  -0.56501  -0.56041
 Alpha  occ. eigenvalues --   -0.50458  -0.46999  -0.46707  -0.34830  -0.33840
 Alpha virt. eigenvalues --   -0.01641   0.05740   0.07033   0.07993   0.09788
 Alpha virt. eigenvalues --    0.12457   0.13823   0.15341   0.17417   0.19885
 Alpha virt. eigenvalues --    0.19922   0.21431   0.25539   0.26270   0.28926

 Mulliken charges:
               1
     1  C    0.157661
     2  O   -0.346387
     3  C   -0.038769
     4  C   -0.127155
     5  H    0.107990
     6  H    0.082792
     7  H    0.101395
     8  H    0.062473
 Sum of Mulliken charges =   0.00000

 Dipole moment (field-independent basis, Debye):
    X=             -3.4550    Y=              0.7304    Z=              0.0659  Tot=              3.5320
 Quadrupole moment (field-independent basis, Debye-Ang):
   XX=            -27.4654   YY=            -21.7828   ZZ=            -25.2594
   XY=              1.0291   XZ=             -0.0766   YZ=             -0.0628

 Normal termination of Gaussian 09 at Wed Aug 26 19:20:40 2020.
