 Gaussian 09, Revision D.01,
 Gaussian 09:  ES64L-G09RevD.01 24-Apr-2013

 --------------------
 #p B2PLYPD3/Def2QZVP
 --------------------

 --------
 acrolein
 --------
 Symbolic Z-matrix:
 Charge =  0 Multiplicity = 1

                         Standard orientation:
 ---------------------------------------------------------------------
 Center     Atomic      Atomic             Coordinates (Angstroms)
 Number     Number       Type             X           Y           Z
 ---------------------------------------------------------------------
      1          6           0        0.673482    0.343611   -0.019981
      2          8           0        1.790405   -0.115267    0.023108
      3          6           0       -0.561501   -0.446207   -0.027976
      4          6           0       -1.765329    0.144319    0.006730
      5          1           0       -0.444780   -1.548003    0.010237
      6          1           0       -1.839496    1.221058    0.080070
      7          1           0       -2.652702   -0.411829    0.033427
      8          1           0        0.533828    1.410570   -0.061237
 ---------------------------------------------------------------------

 SCF Done:  E(RB2PLYPD3) =  -191.615420925     A.U. after   12 cycles
 E2(B2PLYPD3) =    -0.2468864141D+00 E(B2PLYPD3) =    -0.19186230733866D+03

 The electronic state is 1-A.
 Alpha  occ. eigenvalues --  -19.72696 -10.71166 -10.65293 -10.64722  -1.19593
 Alpha  occ. eigenvalues --   -0.92893  -0.75956  -0.67058  -0.56708  -0.56672
 Alpha  occ. eigenvalues --   -0.50736  -0.46940  -0.46735  -0.34559  -0.33856
 Alpha virt. eigenvalues --   -0.01894   0.05810   0.07184   0.08290   0.09725
 Alpha virt. eigenvalues --    0.12661   0.14106   0.15398   0.17401   0.19633
 Alpha virt. eigenvalues --    0.20079   0.21797   0.25379   0.26463   0.28766

 Mulliken charges:
               1
     1  C    0.155808
     2  O   -0.348808
     3  C   -0.038566
     4  C   -0.131852
     5  H    0.100386
     6  H    0.084218
     7  H    0.106187
     8  H    0.072626
 Sum of Mulliken charges =   0.00000

 Dipole moment (field-independent basis, Debye):
    X=             -3.5075    Y=              0.7645    Z=              0.0135  Tot=              3.5898
 Quadrupole moment (field-independent basis, Debye-Ang):
   XX=            -27.4006   YY=            -21.7330   ZZ=            -25.1872
   XY=              0.9320   XZ=             -0.3427   YZ=              0.0274

 Normal termination of Gaussian 09 at Wed Aug 26 16:01:05 2020.
