 Gaussian 09, Revision D.01,
 Gaussian 09:  ES64L-G09RevD.01 24-Apr-2013

 --------------------
 #p B2PLYPD3/Def2QZVP
 --------------------

 --------
 acrolein
 --------
 Symbolic Z-matrix:
 Charge =  0 Multiplicity = 1

                         Standard orientation:
 ---------------------------------------------------------------------
 Center     Atomic      Atomic             Coordinates (Angstroms)
 Number     Number       Type             X           Y           Z
 ---------------------------------------------------------------------
      1          6           0       -0.670988    0.352884   -0.011783
      2          8           0       -1.794107   -0.127284    0.023252
      3          6           0        0.567438   -0.444367   -0.029611
      4          6           0        1.749919    0.139873    0.007608
      5          1           0        0.453069   -1.503565   -0.043466
      6          1           0        1.796113    1.185280    0.019639
      7          1           0        2.694366   -0.416974    0.098204
      8          1           0       -0.468911    1.463193   -0.057677
 ---------------------------------------------------------------------

 SCF Done:  E(RB2PLYPD3) =  -191.614135634     A.U. after   12 cycles
 E2(B2PLYPD3) =    -0.2475697232D+00 E(B2PLYPD3) =    -0.19186170535708D+03

 The electronic state is 1-A.
 Alpha  occ. eigenvalues --  -19.73103 -10.72133 -10.65076 -10.64040  -1.18980
 Alpha  occ. eigenvalues --   -0.93519  -0.75468  -0.67202  -0.56492  -0.56395
 Alpha  occ. eigenvalues --   -0.50654  -0.47124  -0.46483  -0.34936  -0.33945
 Alpha virt. eigenvalues --   -0.01794   0.05755   0.07155   0.08079   0.09800
 Alpha virt. eigenvalues --    0.12636   0.13845   0.15319   0.17470   0.19801
 Alpha virt. eigenvalues --    0.20098   0.21549   0.25529   0.26432   0.28780

 Mulliken charges:
               1
     1  C    0.154302
     2  O   -0.352006
     3  C   -0.029588
     4  C   -0.130635
     5  H    0.105549
     6  H    0.083475
     7  H    0.101490
     8  H    0.067413
 Sum of Mulliken charges =   0.00000

 Dipole moment (field-independent basis, Debye):
    X=              3.5201    Y=              0.7578    Z=             -0.0196  Tot=              3.6008
 Quadrupole moment (field-independent basis, Debye-Ang):
   XX=            -27.4715   YY=            -21.8562   ZZ=            -25.1631
   XY=             -0.9357   XZ=              0.3723   YZ=             -0.0087

 Normal termination of Gaussian 09 at Wed Aug 26 15:14:40 2020.
