 Gaussian 09, Revision D.01,
 Gaussian 09:  ES64L-G09RevD.01 24-Apr-2013

 --------------------
 #p B2PLYPD3/Def2QZVP
 --------------------

 --------
 acrolein
 --------
 Symbolic Z-matrix:
 Charge =  0 Multiplicity = 1

                         Standard orientation:
 ---------------------------------------------------------------------
 Center     Atomic      Atomic             Coordinates (Angstroms)
 Number     Number       Type             X           Y           Z
 ---------------------------------------------------------------------
      1          6           0        0.668755    0.320909    0.026570
      2          8           0        1.836110   -0.079284   -0.047304
      3          6           0       -0.589723   -0.498546    0.053985
      4          6           0       -1.759544    0.163171   -0.072499
      5          1           0       -0.448239   -1.641786    0.113910
      6          1           0       -1.917346    1.262196    0.028807
      7          1           0       -2.631570   -0.360235   -0.015492
      8          1           0        0.391347    1.460891    0.202873
 ---------------------------------------------------------------------

 SCF Done:  E(RB2PLYPD3) =  -191.596070205     A.U. after   13 cycles
 E2(B2PLYPD3) =    -0.2505834935D+00 E(B2PLYPD3) =    -0.19184665369855D+03

 The electronic state is 1-A.
 Alpha  occ. eigenvalues --  -19.73445 -10.73096 -10.66317 -10.65721  -1.18150
 Alpha  occ. eigenvalues --   -0.92704  -0.75681  -0.65321  -0.56690  -0.54900
 Alpha  occ. eigenvalues --   -0.50339  -0.46996  -0.45664  -0.34796  -0.33635
 Alpha virt. eigenvalues --   -0.02386   0.05568   0.06381   0.07689   0.09504
 Alpha virt. eigenvalues --    0.12670   0.13891   0.15220   0.16662   0.19490
 Alpha virt. eigenvalues --    0.19956   0.22002   0.24256   0.26463   0.27702

 Mulliken charges:
               1
     1  C    0.170167
     2  O   -0.350892
     3  C   -0.040281
     4  C   -0.114771
     5  H    0.100965
     6  H    0.084227
     7  H    0.099141
     8  H    0.051444
 Sum of Mulliken charges =   0.00000

 Dipole moment (field-independent basis, Debye):
    X=             -3.7067    Y=              0.5325    Z=              0.3093  Tot=              3.7575
 Quadrupole moment (field-independent basis, Debye-Ang):
   XX=            -27.7169   YY=            -21.8041   ZZ=            -25.4760
   XY=              0.1966   XZ=              0.1479   YZ=             -0.0260

 Normal termination of Gaussian 09 at Wed Aug 26 14:53:02 2020.
