 Gaussian 09, Revision D.01,
 Gaussian 09:  ES64L-G09RevD.01 24-Apr-2013

 --------------------
 #p B2PLYPD3/Def2QZVP
 --------------------

 --------
 acrolein
 --------
 Symbolic Z-matrix:
 Charge =  0 Multiplicity = 1

                         Standard orientation:
 ---------------------------------------------------------------------
 Center     Atomic      Atomic             Coordinates (Angstroms)
 Number     Number       Type             X           Y           Z
 ---------------------------------------------------------------------
      1          6           0        0.672662    0.364383    0.011839
      2          8           0        1.779879   -0.135561   -0.022135
      3          6           0       -0.557576   -0.443725    0.022211
      4          6           0       -1.749000    0.140175   -0.009624
      5          1           0       -0.485237   -1.510792    0.045470
      6          1           0       -1.815144    1.197137   -0.045599
      7          1           0       -2.663716   -0.419757   -0.051311
      8          1           0        0.528553    1.452901    0.081964
 ---------------------------------------------------------------------

 SCF Done:  E(RB2PLYPD3) =  -191.616400322     A.U. after   12 cycles
 E2(B2PLYPD3) =    -0.2469049313D+00 E(B2PLYPD3) =    -0.19186330525289D+03

 The electronic state is 1-A.
 Alpha  occ. eigenvalues --  -19.72797 -10.71681 -10.64832 -10.64053  -1.19270
 Alpha  occ. eigenvalues --   -0.93173  -0.75437  -0.67416  -0.56932  -0.56418
 Alpha  occ. eigenvalues --   -0.50534  -0.47147  -0.46576  -0.34663  -0.33944
 Alpha virt. eigenvalues --   -0.01618   0.05818   0.07190   0.08057   0.09766
 Alpha virt. eigenvalues --    0.12624   0.14120   0.15369   0.17567   0.19734
 Alpha virt. eigenvalues --    0.20116   0.21611   0.25566   0.26338   0.28870

 Mulliken charges:
               1
     1  C    0.150029
     2  O   -0.349371
     3  C   -0.039304
     4  C   -0.130904
     5  H    0.106674
     6  H    0.081381
     7  H    0.100598
     8  H    0.080897
 Sum of Mulliken charges =   0.00000

 Dipole moment (field-independent basis, Debye):
    X=             -3.4516    Y=              0.8312    Z=              0.0484  Tot=              3.5506
 Quadrupole moment (field-independent basis, Debye-Ang):
   XX=            -27.4746   YY=            -21.6500   ZZ=            -25.1516
   XY=              1.1338   XZ=              0.2915   YZ=             -0.0416

 Normal termination of Gaussian 09 at Wed Aug 26 10:10:03 2020.
