 Gaussian 09, Revision D.01,
 Gaussian 09:  ES64L-G09RevD.01 24-Apr-2013

 --------------------
 #p B2PLYPD3/Def2QZVP
 --------------------

 --------
 acrolein
 --------
 Symbolic Z-matrix:
 Charge =  0 Multiplicity = 1

                         Standard orientation:
 ---------------------------------------------------------------------
 Center     Atomic      Atomic             Coordinates (Angstroms)
 Number     Number       Type             X           Y           Z
 ---------------------------------------------------------------------
      1          6           0       -0.672733    0.343196   -0.015885
      2          8           0       -1.796301   -0.111393    0.008228
      3          6           0        0.564936   -0.467645    0.001715
      4          6           0        1.757098    0.150450   -0.002147
      5          1           0        0.469580   -1.533563    0.012416
      6          1           0        1.852521    1.263200    0.067233
      7          1           0        2.654786   -0.421723   -0.026395
      8          1           0       -0.502280    1.427227   -0.021179
 ---------------------------------------------------------------------

 SCF Done:  E(RB2PLYPD3) =  -191.615252673     A.U. after   12 cycles
 E2(B2PLYPD3) =    -0.2474255173D+00 E(B2PLYPD3) =    -0.19186267819034D+03

 The electronic state is 1-A.
 Alpha  occ. eigenvalues --  -19.72781 -10.71552 -10.65802 -10.64543  -1.19355
 Alpha  occ. eigenvalues --   -0.92741  -0.75289  -0.67102  -0.56455  -0.56166
 Alpha  occ. eigenvalues --   -0.50497  -0.47240  -0.46579  -0.34541  -0.33781
 Alpha virt. eigenvalues --   -0.01781   0.05698   0.07188   0.08019   0.09672
 Alpha virt. eigenvalues --    0.12559   0.14001   0.15359   0.17571   0.19549
 Alpha virt. eigenvalues --    0.20029   0.21564   0.25254   0.26514   0.28626

 Mulliken charges:
               1
     1  C    0.157249
     2  O   -0.349097
     3  C   -0.044748
     4  C   -0.131121
     5  H    0.106749
     6  H    0.085799
     7  H    0.102248
     8  H    0.072921
 Sum of Mulliken charges =   0.00000

 Dipole moment (field-independent basis, Debye):
    X=              3.5150    Y=              0.7223    Z=              0.0010  Tot=              3.5884
 Quadrupole moment (field-independent basis, Debye-Ang):
   XX=            -27.5985   YY=            -21.6224   ZZ=            -25.2686
   XY=             -0.8665   XZ=              0.0873   YZ=              0.0782

 Normal termination of Gaussian 09 at Wed Aug 26 19:05:03 2020.
