 Gaussian 09, Revision D.01,
 Gaussian 09:  ES64L-G09RevD.01 24-Apr-2013

 --------------------
 #p B2PLYPD3/Def2QZVP
 --------------------

 --------
 acrolein
 --------
 Symbolic Z-matrix:
 Charge =  0 Multiplicity = 1

                         Standard orientation:
 ---------------------------------------------------------------------
 Center     Atomic      Atomic             Coordinates (Angstroms)
 Number     Number       Type             X           Y           Z
 ---------------------------------------------------------------------
      1          6           0        0.666241    0.330414   -0.006042
      2          8           0        1.790731   -0.110438    0.013722
      3          6           0       -0.558293   -0.456931   -0.025783
      4          6           0       -1.753621    0.149336    0.017677
      5          1           0       -0.463470   -1.529114   -0.017881
      6          1           0       -1.808935    1.206316   -0.031839
      7          1           0       -2.683115   -0.388085    0.047441
      8          1           0        0.503707    1.457469   -0.022604
 ---------------------------------------------------------------------

 SCF Done:  E(RB2PLYPD3) =  -191.615851885     A.U. after   12 cycles
 E2(B2PLYPD3) =    -0.2472369198D+00 E(B2PLYPD3) =    -0.19186308880453D+03

 The electronic state is 1-A.
 Alpha  occ. eigenvalues --  -19.72782 -10.71702 -10.65455 -10.64496  -1.19646
 Alpha  occ. eigenvalues --   -0.93232  -0.75735  -0.66799  -0.56672  -0.56512
 Alpha  occ. eigenvalues --   -0.50480  -0.47443  -0.46886  -0.34666  -0.33734
 Alpha virt. eigenvalues --   -0.01966   0.05811   0.07104   0.08350   0.09738
 Alpha virt. eigenvalues --    0.12659   0.14071   0.15312   0.17360   0.19956
 Alpha virt. eigenvalues --    0.20104   0.21527   0.25319   0.26321   0.28852

 Mulliken charges:
               1
     1  C    0.153835
     2  O   -0.345659
     3  C   -0.029700
     4  C   -0.128962
     5  H    0.103663
     6  H    0.087249
     7  H    0.102941
     8  H    0.056633
 Sum of Mulliken charges =   0.00000

 Dipole moment (field-independent basis, Debye):
    X=             -3.5720    Y=              0.6560    Z=             -0.0435  Tot=              3.6320
 Quadrupole moment (field-independent basis, Debye-Ang):
   XX=            -27.2695   YY=            -21.8877   ZZ=            -25.1966
   XY=              0.8407   XZ=             -0.1334   YZ=             -0.0606

 Normal termination of Gaussian 09 at Wed Aug 26 18:42:01 2020.
