 Gaussian 09, Revision D.01,
 Gaussian 09:  ES64L-G09RevD.01 24-Apr-2013

 --------------------
 #p B2PLYPD3/Def2QZVP
 --------------------

 --------
 acrolein
 --------
 Symbolic Z-matrix:
 Charge =  0 Multiplicity = 1

                         Standard orientation:
 ---------------------------------------------------------------------
 Center     Atomic      Atomic             Coordinates (Angstroms)
 Number     Number       Type             X           Y           Z
 ---------------------------------------------------------------------
      1          6           0        0.663787    0.358826   -0.006095
      2          8           0        1.775411   -0.127263    0.034269
      3          6           0       -0.577871   -0.476905   -0.076725
      4          6           0       -1.747041    0.168173    0.045559
      5          1           0       -0.440244   -1.542462   -0.042824
      6          1           0       -1.768313    1.264750   -0.101341
      7          1           0       -2.650319   -0.435664    0.154985
      8          1           0        0.622343    1.430917   -0.061405
 ---------------------------------------------------------------------

 SCF Done:  E(RB2PLYPD3) =  -191.609542634     A.U. after   14 cycles
 E2(B2PLYPD3) =    -0.2475351111D+00 E(B2PLYPD3) =    -0.19185707774560D+03

 The electronic state is 1-A.
 Alpha  occ. eigenvalues --  -19.72364 -10.71246 -10.65766 -10.64694  -1.19128
 Alpha  occ. eigenvalues --   -0.92563  -0.74370  -0.67472  -0.56952  -0.55516
 Alpha  occ. eigenvalues --   -0.50016  -0.47510  -0.46242  -0.34404  -0.33483
 Alpha virt. eigenvalues --   -0.01402   0.05754   0.06996   0.07593   0.09774
 Alpha virt. eigenvalues --    0.12333   0.13798   0.15284   0.17454   0.19676
 Alpha virt. eigenvalues --    0.19969   0.21537   0.24516   0.26255   0.28898

 Mulliken charges:
               1
     1  C    0.155282
     2  O   -0.352307
     3  C   -0.056178
     4  C   -0.130849
     5  H    0.113332
     6  H    0.092782
     7  H    0.099499
     8  H    0.078440
 Sum of Mulliken charges =   0.00000

 Dipole moment (field-independent basis, Debye):
    X=             -3.3848    Y=              0.8059    Z=             -0.0923  Tot=              3.4806
 Quadrupole moment (field-independent basis, Debye-Ang):
   XX=            -27.9113   YY=            -21.3548   ZZ=            -25.2765
   XY=              1.2311   XZ=             -0.3982   YZ=             -0.2330

 Normal termination of Gaussian 09 at Wed Aug 26 15:02:26 2020.
