 Gaussian 09, Revision D.01,
 Gaussian 09:  ES64L-G09RevD.01 24-Apr-2013

 --------------------
 #p B2PLYPD3/Def2QZVP
 --------------------

 --------
 acrolein
 --------
 Symbolic Z-matrix:
 Charge =  0 Multiplicity = 1

                         Standard orientation:
 ---------------------------------------------------------------------
 Center     Atomic      Atomic             Coordinates (Angstroms)
 Number     Number       Type             X           Y           Z
 ---------------------------------------------------------------------
      1          6           0       -0.670296    0.333376    0.004273
      2          8           0       -1.803249   -0.093065    0.011283
      3          6           0        0.566796   -0.471919   -0.049389
      4          6           0        1.757073    0.122491   -0.016215
      5          1           0        0.382375   -1.527177    0.105471
      6          1           0        1.969128    1.408035    0.091803
      7          1           0        2.585874   -0.484122    0.110176
      8          1           0       -0.432814    1.444099   -0.029725
 ---------------------------------------------------------------------

 SCF Done:  E(RB2PLYPD3) =  -191.585915706     A.U. after   13 cycles
 E2(B2PLYPD3) =    -0.2490614704D+00 E(B2PLYPD3) =    -0.19183497717669D+03

 The electronic state is 1-A.
 Alpha  occ. eigenvalues --  -19.73089 -10.71836 -10.67222 -10.64703  -1.19589
 Alpha  occ. eigenvalues --   -0.92983  -0.75349  -0.65678  -0.57031  -0.54201
 Alpha  occ. eigenvalues --   -0.50897  -0.46873  -0.45234  -0.34999  -0.33644
 Alpha virt. eigenvalues --   -0.01937   0.04701   0.06958   0.08059   0.09468
 Alpha virt. eigenvalues --    0.11967   0.13496   0.15191   0.17631   0.18437
 Alpha virt. eigenvalues --    0.19881   0.21918   0.24726   0.26753   0.28077

 Mulliken charges:
               1
     1  C    0.172175
     2  O   -0.346465
     3  C   -0.050235
     4  C   -0.121113
     5  H    0.104021
     6  H    0.080848
     7  H    0.106867
     8  H    0.053902
 Sum of Mulliken charges =   0.00000

 Dipole moment (field-independent basis, Debye):
    X=              3.5118    Y=              0.5555    Z=              0.2400  Tot=              3.5636
 Quadrupole moment (field-independent basis, Debye-Ang):
   XX=            -27.7402   YY=            -21.7689   ZZ=            -25.3822
   XY=             -0.5067   XZ=              0.5543   YZ=             -0.1350

 Normal termination of Gaussian 09 at Wed Aug 26 14:23:22 2020.
