 Gaussian 09, Revision D.01,
 Gaussian 09:  ES64L-G09RevD.01 24-Apr-2013

 --------------------
 #p B2PLYPD3/Def2QZVP
 --------------------

 --------
 acrolein
 --------
 Symbolic Z-matrix:
 Charge =  0 Multiplicity = 1

                         Standard orientation:
 ---------------------------------------------------------------------
 Center     Atomic      Atomic             Coordinates (Angstroms)
 Number     Number       Type             X           Y           Z
 ---------------------------------------------------------------------
      1          6           0       -0.669085    0.332898    0.009877
      2          8           0       -1.793829   -0.110285   -0.027951
      3          6           0        0.557174   -0.466622    0.051147
      4          6           0        1.760423    0.148439   -0.037380
      5          1           0        0.454854   -1.494442    0.040738
      6          1           0        1.827476    1.284932    0.049342
      7          1           0        2.723780   -0.420191   -0.076710
      8          1           0       -0.546549    1.423694    0.068377
 ---------------------------------------------------------------------

 SCF Done:  E(RB2PLYPD3) =  -191.610112369     A.U. after   13 cycles
 E2(B2PLYPD3) =    -0.2477822894D+00 E(B2PLYPD3) =    -0.19185789465882D+03

 The electronic state is 1-A.
 Alpha  occ. eigenvalues --  -19.72591 -10.71325 -10.66949 -10.64387  -1.19473
 Alpha  occ. eigenvalues --   -0.92673  -0.74949  -0.67424  -0.56288  -0.56060
 Alpha  occ. eigenvalues --   -0.50351  -0.47097  -0.46589  -0.34431  -0.33710
 Alpha virt. eigenvalues --   -0.02027   0.05531   0.07189   0.08159   0.09634
 Alpha virt. eigenvalues --    0.12288   0.13900   0.15317   0.17852   0.19451
 Alpha virt. eigenvalues --    0.19940   0.21167   0.24925   0.26331   0.28969

 Mulliken charges:
               1
     1  C    0.156753
     2  O   -0.349533
     3  C   -0.044893
     4  C   -0.124900
     5  H    0.111603
     6  H    0.083785
     7  H    0.100060
     8  H    0.067125
 Sum of Mulliken charges =   0.00000

 Dipole moment (field-independent basis, Debye):
    X=              3.5523    Y=              0.6857    Z=              0.1031  Tot=              3.6194
 Quadrupole moment (field-independent basis, Debye-Ang):
   XX=            -27.4364   YY=            -21.7593   ZZ=            -25.3138
   XY=             -0.9576   XZ=             -0.2507   YZ=              0.1044

 Normal termination of Gaussian 09 at Wed Aug 26 10:07:33 2020.
