 Gaussian 09, Revision D.01,
 Gaussian 09:  ES64L-G09RevD.01 24-Apr-2013

 --------------------
 #p B2PLYPD3/Def2QZVP
 --------------------

 --------
 acrolein
 --------
 Symbolic Z-matrix:
 Charge =  0 Multiplicity = 1

                         Standard orientation:
 ---------------------------------------------------------------------
 Center     Atomic      Atomic             Coordinates (Angstroms)
 Number     Number       Type             X           Y           Z
 ---------------------------------------------------------------------
      1          6           0        0.694477   -0.339662    0.065933
      2          8           0        1.794337    0.095833   -0.061668
      3          6           0       -0.574241    0.485458    0.109148
      4          6           0       -1.761023   -0.169847   -0.070122
      5          1           0       -0.528225    1.605131   -0.063052
      6          1           0       -1.926770   -1.342858    0.046783
      7          1           0       -2.616189    0.417130   -0.116416
      8          1           0        0.561209   -1.301761   -0.003732
 ---------------------------------------------------------------------

 SCF Done:  E(RB2PLYPD3) =  -191.586606825     A.U. after   13 cycles
 E2(B2PLYPD3) =    -0.2472043415D+00 E(B2PLYPD3) =    -0.19183381116642D+03

 The electronic state is 1-A.
 Alpha  occ. eigenvalues --  -19.72533 -10.70239 -10.66269 -10.65542  -1.20652
 Alpha  occ. eigenvalues --   -0.91593  -0.75586  -0.67741  -0.56331  -0.55929
 Alpha  occ. eigenvalues --   -0.50414  -0.47079  -0.46225  -0.34365  -0.33528
 Alpha virt. eigenvalues --   -0.01517   0.05638   0.07070   0.07378   0.09533
 Alpha virt. eigenvalues --    0.12531   0.13974   0.15467   0.17907   0.19310
 Alpha virt. eigenvalues --    0.19797   0.21695   0.23567   0.27214   0.27994

 Mulliken charges:
               1
     1  C    0.170764
     2  O   -0.338097
     3  C   -0.070162
     4  C   -0.129328
     5  H    0.101065
     6  H    0.080728
     7  H    0.100622
     8  H    0.084408
 Sum of Mulliken charges =   0.00000

 Dipole moment (field-independent basis, Debye):
    X=             -3.3384    Y=             -0.7980    Z=              0.0874  Tot=              3.4336
 Quadrupole moment (field-independent basis, Debye-Ang):
   XX=            -27.6524   YY=            -21.3968   ZZ=            -25.3279
   XY=             -0.8727   XZ=              0.5669   YZ=             -0.3087

 Normal termination of Gaussian 09 at Wed Aug 26 12:40:44 2020.
