 Gaussian 09, Revision D.01,
 Gaussian 09:  ES64L-G09RevD.01 24-Apr-2013

 --------------------
 #p B2PLYPD3/Def2QZVP
 --------------------

 --------
 acrolein
 --------
 Symbolic Z-matrix:
 Charge =  0 Multiplicity = 1

                         Standard orientation:
 ---------------------------------------------------------------------
 Center     Atomic      Atomic             Coordinates (Angstroms)
 Number     Number       Type             X           Y           Z
 ---------------------------------------------------------------------
      1          6           0        0.658472    0.357957    0.035007
      2          8           0        1.786836   -0.126436   -0.034914
      3          6           0       -0.571582   -0.455637    0.012326
      4          6           0       -1.741965    0.151494   -0.030302
      5          1           0       -0.463530   -1.536990    0.120536
      6          1           0       -1.790718    1.193792   -0.010677
      7          1           0       -2.633255   -0.411628   -0.027845
      8          1           0        0.523268    1.443435    0.095110
 ---------------------------------------------------------------------

 SCF Done:  E(RB2PLYPD3) =  -191.613669237     A.U. after   12 cycles
 E2(B2PLYPD3) =    -0.2474254720D+00 E(B2PLYPD3) =    -0.19186109470910D+03

 The electronic state is 1-A.
 Alpha  occ. eigenvalues --  -19.72744 -10.71724 -10.64504 -10.64326  -1.18315
 Alpha  occ. eigenvalues --   -0.93584  -0.75645  -0.67352  -0.57136  -0.56355
 Alpha  occ. eigenvalues --   -0.50301  -0.47533  -0.45945  -0.34818  -0.33877
 Alpha virt. eigenvalues --   -0.01680   0.05852   0.06981   0.07929   0.09786
 Alpha virt. eigenvalues --    0.12717   0.14034   0.15208   0.17370   0.19926
 Alpha virt. eigenvalues --    0.20157   0.21801   0.25408   0.26496   0.29009

 Mulliken charges:
               1
     1  C    0.148963
     2  O   -0.358327
     3  C   -0.032642
     4  C   -0.130740
     5  H    0.105041
     6  H    0.086015
     7  H    0.101532
     8  H    0.080160
 Sum of Mulliken charges =   0.00000

 Dipole moment (field-independent basis, Debye):
    X=             -3.5433    Y=              0.8172    Z=              0.2302  Tot=              3.6436
 Quadrupole moment (field-independent basis, Debye-Ang):
   XX=            -27.7319   YY=            -21.5418   ZZ=            -25.1302
   XY=              1.0320   XZ=              0.1830   YZ=             -0.1220

 Normal termination of Gaussian 09 at Wed Aug 26 08:35:09 2020.
