 Gaussian 09, Revision D.01,
 Gaussian 09:  ES64L-G09RevD.01 24-Apr-2013

 --------------------
 #p B2PLYPD3/Def2QZVP
 --------------------

 --------
 acrolein
 --------
 Symbolic Z-matrix:
 Charge =  0 Multiplicity = 1

                         Standard orientation:
 ---------------------------------------------------------------------
 Center     Atomic      Atomic             Coordinates (Angstroms)
 Number     Number       Type             X           Y           Z
 ---------------------------------------------------------------------
      1          6           0       -0.630362    0.311457   -0.034677
      2          8           0       -1.808330   -0.088675    0.066912
      3          6           0        0.601904   -0.469771   -0.082078
      4          6           0        1.733956    0.172414    0.036285
      5          1           0        0.447228   -1.529266   -0.136566
      6          1           0        1.698873    1.201699    0.007839
      7          1           0        2.543121   -0.375427    0.279542
      8          1           0       -0.455569    1.327798   -0.203293
 ---------------------------------------------------------------------

 SCF Done:  E(RB2PLYPD3) =  -191.598039205     A.U. after   13 cycles
 E2(B2PLYPD3) =    -0.2479040198D+00 E(B2PLYPD3) =    -0.19184594322448D+03

 The electronic state is 1-A.
 Alpha  occ. eigenvalues --  -19.72661 -10.71092 -10.64250 -10.64092  -1.17051
 Alpha  occ. eigenvalues --   -0.95087  -0.76972  -0.68276  -0.58196  -0.56307
 Alpha  occ. eigenvalues --   -0.50353  -0.48633  -0.45311  -0.35198  -0.33596
 Alpha virt. eigenvalues --   -0.02121   0.05934   0.07095   0.07878   0.09762
 Alpha virt. eigenvalues --    0.13008   0.13791   0.15156   0.17392   0.19515
 Alpha virt. eigenvalues --    0.20308   0.22103   0.24824   0.26762   0.28622

 Mulliken charges:
               1
     1  C    0.148571
     2  O   -0.375238
     3  C   -0.019663
     4  C   -0.126133
     5  H    0.102466
     6  H    0.090922
     7  H    0.105136
     8  H    0.073939
 Sum of Mulliken charges =   0.00000

 Dipole moment (field-independent basis, Debye):
    X=              3.7840    Y=              0.6475    Z=             -0.1404  Tot=              3.8416
 Quadrupole moment (field-independent basis, Debye-Ang):
   XX=            -28.1786   YY=            -21.6687   ZZ=            -24.8402
   XY=             -0.7376   XZ=              0.9841   YZ=             -0.0647

 Normal termination of Gaussian 09 at Wed Aug 26 14:46:02 2020.
