 Gaussian 09, Revision D.01,
 Gaussian 09:  ES64L-G09RevD.01 24-Apr-2013

 --------------------
 #p B2PLYPD3/Def2QZVP
 --------------------

 --------
 acrolein
 --------
 Symbolic Z-matrix:
 Charge =  0 Multiplicity = 1

                         Standard orientation:
 ---------------------------------------------------------------------
 Center     Atomic      Atomic             Coordinates (Angstroms)
 Number     Number       Type             X           Y           Z
 ---------------------------------------------------------------------
      1          6           0        0.668063    0.335683   -0.015101
      2          8           0        1.786124   -0.111633    0.022217
      3          6           0       -0.556157   -0.442053   -0.034582
      4          6           0       -1.760725    0.142978    0.022115
      5          1           0       -0.431900   -1.553989   -0.022610
      6          1           0       -1.805045    1.228975   -0.019000
      7          1           0       -2.670869   -0.415132    0.062131
      8          1           0        0.511731    1.413565   -0.032847
 ---------------------------------------------------------------------

 SCF Done:  E(RB2PLYPD3) =  -191.615491378     A.U. after   12 cycles
 E2(B2PLYPD3) =    -0.2470375752D+00 E(B2PLYPD3) =    -0.19186252895338D+03

 The electronic state is 1-A.
 Alpha  occ. eigenvalues --  -19.72686 -10.71113 -10.65685 -10.64690  -1.19802
 Alpha  occ. eigenvalues --   -0.93100  -0.75944  -0.66728  -0.56701  -0.56486
 Alpha  occ. eigenvalues --   -0.50758  -0.47054  -0.46536  -0.34638  -0.33849
 Alpha virt. eigenvalues --   -0.01966   0.05788   0.07045   0.08496   0.09758
 Alpha virt. eigenvalues --    0.12606   0.14041   0.15332   0.17313   0.19832
 Alpha virt. eigenvalues --    0.19951   0.21628   0.25381   0.26533   0.28886

 Mulliken charges:
               1
     1  C    0.156289
     2  O   -0.347325
     3  C   -0.029723
     4  C   -0.133134
     5  H    0.097182
     6  H    0.084644
     7  H    0.108738
     8  H    0.063330
 Sum of Mulliken charges =   0.00000

 Dipole moment (field-independent basis, Debye):
    X=             -3.5340    Y=              0.7156    Z=             -0.0560  Tot=              3.6061
 Quadrupole moment (field-independent basis, Debye-Ang):
   XX=            -27.3240   YY=            -21.8460   ZZ=            -25.2017
   XY=              0.9251   XZ=             -0.2338   YZ=             -0.0598

 Normal termination of Gaussian 09 at Wed Aug 26 16:24:13 2020.
