 Gaussian 09, Revision D.01,
 Gaussian 09:  ES64L-G09RevD.01 24-Apr-2013

 --------------------
 #p B2PLYPD3/Def2QZVP
 --------------------

 --------
 acrolein
 --------
 Symbolic Z-matrix:
 Charge =  0 Multiplicity = 1

                         Standard orientation:
 ---------------------------------------------------------------------
 Center     Atomic      Atomic             Coordinates (Angstroms)
 Number     Number       Type             X           Y           Z
 ---------------------------------------------------------------------
      1          6           0       -0.663980    0.339873   -0.018878
      2          8           0       -1.794457   -0.106901    0.021717
      3          6           0        0.560313   -0.459981   -0.031724
      4          6           0        1.753159    0.144211    0.003014
      5          1           0        0.414622   -1.549451    0.009046
      6          1           0        1.847074    1.233652    0.035203
      7          1           0        2.688476   -0.403448    0.086773
      8          1           0       -0.491470    1.429837   -0.019231
 ---------------------------------------------------------------------

 SCF Done:  E(RB2PLYPD3) =  -191.615720205     A.U. after   12 cycles
 E2(B2PLYPD3) =    -0.2477007449D+00 E(B2PLYPD3) =    -0.19186342095033D+03

 The electronic state is 1-A.
 Alpha  occ. eigenvalues --  -19.72761 -10.71489 -10.65935 -10.64780  -1.19116
 Alpha  occ. eigenvalues --   -0.93040  -0.75591  -0.66830  -0.56639  -0.56052
 Alpha  occ. eigenvalues --   -0.50476  -0.46762  -0.46593  -0.34698  -0.33817
 Alpha virt. eigenvalues --   -0.01970   0.05675   0.07104   0.08170   0.09701
 Alpha virt. eigenvalues --    0.12565   0.14021   0.15313   0.17338   0.19770
 Alpha virt. eigenvalues --    0.19939   0.21563   0.25277   0.26561   0.28704

 Mulliken charges:
               1
     1  C    0.158142
     2  O   -0.353736
     3  C   -0.035476
     4  C   -0.127287
     5  H    0.104999
     6  H    0.084868
     7  H    0.101721
     8  H    0.066769
 Sum of Mulliken charges =   0.00000

 Dipole moment (field-independent basis, Debye):
    X=              3.5835    Y=              0.7176    Z=              0.0377  Tot=              3.6549
 Quadrupole moment (field-independent basis, Debye-Ang):
   XX=            -27.4582   YY=            -21.7729   ZZ=            -25.2534
   XY=             -0.7063   XZ=              0.3900   YZ=             -0.0363

 Normal termination of Gaussian 09 at Wed Aug 26 12:24:09 2020.
