 Gaussian 09, Revision D.01,
 Gaussian 09:  ES64L-G09RevD.01 24-Apr-2013

 --------------------
 #p B2PLYPD3/Def2QZVP
 --------------------

 --------
 acrolein
 --------
 Symbolic Z-matrix:
 Charge =  0 Multiplicity = 1

                         Standard orientation:
 ---------------------------------------------------------------------
 Center     Atomic      Atomic             Coordinates (Angstroms)
 Number     Number       Type             X           Y           Z
 ---------------------------------------------------------------------
      1          6           0       -0.675776    0.341398    0.025579
      2          8           0       -1.790472   -0.118677   -0.035287
      3          6           0        0.561423   -0.465115    0.037528
      4          6           0        1.761670    0.139640   -0.029763
      5          1           0        0.489890   -1.493492    0.045680
      6          1           0        1.860316    1.236865   -0.061698
      7          1           0        2.617068   -0.384330   -0.022050
      8          1           0       -0.527400    1.494837    0.120300
 ---------------------------------------------------------------------

 SCF Done:  E(RB2PLYPD3) =  -191.608423524     A.U. after   12 cycles
 E2(B2PLYPD3) =    -0.2471923269D+00 E(B2PLYPD3) =    -0.19185561585106D+03

 The electronic state is 1-A.
 Alpha  occ. eigenvalues --  -19.72917 -10.72173 -10.64985 -10.64244  -1.19771
 Alpha  occ. eigenvalues --   -0.92947  -0.75772  -0.66859  -0.57274  -0.56098
 Alpha  occ. eigenvalues --   -0.50691  -0.47823  -0.46802  -0.34533  -0.33695
 Alpha virt. eigenvalues --   -0.01809   0.05847   0.07209   0.08148   0.09685
 Alpha virt. eigenvalues --    0.12597   0.14049   0.15421   0.17545   0.19572
 Alpha virt. eigenvalues --    0.20092   0.21767   0.25245   0.26272   0.28747

 Mulliken charges:
               1
     1  C    0.158043
     2  O   -0.341347
     3  C   -0.046700
     4  C   -0.124175
     5  H    0.108811
     6  H    0.082233
     7  H    0.102746
     8  H    0.060388
 Sum of Mulliken charges =   0.00000

 Dipole moment (field-independent basis, Debye):
    X=              3.4937    Y=              0.6550    Z=              0.1098  Tot=              3.5562
 Quadrupole moment (field-independent basis, Debye-Ang):
   XX=            -27.2763   YY=            -21.7876   ZZ=            -25.2031
   XY=             -0.8994   XZ=             -0.3078   YZ=             -0.0659

 Normal termination of Gaussian 09 at Wed Aug 26 08:38:10 2020.
