 Gaussian 09, Revision D.01,
 Gaussian 09:  ES64L-G09RevD.01 24-Apr-2013

 --------------------
 #p B2PLYPD3/Def2QZVP
 --------------------

 --------
 acrolein
 --------
 Symbolic Z-matrix:
 Charge =  0 Multiplicity = 1

                         Standard orientation:
 ---------------------------------------------------------------------
 Center     Atomic      Atomic             Coordinates (Angstroms)
 Number     Number       Type             X           Y           Z
 ---------------------------------------------------------------------
      1          6           0        0.678087    0.363662   -0.022043
      2          8           0        1.764633   -0.137777    0.022731
      3          6           0       -0.536519   -0.431312   -0.021762
      4          6           0       -1.757726    0.117390    0.004871
      5          1           0       -0.441532   -1.450417    0.004146
      6          1           0       -1.875863    1.213723    0.092965
      7          1           0       -2.678180   -0.415737    0.014620
      8          1           0        0.575453    1.456211   -0.059977
 ---------------------------------------------------------------------

 SCF Done:  E(RB2PLYPD3) =  -191.613525552     A.U. after   13 cycles
 E2(B2PLYPD3) =    -0.2460785898D+00 E(B2PLYPD3) =    -0.19185960414193D+03

 The electronic state is 1-A.
 Alpha  occ. eigenvalues --  -19.72565 -10.71101 -10.65456 -10.63609  -1.20336
 Alpha  occ. eigenvalues --   -0.92906  -0.75653  -0.67713  -0.57080  -0.56715
 Alpha  occ. eigenvalues --   -0.50894  -0.47292  -0.46720  -0.34443  -0.33865
 Alpha virt. eigenvalues --   -0.01709   0.05757   0.07530   0.08414   0.09734
 Alpha virt. eigenvalues --    0.12429   0.14223   0.15497   0.17920   0.19526
 Alpha virt. eigenvalues --    0.20009   0.21552   0.25680   0.26205   0.28965

 Mulliken charges:
               1
     1  C    0.153760
     2  O   -0.343496
     3  C   -0.048956
     4  C   -0.126599
     5  H    0.113016
     6  H    0.074612
     7  H    0.100483
     8  H    0.077180
 Sum of Mulliken charges =   0.00000

 Dipole moment (field-independent basis, Debye):
    X=             -3.3968    Y=              0.8064    Z=             -0.0006  Tot=              3.4912
 Quadrupole moment (field-independent basis, Debye-Ang):
   XX=            -27.0400   YY=            -21.8308   ZZ=            -25.1003
   XY=              1.1242   XZ=             -0.3061   YZ=              0.0639

 Normal termination of Gaussian 09 at Wed Aug 26 09:54:35 2020.
