 Gaussian 09, Revision D.01,
 Gaussian 09:  ES64L-G09RevD.01 24-Apr-2013

 --------------------
 #p B2PLYPD3/Def2QZVP
 --------------------

 --------
 acrolein
 --------
 Symbolic Z-matrix:
 Charge =  0 Multiplicity = 1

                         Standard orientation:
 ---------------------------------------------------------------------
 Center     Atomic      Atomic             Coordinates (Angstroms)
 Number     Number       Type             X           Y           Z
 ---------------------------------------------------------------------
      1          6           0        0.669998    0.341935   -0.010179
      2          8           0        1.782993   -0.105524    0.021741
      3          6           0       -0.557058   -0.465757   -0.036532
      4          6           0       -1.759453    0.145901    0.021398
      5          1           0       -0.416315   -1.546815   -0.031332
      6          1           0       -1.848637    1.270889   -0.032740
      7          1           0       -2.657491   -0.403324    0.081863
      8          1           0        0.537580    1.390961   -0.039845
 ---------------------------------------------------------------------

 SCF Done:  E(RB2PLYPD3) =  -191.613258701     A.U. after   12 cycles
 E2(B2PLYPD3) =    -0.2467043859D+00 E(B2PLYPD3) =    -0.19185996308662D+03

 The electronic state is 1-A.
 Alpha  occ. eigenvalues --  -19.72478 -10.70718 -10.65960 -10.64707  -1.19990
 Alpha  occ. eigenvalues --   -0.92533  -0.75558  -0.67381  -0.56599  -0.56311
 Alpha  occ. eigenvalues --   -0.50699  -0.47126  -0.46753  -0.34393  -0.33712
 Alpha virt. eigenvalues --   -0.01728   0.05707   0.07268   0.08250   0.09676
 Alpha virt. eigenvalues --    0.12517   0.14134   0.15371   0.17532   0.19563
 Alpha virt. eigenvalues --    0.19990   0.21626   0.25211   0.26611   0.28812

 Mulliken charges:
               1
     1  C    0.159339
     2  O   -0.347873
     3  C   -0.046367
     4  C   -0.132684
     5  H    0.105874
     6  H    0.084051
     7  H    0.104808
     8  H    0.072851
 Sum of Mulliken charges =   0.00000

 Dipole moment (field-independent basis, Debye):
    X=             -3.4695    Y=              0.7365    Z=             -0.0551  Tot=              3.5472
 Quadrupole moment (field-independent basis, Debye-Ang):
   XX=            -27.4381   YY=            -21.6303   ZZ=            -25.2275
   XY=              0.8249   XZ=             -0.2581   YZ=             -0.0776

 Normal termination of Gaussian 09 at Wed Aug 26 12:37:03 2020.
