 Gaussian 09, Revision D.01,
 Gaussian 09:  ES64L-G09RevD.01 24-Apr-2013

 --------------------
 #p B2PLYPD3/Def2QZVP
 --------------------

 --------
 acrolein
 --------
 Symbolic Z-matrix:
 Charge =  0 Multiplicity = 1

                         Standard orientation:
 ---------------------------------------------------------------------
 Center     Atomic      Atomic             Coordinates (Angstroms)
 Number     Number       Type             X           Y           Z
 ---------------------------------------------------------------------
      1          6           0       -0.662064    0.327186    0.043850
      2          8           0       -1.793538   -0.094507   -0.029946
      3          6           0        0.565181   -0.479752    0.007628
      4          6           0        1.741404    0.146458   -0.028331
      5          1           0        0.436572   -1.510360    0.060583
      6          1           0        1.886498    1.280499   -0.018149
      7          1           0        2.649679   -0.386248    0.016263
      8          1           0       -0.491565    1.408816    0.041986
 ---------------------------------------------------------------------

 SCF Done:  E(RB2PLYPD3) =  -191.611536315     A.U. after   13 cycles
 E2(B2PLYPD3) =    -0.2469968196D+00 E(B2PLYPD3) =    -0.19185853313496D+03

 The electronic state is 1-A.
 Alpha  occ. eigenvalues --  -19.72644 -10.71197 -10.65924 -10.64216  -1.19415
 Alpha  occ. eigenvalues --   -0.93201  -0.75528  -0.67428  -0.56927  -0.56037
 Alpha  occ. eigenvalues --   -0.50812  -0.46994  -0.46660  -0.34806  -0.33625
 Alpha virt. eigenvalues --   -0.01734   0.05630   0.07347   0.08133   0.09629
 Alpha virt. eigenvalues --    0.12571   0.14141   0.15286   0.17721   0.19482
 Alpha virt. eigenvalues --    0.19992   0.21613   0.25279   0.26651   0.28633

 Mulliken charges:
               1
     1  C    0.158335
     2  O   -0.350617
     3  C   -0.042715
     4  C   -0.122515
     5  H    0.109534
     6  H    0.083441
     7  H    0.098186
     8  H    0.066350
 Sum of Mulliken charges =   0.00000

 Dipole moment (field-independent basis, Debye):
    X=              3.5749    Y=              0.6496    Z=              0.1864  Tot=              3.6382
 Quadrupole moment (field-independent basis, Debye-Ang):
   XX=            -27.4551   YY=            -21.7136   ZZ=            -25.1695
   XY=             -0.5738   XZ=             -0.0900   YZ=             -0.1081

 Normal termination of Gaussian 09 at Wed Aug 26 09:11:47 2020.
