 Gaussian 09, Revision D.01,
 Gaussian 09:  ES64L-G09RevD.01 24-Apr-2013

 --------------------
 #p B2PLYPD3/Def2QZVP
 --------------------

 --------
 acrolein
 --------
 Symbolic Z-matrix:
 Charge =  0 Multiplicity = 1

                         Standard orientation:
 ---------------------------------------------------------------------
 Center     Atomic      Atomic             Coordinates (Angstroms)
 Number     Number       Type             X           Y           Z
 ---------------------------------------------------------------------
      1          6           0       -0.656266    0.345059   -0.041839
      2          8           0       -1.786284   -0.127264    0.031564
      3          6           0        0.563867   -0.421875   -0.011513
      4          6           0        1.746190    0.142006    0.001208
      5          1           0        0.433210   -1.489136   -0.034802
      6          1           0        1.729381    1.157961    0.115338
      7          1           0        2.694233   -0.442620    0.037174
      8          1           0       -0.489302    1.400769   -0.057356
 ---------------------------------------------------------------------

 SCF Done:  E(RB2PLYPD3) =  -191.608950862     A.U. after   12 cycles
 E2(B2PLYPD3) =    -0.2471969778D+00 E(B2PLYPD3) =    -0.19185614783965D+03

 The electronic state is 1-A.
 Alpha  occ. eigenvalues --  -19.72821 -10.71183 -10.64959 -10.63667  -1.18554
 Alpha  occ. eigenvalues --   -0.94361  -0.76295  -0.67865  -0.57231  -0.56377
 Alpha  occ. eigenvalues --   -0.50582  -0.46870  -0.46496  -0.35065  -0.34066
 Alpha virt. eigenvalues --   -0.02057   0.05763   0.07170   0.08338   0.09886
 Alpha virt. eigenvalues --    0.12763   0.13823   0.15216   0.17532   0.19726
 Alpha virt. eigenvalues --    0.20335   0.21591   0.25506   0.26606   0.29081

 Mulliken charges:
               1
     1  C    0.149252
     2  O   -0.360846
     3  C   -0.014857
     4  C   -0.134984
     5  H    0.099308
     6  H    0.084481
     7  H    0.106196
     8  H    0.071450
 Sum of Mulliken charges =   0.00000

 Dipole moment (field-independent basis, Debye):
    X=              3.5904    Y=              0.7804    Z=             -0.0392  Tot=              3.6745
 Quadrupole moment (field-independent basis, Debye-Ang):
   XX=            -27.5108   YY=            -21.8871   ZZ=            -25.0067
   XY=             -1.1461   XZ=              0.3916   YZ=              0.1391

 Normal termination of Gaussian 09 at Wed Aug 26 10:17:57 2020.
