 Gaussian 09, Revision D.01,
 Gaussian 09:  ES64L-G09RevD.01 24-Apr-2013

 --------------------
 #p B2PLYPD3/Def2QZVP
 --------------------

 --------
 acrolein
 --------
 Symbolic Z-matrix:
 Charge =  0 Multiplicity = 1

                         Standard orientation:
 ---------------------------------------------------------------------
 Center     Atomic      Atomic             Coordinates (Angstroms)
 Number     Number       Type             X           Y           Z
 ---------------------------------------------------------------------
      1          6           0       -0.688434    0.365398    0.041841
      2          8           0       -1.768404   -0.140118   -0.035852
      3          6           0        0.541021   -0.434959    0.000818
      4          6           0        1.762384    0.131302   -0.030500
      5          1           0        0.412939   -1.544152    0.121639
      6          1           0        1.851021    1.231794   -0.058729
      7          1           0        2.730433   -0.465553    0.038266
      8          1           0       -0.536985    1.528404    0.112687
 ---------------------------------------------------------------------

 SCF Done:  E(RB2PLYPD3) =  -191.608696907     A.U. after   13 cycles
 E2(B2PLYPD3) =    -0.2479610560D+00 E(B2PLYPD3) =    -0.19185665796296D+03

 The electronic state is 1-A.
 Alpha  occ. eigenvalues --  -19.73045 -10.72168 -10.66333 -10.64876  -1.20757
 Alpha  occ. eigenvalues --   -0.92136  -0.74577  -0.65584  -0.56217  -0.55767
 Alpha  occ. eigenvalues --   -0.50423  -0.47473  -0.45836  -0.34394  -0.33830
 Alpha virt. eigenvalues --   -0.01701   0.05634   0.06710   0.08238   0.09731
 Alpha virt. eigenvalues --    0.12136   0.13804   0.15304   0.17358   0.19559
 Alpha virt. eigenvalues --    0.19914   0.21265   0.25272   0.26387   0.28927

 Mulliken charges:
               1
     1  C    0.160484
     2  O   -0.331823
     3  C   -0.043805
     4  C   -0.130702
     5  H    0.103015
     6  H    0.082513
     7  H    0.102207
     8  H    0.058112
 Sum of Mulliken charges =   0.00000

 Dipole moment (field-independent basis, Debye):
    X=              3.2927    Y=              0.7576    Z=              0.2500  Tot=              3.3879
 Quadrupole moment (field-independent basis, Debye-Ang):
   XX=            -27.1982   YY=            -21.8908   ZZ=            -25.4226
   XY=             -1.0259   XZ=             -0.0896   YZ=             -0.2337

 Normal termination of Gaussian 09 at Wed Aug 26 08:55:51 2020.
