 Gaussian 09, Revision D.01,
 Gaussian 09:  ES64L-G09RevD.01 24-Apr-2013

 --------------------
 #p B2PLYPD3/Def2QZVP
 --------------------

 --------
 acrolein
 --------
 Symbolic Z-matrix:
 Charge =  0 Multiplicity = 1

                         Standard orientation:
 ---------------------------------------------------------------------
 Center     Atomic      Atomic             Coordinates (Angstroms)
 Number     Number       Type             X           Y           Z
 ---------------------------------------------------------------------
      1          6           0        0.673021    0.350053    0.006209
      2          8           0        1.774954   -0.133344   -0.025082
      3          6           0       -0.548980   -0.422927    0.023685
      4          6           0       -1.739550    0.142141   -0.017116
      5          1           0       -0.475579   -1.458550    0.084463
      6          1           0       -1.781610    1.121256   -0.043282
      7          1           0       -2.731786   -0.434807   -0.047774
      8          1           0        0.482392    1.423252    0.130583
 ---------------------------------------------------------------------

 SCF Done:  E(RB2PLYPD3) =  -191.603573802     A.U. after   12 cycles
 E2(B2PLYPD3) =    -0.2461164347D+00 E(B2PLYPD3) =    -0.19184969023685D+03

 The electronic state is 1-A.
 Alpha  occ. eigenvalues --  -19.72872 -10.71289 -10.64699 -10.63265  -1.20020
 Alpha  occ. eigenvalues --   -0.93991  -0.76002  -0.68230  -0.57555  -0.56173
 Alpha  occ. eigenvalues --   -0.50736  -0.47582  -0.46842  -0.34933  -0.33931
 Alpha virt. eigenvalues --   -0.01677   0.05753   0.07254   0.08477   0.09806
 Alpha virt. eigenvalues --    0.12697   0.14020   0.15338   0.17824   0.19676
 Alpha virt. eigenvalues --    0.20453   0.21424   0.25664   0.26523   0.28817

 Mulliken charges:
               1
     1  C    0.142783
     2  O   -0.345389
     3  C   -0.020280
     4  C   -0.137689
     5  H    0.105457
     6  H    0.087000
     7  H    0.097814
     8  H    0.070305
 Sum of Mulliken charges =   0.00000

 Dipole moment (field-independent basis, Debye):
    X=             -3.4543    Y=              0.7908    Z=              0.0998  Tot=              3.5450
 Quadrupole moment (field-independent basis, Debye-Ang):
   XX=            -27.1840   YY=            -21.9684   ZZ=            -24.9705
   XY=              1.0365   XZ=              0.2687   YZ=             -0.0772

 Normal termination of Gaussian 09 at Wed Aug 26 08:56:58 2020.
