 Gaussian 09, Revision D.01,
 Gaussian 09:  ES64L-G09RevD.01 24-Apr-2013

 --------------------
 #p B2PLYPD3/Def2QZVP
 --------------------

 --------
 acrolein
 --------
 Symbolic Z-matrix:
 Charge =  0 Multiplicity = 1

                         Standard orientation:
 ---------------------------------------------------------------------
 Center     Atomic      Atomic             Coordinates (Angstroms)
 Number     Number       Type             X           Y           Z
 ---------------------------------------------------------------------
      1          6           0       -0.670092    0.316092    0.076198
      2          8           0       -1.764816   -0.114344   -0.084412
      3          6           0        0.537547   -0.435491    0.019861
      4          6           0        1.750508    0.150374   -0.021925
      5          1           0        0.371498   -1.454644    0.262218
      6          1           0        1.839872    1.099925   -0.207259
      7          1           0        2.759240   -0.420280   -0.101534
      8          1           0       -0.559855    1.503898    0.277067
 ---------------------------------------------------------------------

 SCF Done:  E(RB2PLYPD3) =  -191.590369229     A.U. after   13 cycles
 E2(B2PLYPD3) =    -0.2471552751D+00 E(B2PLYPD3) =    -0.19183752450420D+03

 The electronic state is 1-A.
 Alpha  occ. eigenvalues --  -19.72893 -10.71726 -10.65630 -10.64384  -1.21164
 Alpha  occ. eigenvalues --   -0.93536  -0.76634  -0.66245  -0.57613  -0.56101
 Alpha  occ. eigenvalues --   -0.50729  -0.48068  -0.46640  -0.34804  -0.33305
 Alpha virt. eigenvalues --   -0.02228   0.05748   0.06930   0.08495   0.09763
 Alpha virt. eigenvalues --    0.12289   0.13840   0.14690   0.17558   0.19423
 Alpha virt. eigenvalues --    0.20515   0.21629   0.24332   0.26746   0.28819

 Mulliken charges:
               1
     1  C    0.143872
     2  O   -0.327344
     3  C   -0.018906
     4  C   -0.124169
     5  H    0.105463
     6  H    0.095383
     7  H    0.090685
     8  H    0.035017
 Sum of Mulliken charges =   0.00000

 Dipole moment (field-independent basis, Debye):
    X=              3.4172    Y=              0.5625    Z=              0.2852  Tot=              3.4749
 Quadrupole moment (field-independent basis, Debye-Ang):
   XX=            -26.7654   YY=            -22.4305   ZZ=            -25.0447
   XY=             -0.5904   XZ=             -0.8694   YZ=             -0.5306

 Normal termination of Gaussian 09 at Wed Aug 26 13:43:27 2020.
