 Gaussian 09, Revision D.01,
 Gaussian 09:  ES64L-G09RevD.01 24-Apr-2013

 --------------------
 #p B2PLYPD3/Def2QZVP
 --------------------

 --------
 acrolein
 --------
 Symbolic Z-matrix:
 Charge =  0 Multiplicity = 1

                         Standard orientation:
 ---------------------------------------------------------------------
 Center     Atomic      Atomic             Coordinates (Angstroms)
 Number     Number       Type             X           Y           Z
 ---------------------------------------------------------------------
      1          6           0       -0.668341    0.329649    0.036704
      2          8           0       -1.798976   -0.099723   -0.045174
      3          6           0        0.573754   -0.459295    0.016299
      4          6           0        1.763471    0.148139   -0.015696
      5          1           0        0.384740   -1.555038    0.130241
      6          1           0        1.906308    1.255686   -0.084917
      7          1           0        2.650005   -0.417190   -0.071385
      8          1           0       -0.562546    1.403371    0.163613
 ---------------------------------------------------------------------

 SCF Done:  E(RB2PLYPD3) =  -191.611700078     A.U. after   12 cycles
 E2(B2PLYPD3) =    -0.2473469813D+00 E(B2PLYPD3) =    -0.19185904705888D+03

 The electronic state is 1-A.
 Alpha  occ. eigenvalues --  -19.72637 -10.71160 -10.65836 -10.65131  -1.19302
 Alpha  occ. eigenvalues --   -0.92856  -0.75774  -0.66614  -0.56822  -0.56094
 Alpha  occ. eigenvalues --   -0.50663  -0.47004  -0.46110  -0.34811  -0.33562
 Alpha virt. eigenvalues --   -0.01860   0.05722   0.07060   0.08213   0.09608
 Alpha virt. eigenvalues --    0.12508   0.13987   0.15188   0.17436   0.19356
 Alpha virt. eigenvalues --    0.20034   0.21750   0.25002   0.26796   0.28556

 Mulliken charges:
               1
     1  C    0.158792
     2  O   -0.351282
     3  C   -0.043907
     4  C   -0.126464
     5  H    0.103394
     6  H    0.088255
     7  H    0.103599
     8  H    0.067613
 Sum of Mulliken charges =   0.00000

 Dipole moment (field-independent basis, Debye):
    X=              3.5509    Y=              0.7057    Z=              0.1804  Tot=              3.6248
 Quadrupole moment (field-independent basis, Debye-Ang):
   XX=            -27.4590   YY=            -21.7434   ZZ=            -25.2305
   XY=             -0.6217   XZ=             -0.4991   YZ=             -0.2074

 Normal termination of Gaussian 09 at Wed Aug 26 09:40:03 2020.
