 Gaussian 09, Revision D.01,
 Gaussian 09:  ES64L-G09RevD.01 24-Apr-2013

 --------------------
 #p B2PLYPD3/Def2QZVP
 --------------------

 --------
 acrolein
 --------
 Symbolic Z-matrix:
 Charge =  0 Multiplicity = 1

                         Standard orientation:
 ---------------------------------------------------------------------
 Center     Atomic      Atomic             Coordinates (Angstroms)
 Number     Number       Type             X           Y           Z
 ---------------------------------------------------------------------
      1          6           0       -0.680803    0.342683    0.023681
      2          8           0       -1.785923   -0.115490   -0.013247
      3          6           0        0.538256   -0.438096   -0.008841
      4          6           0        1.766385    0.127866   -0.014915
      5          1           0        0.399662   -1.496531    0.042199
      6          1           0        1.874417    1.198365   -0.035884
      7          1           0        2.740202   -0.422387    0.059666
      8          1           0       -0.469924    1.449749    0.040442
 ---------------------------------------------------------------------

 SCF Done:  E(RB2PLYPD3) =  -191.613335541     A.U. after   13 cycles
 E2(B2PLYPD3) =    -0.2472541060D+00 E(B2PLYPD3) =    -0.19186058964743D+03

 The electronic state is 1-A.
 Alpha  occ. eigenvalues --  -19.72938 -10.71465 -10.66295 -10.64356  -1.20467
 Alpha  occ. eigenvalues --   -0.92726  -0.75740  -0.66862  -0.56866  -0.55913
 Alpha  occ. eigenvalues --   -0.50799  -0.47400  -0.46656  -0.34447  -0.33850
 Alpha virt. eigenvalues --   -0.02137   0.05649   0.07294   0.08522   0.09734
 Alpha virt. eigenvalues --    0.12464   0.13971   0.15389   0.17635   0.19744
 Alpha virt. eigenvalues --    0.19875   0.21424   0.25418   0.26466   0.28627

 Mulliken charges:
               1
     1  C    0.159349
     2  O   -0.341227
     3  C   -0.031301
     4  C   -0.132069
     5  H    0.104610
     6  H    0.082923
     7  H    0.101169
     8  H    0.056547
 Sum of Mulliken charges =   0.00000

 Dipole moment (field-independent basis, Debye):
    X=              3.4942    Y=              0.7011    Z=              0.1281  Tot=              3.5662
 Quadrupole moment (field-independent basis, Debye-Ang):
   XX=            -26.9824   YY=            -22.0917   ZZ=            -25.2398
   XY=             -0.6960   XZ=              0.0624   YZ=             -0.1303

 Normal termination of Gaussian 09 at Wed Aug 26 09:18:11 2020.
