 Gaussian 09, Revision D.01,
 Gaussian 09:  ES64L-G09RevD.01 24-Apr-2013

 --------------------
 #p B2PLYPD3/Def2QZVP
 --------------------

 --------
 acrolein
 --------
 Symbolic Z-matrix:
 Charge =  0 Multiplicity = 1

                         Standard orientation:
 ---------------------------------------------------------------------
 Center     Atomic      Atomic             Coordinates (Angstroms)
 Number     Number       Type             X           Y           Z
 ---------------------------------------------------------------------
      1          6           0       -0.666181    0.383231   -0.078260
      2          8           0       -1.774103   -0.156796    0.070085
      3          6           0        0.569002   -0.414179   -0.042186
      4          6           0        1.737162    0.131587    0.026588
      5          1           0        0.449834   -1.593366   -0.063643
      6          1           0        1.729335    1.112976    0.332114
      7          1           0        2.676304   -0.406027   -0.041082
      8          1           0       -0.502549    1.536957   -0.224916
 ---------------------------------------------------------------------

 SCF Done:  E(RB2PLYPD3) =  -191.594165991     A.U. after   14 cycles
 E2(B2PLYPD3) =    -0.2492432380D+00 E(B2PLYPD3) =    -0.19184340922919D+03

 The electronic state is 1-A.
 Alpha  occ. eigenvalues --  -19.73343 -10.73032 -10.64755 -10.64017  -1.18081
 Alpha  occ. eigenvalues --   -0.94042  -0.75390  -0.65529  -0.56731  -0.56216
 Alpha  occ. eigenvalues --   -0.50631  -0.46053  -0.45325  -0.35024  -0.34041
 Alpha virt. eigenvalues --   -0.02046   0.05839   0.06415   0.07604   0.09909
 Alpha virt. eigenvalues --    0.12614   0.13727   0.15429   0.16170   0.19200
 Alpha virt. eigenvalues --    0.20629   0.21946   0.24743   0.26490   0.28974

 Mulliken charges:
               1
     1  C    0.156725
     2  O   -0.353336
     3  C   -0.033176
     4  C   -0.122693
     5  H    0.093574
     6  H    0.078479
     7  H    0.104945
     8  H    0.075484
 Sum of Mulliken charges =   0.00000

 Dipole moment (field-independent basis, Debye):
    X=              3.4336    Y=              0.8768    Z=             -0.1199  Tot=              3.5458
 Quadrupole moment (field-independent basis, Debye-Ang):
   XX=            -27.6114   YY=            -21.8730   ZZ=            -25.1324
   XY=             -1.2999   XZ=              0.6700   YZ=              0.3089

 Normal termination of Gaussian 09 at Wed Aug 26 12:28:45 2020.
