 Gaussian 09, Revision D.01,
 Gaussian 09:  ES64L-G09RevD.01 24-Apr-2013

 --------------------
 #p B2PLYPD3/Def2QZVP
 --------------------

 --------
 acrolein
 --------
 Symbolic Z-matrix:
 Charge =  0 Multiplicity = 1

                         Standard orientation:
 ---------------------------------------------------------------------
 Center     Atomic      Atomic             Coordinates (Angstroms)
 Number     Number       Type             X           Y           Z
 ---------------------------------------------------------------------
      1          6           0       -0.693290    0.350135    0.052485
      2          8           0       -1.772742   -0.136900   -0.040508
      3          6           0        0.555726   -0.445342    0.011514
      4          6           0        1.754953    0.138150   -0.028936
      5          1           0        0.473172   -1.425215    0.072336
      6          1           0        1.857175    1.237035   -0.099875
      7          1           0        2.698243   -0.465539    0.042842
      8          1           0       -0.550991    1.491267    0.098383
 ---------------------------------------------------------------------

 SCF Done:  E(RB2PLYPD3) =  -191.606779320     A.U. after   13 cycles
 E2(B2PLYPD3) =    -0.2462238960D+00 E(B2PLYPD3) =    -0.19185300321648D+03

 The electronic state is 1-A.
 Alpha  occ. eigenvalues --  -19.72978 -10.71821 -10.65823 -10.63281  -1.21109
 Alpha  occ. eigenvalues --   -0.92758  -0.74535  -0.67488  -0.56617  -0.56253
 Alpha  occ. eigenvalues --   -0.50894  -0.47548  -0.47176  -0.34610  -0.33649
 Alpha virt. eigenvalues --   -0.01358   0.05723   0.07389   0.08259   0.09762
 Alpha virt. eigenvalues --    0.12310   0.13767   0.15456   0.18118   0.19339
 Alpha virt. eigenvalues --    0.19950   0.21333   0.25376   0.26402   0.28846

 Mulliken charges:
               1
     1  C    0.157009
     2  O   -0.330702
     3  C   -0.051345
     4  C   -0.128434
     5  H    0.113256
     6  H    0.084081
     7  H    0.095419
     8  H    0.060716
 Sum of Mulliken charges =   0.00000

 Dipole moment (field-independent basis, Debye):
    X=              3.2523    Y=              0.7164    Z=              0.1990  Tot=              3.3362
 Quadrupole moment (field-independent basis, Debye-Ang):
   XX=            -27.2198   YY=            -21.8752   ZZ=            -25.1789
   XY=             -1.0585   XZ=             -0.1893   YZ=             -0.2261

 Normal termination of Gaussian 09 at Wed Aug 26 08:43:46 2020.
