 Gaussian 09, Revision D.01,
 Gaussian 09:  ES64L-G09RevD.01 24-Apr-2013

 --------------------
 #p B2PLYPD3/Def2QZVP
 --------------------

 --------
 acrolein
 --------
 Symbolic Z-matrix:
 Charge =  0 Multiplicity = 1

                         Standard orientation:
 ---------------------------------------------------------------------
 Center     Atomic      Atomic             Coordinates (Angstroms)
 Number     Number       Type             X           Y           Z
 ---------------------------------------------------------------------
      1          6           0        0.663016    0.337563   -0.005520
      2          8           0        1.795617   -0.110520    0.013962
      3          6           0       -0.567115   -0.467370   -0.028798
      4          6           0       -1.744178    0.160606   -0.000259
      5          1           0       -0.444805   -1.545316    0.005080
      6          1           0       -1.810575    1.218825    0.002583
      7          1           0       -2.747216   -0.401167    0.097367
      8          1           0        0.527324    1.427030   -0.009263
 ---------------------------------------------------------------------

 SCF Done:  E(RB2PLYPD3) =  -191.612467652     A.U. after   12 cycles
 E2(B2PLYPD3) =    -0.2477482610D+00 E(B2PLYPD3) =    -0.19186021591326D+03

 The electronic state is 1-A.
 Alpha  occ. eigenvalues --  -19.72669 -10.71515 -10.66150 -10.64730  -1.18966
 Alpha  occ. eigenvalues --   -0.93100  -0.75007  -0.67289  -0.56758  -0.55742
 Alpha  occ. eigenvalues --   -0.50226  -0.46789  -0.46482  -0.34748  -0.33758
 Alpha virt. eigenvalues --   -0.01822   0.05602   0.07048   0.08021   0.09663
 Alpha virt. eigenvalues --    0.12448   0.14049   0.15285   0.17420   0.19888
 Alpha virt. eigenvalues --    0.20006   0.21198   0.25234   0.26393   0.28895

 Mulliken charges:
               1
     1  C    0.151617
     2  O   -0.354257
     3  C   -0.034616
     4  C   -0.127901
     5  H    0.108935
     6  H    0.090445
     7  H    0.094945
     8  H    0.070832
 Sum of Mulliken charges =   0.00000

 Dipole moment (field-independent basis, Debye):
    X=             -3.5598    Y=              0.7491    Z=              0.0496  Tot=              3.6381
 Quadrupole moment (field-independent basis, Debye-Ang):
   XX=            -27.5928   YY=            -21.6986   ZZ=            -25.2734
   XY=              0.8061   XZ=             -0.3240   YZ=             -0.0709

 Normal termination of Gaussian 09 at Wed Aug 26 10:08:33 2020.
