 Gaussian 09, Revision D.01,
 Gaussian 09:  ES64L-G09RevD.01 24-Apr-2013

 --------------------
 #p B2PLYPD3/Def2QZVP
 --------------------

 --------
 acrolein
 --------
 Symbolic Z-matrix:
 Charge =  0 Multiplicity = 1

                         Standard orientation:
 ---------------------------------------------------------------------
 Center     Atomic      Atomic             Coordinates (Angstroms)
 Number     Number       Type             X           Y           Z
 ---------------------------------------------------------------------
      1          6           0       -0.693410    0.377884    0.064226
      2          8           0       -1.748444   -0.159178   -0.072142
      3          6           0        0.521490   -0.443423    0.022215
      4          6           0        1.752614    0.143758   -0.014100
      5          1           0        0.454161   -1.489827    0.213251
      6          1           0        1.729603    1.152965   -0.205613
      7          1           0        2.915856   -0.403143   -0.092132
      8          1           0       -0.596236    1.544111    0.227580
 ---------------------------------------------------------------------

 SCF Done:  E(RB2PLYPD3) =  -191.581411649     A.U. after   13 cycles
 E2(B2PLYPD3) =    -0.2488437930D+00 E(B2PLYPD3) =    -0.19183025544235D+03

 The electronic state is 1-A.
 Alpha  occ. eigenvalues --  -19.72986 -10.72362 -10.66781 -10.64616  -1.21115
 Alpha  occ. eigenvalues --   -0.92050  -0.73911  -0.66694  -0.56847  -0.54998
 Alpha  occ. eigenvalues --   -0.49837  -0.47359  -0.45668  -0.34050  -0.33893
 Alpha virt. eigenvalues --   -0.01694   0.05100   0.06587   0.07803   0.09545
 Alpha virt. eigenvalues --    0.11688   0.13964   0.14930   0.17688   0.19210
 Alpha virt. eigenvalues --    0.20156   0.20847   0.24316   0.26014   0.28881

 Mulliken charges:
               1
     1  C    0.151308
     2  O   -0.326927
     3  C   -0.051920
     4  C   -0.131766
     5  H    0.115251
     6  H    0.082653
     7  H    0.090167
     8  H    0.071234
 Sum of Mulliken charges =   0.00000

 Dipole moment (field-independent basis, Debye):
    X=              3.1266    Y=              0.8658    Z=              0.2368  Tot=              3.2529
 Quadrupole moment (field-independent basis, Debye-Ang):
   XX=            -27.0126   YY=            -22.0362   ZZ=            -25.4144
   XY=             -1.3219   XZ=             -0.7715   YZ=             -0.4007

 Normal termination of Gaussian 09 at Wed Aug 26 12:20:40 2020.
