 Gaussian 09, Revision D.01,
 Gaussian 09:  ES64L-G09RevD.01 24-Apr-2013

 --------------------
 #p B2PLYPD3/Def2QZVP
 --------------------

 --------
 acrolein
 --------
 Symbolic Z-matrix:
 Charge =  0 Multiplicity = 1

                         Standard orientation:
 ---------------------------------------------------------------------
 Center     Atomic      Atomic             Coordinates (Angstroms)
 Number     Number       Type             X           Y           Z
 ---------------------------------------------------------------------
      1          6           0       -0.670006    0.355161   -0.006454
      2          8           0       -1.779624   -0.132705   -0.005322
      3          6           0        0.553649   -0.443364    0.018728
      4          6           0        1.755403    0.139660   -0.014591
      5          1           0        0.467908   -1.486429    0.021254
      6          1           0        1.793324    1.202099    0.043672
      7          1           0        2.660712   -0.434408   -0.032360
      8          1           0       -0.519232    1.471643    0.023910
 ---------------------------------------------------------------------

 SCF Done:  E(RB2PLYPD3) =  -191.615198193     A.U. after   12 cycles
 E2(B2PLYPD3) =    -0.2471063568D+00 E(B2PLYPD3) =    -0.19186230454987D+03

 The electronic state is 1-A.
 Alpha  occ. eigenvalues --  -19.72807 -10.71751 -10.65151 -10.63898  -1.19470
 Alpha  occ. eigenvalues --   -0.93229  -0.75515  -0.67301  -0.56928  -0.56298
 Alpha  occ. eigenvalues --   -0.50486  -0.47551  -0.46758  -0.34575  -0.33877
 Alpha virt. eigenvalues --   -0.01821   0.05820   0.07187   0.08190   0.09829
 Alpha virt. eigenvalues --    0.12587   0.13903   0.15355   0.17619   0.19929
 Alpha virt. eigenvalues --    0.19963   0.21587   0.25503   0.26286   0.28990

 Mulliken charges:
               1
     1  C    0.152498
     2  O   -0.348193
     3  C   -0.035846
     4  C   -0.132946
     5  H    0.107467
     6  H    0.084846
     7  H    0.103689
     8  H    0.068485
 Sum of Mulliken charges =   0.00000

 Dipole moment (field-independent basis, Debye):
    X=              3.4771    Y=              0.7538    Z=              0.0387  Tot=              3.5581
 Quadrupole moment (field-independent basis, Debye-Ang):
   XX=            -27.4204   YY=            -21.7496   ZZ=            -25.1654
   XY=             -1.1408   XZ=             -0.0366   YZ=              0.0671

 Normal termination of Gaussian 09 at Wed Aug 26 15:32:02 2020.
