 Gaussian 09, Revision D.01,
 Gaussian 09:  ES64L-G09RevD.01 24-Apr-2013

 --------------------
 #p B2PLYPD3/Def2QZVP
 --------------------

 --------
 acrolein
 --------
 Symbolic Z-matrix:
 Charge =  0 Multiplicity = 1

                         Standard orientation:
 ---------------------------------------------------------------------
 Center     Atomic      Atomic             Coordinates (Angstroms)
 Number     Number       Type             X           Y           Z
 ---------------------------------------------------------------------
      1          6           0        0.669869    0.352126    0.019150
      2          8           0        1.792151   -0.139314   -0.017305
      3          6           0       -0.569741   -0.421878    0.007859
      4          6           0       -1.752547    0.143734   -0.021118
      5          1           0       -0.454984   -1.456745    0.024525
      6          1           0       -1.763699    1.134421   -0.066568
      7          1           0       -2.715670   -0.458981    0.063385
      8          1           0        0.511655    1.451922    0.081750
 ---------------------------------------------------------------------

 SCF Done:  E(RB2PLYPD3) =  -191.605231270     A.U. after   12 cycles
 E2(B2PLYPD3) =    -0.2472292402D+00 E(B2PLYPD3) =    -0.19185246051044D+03

 The electronic state is 1-A.
 Alpha  occ. eigenvalues --  -19.73024 -10.71884 -10.64765 -10.63507  -1.18744
 Alpha  occ. eigenvalues --   -0.94091  -0.75828  -0.67940  -0.57227  -0.56095
 Alpha  occ. eigenvalues --   -0.50499  -0.47370  -0.46460  -0.35038  -0.34002
 Alpha virt. eigenvalues --   -0.01911   0.05731   0.07176   0.08273   0.09890
 Alpha virt. eigenvalues --    0.12558   0.13718   0.15344   0.17638   0.19700
 Alpha virt. eigenvalues --    0.20373   0.21538   0.25593   0.26440   0.29008

 Mulliken charges:
               1
     1  C    0.146450
     2  O   -0.355811
     3  C   -0.020469
     4  C   -0.137771
     5  H    0.105217
     6  H    0.089093
     7  H    0.103750
     8  H    0.069541
 Sum of Mulliken charges =   0.00000

 Dipole moment (field-independent basis, Debye):
    X=             -3.5258    Y=              0.7999    Z=              0.1078  Tot=              3.6170
 Quadrupole moment (field-independent basis, Debye-Ang):
   XX=            -27.4724   YY=            -21.8841   ZZ=            -25.0576
   XY=              1.1677   XZ=              0.0085   YZ=             -0.1134

 Normal termination of Gaussian 09 at Wed Aug 26 08:27:24 2020.
