 Gaussian 09, Revision D.01,
 Gaussian 09:  ES64L-G09RevD.01 24-Apr-2013

 --------------------
 #p B2PLYPD3/Def2QZVP
 --------------------

 --------
 acrolein
 --------
 Symbolic Z-matrix:
 Charge =  0 Multiplicity = 1

                         Standard orientation:
 ---------------------------------------------------------------------
 Center     Atomic      Atomic             Coordinates (Angstroms)
 Number     Number       Type             X           Y           Z
 ---------------------------------------------------------------------
      1          6           0       -0.694445    0.343534    0.096086
      2          8           0       -1.789926   -0.075173   -0.082545
      3          6           0        0.556580   -0.521991    0.051681
      4          6           0        1.777364    0.141983   -0.058329
      5          1           0        0.354800   -1.638465    0.103811
      6          1           0        2.020085    1.401193   -0.071645
      7          1           0        2.602285   -0.368739   -0.057798
      8          1           0       -0.494752    1.426231    0.149362
 ---------------------------------------------------------------------

 SCF Done:  E(RB2PLYPD3) =  -191.573876034     A.U. after   13 cycles
 E2(B2PLYPD3) =    -0.2488545566D+00 E(B2PLYPD3) =    -0.19182273059028D+03

 The electronic state is 1-A.
 Alpha  occ. eigenvalues --  -19.72877 -10.71461 -10.66861 -10.66361  -1.21023
 Alpha  occ. eigenvalues --   -0.90723  -0.75169  -0.66074  -0.56850  -0.54184
 Alpha  occ. eigenvalues --   -0.51095  -0.47202  -0.45749  -0.33785  -0.33362
 Alpha virt. eigenvalues --   -0.01692   0.04916   0.07071   0.07692   0.09266
 Alpha virt. eigenvalues --    0.11934   0.14154   0.15462   0.17134   0.18805
 Alpha virt. eigenvalues --    0.20024   0.21910   0.24495   0.26471   0.28263

 Mulliken charges:
               1
     1  C    0.171455
     2  O   -0.330681
     3  C   -0.069742
     4  C   -0.137385
     5  H    0.106631
     6  H    0.079320
     7  H    0.110059
     8  H    0.070342
 Sum of Mulliken charges =   0.00000

 Dipole moment (field-independent basis, Debye):
    X=              3.2770    Y=              0.6034    Z=              0.3227  Tot=              3.3476
 Quadrupole moment (field-independent basis, Debye-Ang):
   XX=            -27.3666   YY=            -21.4422   ZZ=            -25.6271
   XY=             -0.2279   XZ=             -0.6394   YZ=             -0.1555

 Normal termination of Gaussian 09 at Wed Aug 26 11:56:01 2020.
