 Gaussian 09, Revision D.01,
 Gaussian 09:  ES64L-G09RevD.01 24-Apr-2013

 --------------------
 #p B2PLYPD3/Def2QZVP
 --------------------

 --------
 acrolein
 --------
 Symbolic Z-matrix:
 Charge =  0 Multiplicity = 1

                         Standard orientation:
 ---------------------------------------------------------------------
 Center     Atomic      Atomic             Coordinates (Angstroms)
 Number     Number       Type             X           Y           Z
 ---------------------------------------------------------------------
      1          6           0       -0.669989    0.355860   -0.005561
      2          8           0       -1.790941   -0.117035    0.017454
      3          6           0        0.569774   -0.459867   -0.030243
      4          6           0        1.758260    0.141453    0.005010
      5          1           0        0.420084   -1.541655   -0.017549
      6          1           0        1.845859    1.250888    0.007466
      7          1           0        2.636028   -0.412766    0.095201
      8          1           0       -0.522712    1.415134   -0.039984
 ---------------------------------------------------------------------

 SCF Done:  E(RB2PLYPD3) =  -191.614187775     A.U. after   12 cycles
 E2(B2PLYPD3) =    -0.2471752894D+00 E(B2PLYPD3) =    -0.19186136306454D+03

 The electronic state is 1-A.
 Alpha  occ. eigenvalues --  -19.72746 -10.71331 -10.65310 -10.64587  -1.19085
 Alpha  occ. eigenvalues --   -0.92868  -0.75593  -0.67274  -0.56701  -0.56264
 Alpha  occ. eigenvalues --   -0.50706  -0.46924  -0.46416  -0.34658  -0.33829
 Alpha virt. eigenvalues --   -0.01670   0.05740   0.07263   0.07964   0.09714
 Alpha virt. eigenvalues --    0.12564   0.14054   0.15352   0.17440   0.19591
 Alpha virt. eigenvalues --    0.19940   0.21851   0.25333   0.26617   0.28726

 Mulliken charges:
               1
     1  C    0.159305
     2  O   -0.354270
     3  C   -0.046890
     4  C   -0.130573
     5  H    0.106276
     6  H    0.082714
     7  H    0.104267
     8  H    0.079172
 Sum of Mulliken charges =   0.00000

 Dipole moment (field-independent basis, Debye):
    X=              3.4804    Y=              0.7940    Z=              0.0159  Tot=              3.5698
 Quadrupole moment (field-independent basis, Debye-Ang):
   XX=            -27.6353   YY=            -21.5750   ZZ=            -25.2094
   XY=             -0.8816   XZ=              0.3404   YZ=             -0.0516

 Normal termination of Gaussian 09 at Wed Aug 26 15:22:23 2020.
