 Gaussian 09, Revision D.01,
 Gaussian 09:  ES64L-G09RevD.01 24-Apr-2013

 --------------------
 #p B2PLYPD3/Def2QZVP
 --------------------

 --------
 acrolein
 --------
 Symbolic Z-matrix:
 Charge =  0 Multiplicity = 1

                         Standard orientation:
 ---------------------------------------------------------------------
 Center     Atomic      Atomic             Coordinates (Angstroms)
 Number     Number       Type             X           Y           Z
 ---------------------------------------------------------------------
      1          6           0       -0.685724    0.341178    0.036722
      2          8           0       -1.795157   -0.101482   -0.018098
      3          6           0        0.571280   -0.485762   -0.009987
      4          6           0        1.762079    0.149303   -0.017321
      5          1           0        0.444889   -1.522974    0.037633
      6          1           0        1.937844    1.286728   -0.037307
      7          1           0        2.591680   -0.412288    0.067295
      8          1           0       -0.498968    1.432077    0.020672
 ---------------------------------------------------------------------

 SCF Done:  E(RB2PLYPD3) =  -191.605952378     A.U. after   12 cycles
 E2(B2PLYPD3) =    -0.2467548606D+00 E(B2PLYPD3) =    -0.19185270723830D+03

 The electronic state is 1-A.
 Alpha  occ. eigenvalues --  -19.72864 -10.71498 -10.65403 -10.64515  -1.20391
 Alpha  occ. eigenvalues --   -0.92331  -0.75316  -0.67091  -0.56849  -0.55856
 Alpha  occ. eigenvalues --   -0.51021  -0.47471  -0.47022  -0.34440  -0.33486
 Alpha virt. eigenvalues --   -0.01483   0.05728   0.07435   0.07927   0.09594
 Alpha virt. eigenvalues --    0.12567   0.14051   0.15410   0.17703   0.19317
 Alpha virt. eigenvalues --    0.19979   0.21951   0.25102   0.26648   0.28159

 Mulliken charges:
               1
     1  C    0.162991
     2  O   -0.338244
     3  C   -0.060721
     4  C   -0.129411
     5  H    0.109083
     6  H    0.086743
     7  H    0.100923
     8  H    0.068637
 Sum of Mulliken charges =   0.00000

 Dipole moment (field-independent basis, Debye):
    X=              3.3876    Y=              0.6767    Z=              0.1537  Tot=              3.4580
 Quadrupole moment (field-independent basis, Debye-Ang):
   XX=            -27.4863   YY=            -21.5896   ZZ=            -25.2417
   XY=             -0.5886   XZ=              0.0489   YZ=             -0.1472

 Normal termination of Gaussian 09 at Wed Aug 26 08:38:09 2020.
