 Gaussian 09, Revision D.01,
 Gaussian 09:  ES64L-G09RevD.01 24-Apr-2013

 --------------------
 #p B2PLYPD3/Def2QZVP
 --------------------

 --------
 acrolein
 --------
 Symbolic Z-matrix:
 Charge =  0 Multiplicity = 1

                         Standard orientation:
 ---------------------------------------------------------------------
 Center     Atomic      Atomic             Coordinates (Angstroms)
 Number     Number       Type             X           Y           Z
 ---------------------------------------------------------------------
      1          6           0        0.661768    0.336171    0.021751
      2          8           0        1.800073   -0.108160   -0.020795
      3          6           0       -0.577526   -0.467894    0.014141
      4          6           0       -1.742033    0.154351   -0.024278
      5          1           0       -0.446051   -1.555483    0.031703
      6          1           0       -1.800167    1.244789   -0.034873
      7          1           0       -2.676928   -0.404792    0.027703
      8          1           0        0.469309    1.444990    0.072148
 ---------------------------------------------------------------------

 SCF Done:  E(RB2PLYPD3) =  -191.614990323     A.U. after   12 cycles
 E2(B2PLYPD3) =    -0.2479509810D+00 E(B2PLYPD3) =    -0.19186294130350D+03

 The electronic state is 1-A.
 Alpha  occ. eigenvalues --  -19.72959 -10.71984 -10.65596 -10.64607  -1.18795
 Alpha  occ. eigenvalues --   -0.93396  -0.75173  -0.66643  -0.56412  -0.56027
 Alpha  occ. eigenvalues --   -0.50450  -0.46879  -0.46390  -0.35008  -0.33787
 Alpha virt. eigenvalues --   -0.01736   0.05711   0.06952   0.08021   0.09736
 Alpha virt. eigenvalues --    0.12609   0.13877   0.15273   0.17236   0.19673
 Alpha virt. eigenvalues --    0.20059   0.21521   0.25358   0.26570   0.28733

 Mulliken charges:
               1
     1  C    0.157944
     2  O   -0.353398
     3  C   -0.033436
     4  C   -0.126743
     5  H    0.104094
     6  H    0.086554
     7  H    0.101574
     8  H    0.063412
 Sum of Mulliken charges =   0.00000

 Dipole moment (field-independent basis, Debye):
    X=             -3.5671    Y=              0.6825    Z=              0.1181  Tot=              3.6337
 Quadrupole moment (field-independent basis, Debye-Ang):
   XX=            -27.6830   YY=            -21.7221   ZZ=            -25.2567
   XY=              0.7614   XZ=              0.0655   YZ=             -0.0696

 Normal termination of Gaussian 09 at Wed Aug 26 16:48:53 2020.
