 Gaussian 09, Revision D.01,
 Gaussian 09:  ES64L-G09RevD.01 24-Apr-2013

 --------------------
 #p B2PLYPD3/Def2QZVP
 --------------------

 --------
 acrolein
 --------
 Symbolic Z-matrix:
 Charge =  0 Multiplicity = 1

                         Standard orientation:
 ---------------------------------------------------------------------
 Center     Atomic      Atomic             Coordinates (Angstroms)
 Number     Number       Type             X           Y           Z
 ---------------------------------------------------------------------
      1          6           0        0.684954    0.356578   -0.015225
      2          8           0        1.786581   -0.132918    0.019284
      3          6           0       -0.549155   -0.421122   -0.014215
      4          6           0       -1.767997    0.133225    0.000491
      5          1           0       -0.409285   -1.544884   -0.062422
      6          1           0       -1.815898    1.170992   -0.009354
      7          1           0       -2.754103   -0.452139    0.105438
      8          1           0        0.479832    1.477288   -0.014242
 ---------------------------------------------------------------------

 SCF Done:  E(RB2PLYPD3) =  -191.608071367     A.U. after   12 cycles
 E2(B2PLYPD3) =    -0.2479908649D+00 E(B2PLYPD3) =    -0.19185606223185D+03

 The electronic state is 1-A.
 Alpha  occ. eigenvalues --  -19.73170 -10.72016 -10.65896 -10.64798  -1.20059
 Alpha  occ. eigenvalues --   -0.92847  -0.75491  -0.66215  -0.56559  -0.55896
 Alpha  occ. eigenvalues --   -0.50576  -0.47245  -0.45927  -0.34630  -0.33989
 Alpha virt. eigenvalues --   -0.02034   0.05626   0.06876   0.08376   0.09801
 Alpha virt. eigenvalues --    0.12375   0.13771   0.15334   0.17237   0.19742
 Alpha virt. eigenvalues --    0.19994   0.21430   0.25584   0.26330   0.28767

 Mulliken charges:
               1
     1  C    0.158445
     2  O   -0.341699
     3  C   -0.027852
     4  C   -0.134967
     5  H    0.096999
     6  H    0.084530
     7  H    0.105928
     8  H    0.058615
 Sum of Mulliken charges =   0.00000

 Dipole moment (field-independent basis, Debye):
    X=             -3.4405    Y=              0.7777    Z=             -0.0334  Tot=              3.5275
 Quadrupole moment (field-independent basis, Debye-Ang):
   XX=            -27.1587   YY=            -22.0542   ZZ=            -25.3095
   XY=              0.9536   XZ=             -0.3193   YZ=              0.0048

 Normal termination of Gaussian 09 at Wed Aug 26 10:14:14 2020.
