 Gaussian 09, Revision D.01,
 Gaussian 09:  ES64L-G09RevD.01 24-Apr-2013

 --------------------
 #p B2PLYPD3/Def2QZVP
 --------------------

 --------
 acrolein
 --------
 Symbolic Z-matrix:
 Charge =  0 Multiplicity = 1

                         Standard orientation:
 ---------------------------------------------------------------------
 Center     Atomic      Atomic             Coordinates (Angstroms)
 Number     Number       Type             X           Y           Z
 ---------------------------------------------------------------------
      1          6           0       -0.680658    0.342118    0.039294
      2          8           0       -1.796245   -0.110856   -0.032075
      3          6           0        0.578826   -0.468193    0.022408
      4          6           0        1.770221    0.170076   -0.032856
      5          1           0        0.472627   -1.578490    0.009807
      6          1           0        1.820278    1.212787   -0.082984
      7          1           0        2.601664   -0.417322    0.064066
      8          1           0       -0.534946    1.405870    0.092633
 ---------------------------------------------------------------------

 SCF Done:  E(RB2PLYPD3) =  -191.610088713     A.U. after   13 cycles
 E2(B2PLYPD3) =    -0.2469485101D+00 E(B2PLYPD3) =    -0.19185703722307D+03

 The electronic state is 1-A.
 Alpha  occ. eigenvalues --  -19.72773 -10.71349 -10.65097 -10.64590  -1.19712
 Alpha  occ. eigenvalues --   -0.92552  -0.75677  -0.67175  -0.57378  -0.56119
 Alpha  occ. eigenvalues --   -0.50457  -0.47908  -0.46626  -0.34376  -0.33638
 Alpha virt. eigenvalues --   -0.01732   0.05951   0.07135   0.07971   0.09765
 Alpha virt. eigenvalues --    0.12770   0.14019   0.15460   0.17299   0.19612
 Alpha virt. eigenvalues --    0.20133   0.22042   0.25131   0.26499   0.28608

 Mulliken charges:
               1
     1  C    0.152660
     2  O   -0.344536
     3  C   -0.043937
     4  C   -0.138579
     5  H    0.100450
     6  H    0.091905
     7  H    0.105897
     8  H    0.076140
 Sum of Mulliken charges =   0.00000

 Dipole moment (field-independent basis, Debye):
    X=              3.4111    Y=              0.7618    Z=              0.1414  Tot=              3.4980
 Quadrupole moment (field-independent basis, Debye-Ang):
   XX=            -27.7334   YY=            -21.4951   ZZ=            -25.2200
   XY=             -0.9088   XZ=             -0.1306   YZ=             -0.1125

 Normal termination of Gaussian 09 at Wed Aug 26 20:57:17 2020.
