 Gaussian 09, Revision D.01,
 Gaussian 09:  ES64L-G09RevD.01 24-Apr-2013

 --------------------
 #p B2PLYPD3/Def2QZVP
 --------------------

 --------
 acrolein
 --------
 Symbolic Z-matrix:
 Charge =  0 Multiplicity = 1

                         Standard orientation:
 ---------------------------------------------------------------------
 Center     Atomic      Atomic             Coordinates (Angstroms)
 Number     Number       Type             X           Y           Z
 ---------------------------------------------------------------------
      1          6           0        0.671453    0.373964    0.042391
      2          8           0        1.764825   -0.151592   -0.039485
      3          6           0       -0.542546   -0.396570    0.096122
      4          6           0       -1.733198    0.099088   -0.054461
      5          1           0       -0.457090   -1.465300   -0.090040
      6          1           0       -1.843492    1.254857    0.035222
      7          1           0       -2.690752   -0.481626   -0.070120
      8          1           0        0.498481    1.445921   -0.063498
 ---------------------------------------------------------------------

 SCF Done:  E(RB2PLYPD3) =  -191.603100699     A.U. after   13 cycles
 E2(B2PLYPD3) =    -0.2477025044D+00 E(B2PLYPD3) =    -0.19185080320291D+03

 The electronic state is 1-A.
 Alpha  occ. eigenvalues --  -19.72961 -10.71525 -10.66092 -10.63471  -1.19429
 Alpha  occ. eigenvalues --   -0.93884  -0.75661  -0.66626  -0.56710  -0.56074
 Alpha  occ. eigenvalues --   -0.50861  -0.47084  -0.44354  -0.35382  -0.34131
 Alpha virt. eigenvalues --   -0.01826   0.05554   0.07021   0.07987   0.09823
 Alpha virt. eigenvalues --    0.12204   0.13643   0.15124   0.18134   0.19431
 Alpha virt. eigenvalues --    0.19578   0.21485   0.24336   0.27101   0.28906

 Mulliken charges:
               1
     1  C    0.158375
     2  O   -0.348925
     3  C   -0.040554
     4  C   -0.109160
     5  H    0.103218
     6  H    0.059927
     7  H    0.102775
     8  H    0.074343
 Sum of Mulliken charges =   0.00000

 Dipole moment (field-independent basis, Debye):
    X=             -3.4406    Y=              0.8404    Z=             -0.0035  Tot=              3.5418
 Quadrupole moment (field-independent basis, Debye-Ang):
   XX=            -27.2709   YY=            -22.0300   ZZ=            -25.1166
   XY=              1.3713   XZ=              0.3633   YZ=              0.2592

 Normal termination of Gaussian 09 at Wed Aug 26 11:14:54 2020.
