 Gaussian 09, Revision D.01,
 Gaussian 09:  ES64L-G09RevD.01 24-Apr-2013

 --------------------
 #p B2PLYPD3/Def2QZVP
 --------------------

 --------
 acrolein
 --------
 Symbolic Z-matrix:
 Charge =  0 Multiplicity = 1

                         Standard orientation:
 ---------------------------------------------------------------------
 Center     Atomic      Atomic             Coordinates (Angstroms)
 Number     Number       Type             X           Y           Z
 ---------------------------------------------------------------------
      1          6           0       -0.665819    0.339132   -0.018122
      2          8           0       -1.794419   -0.113085    0.007798
      3          6           0        0.575863   -0.458011   -0.009504
      4          6           0        1.748107    0.160606    0.011237
      5          1           0        0.452801   -1.567366    0.013671
      6          1           0        1.812317    1.221739   -0.022717
      7          1           0        2.672557   -0.419465    0.004187
      8          1           0       -0.531231    1.419407    0.040808
 ---------------------------------------------------------------------

 SCF Done:  E(RB2PLYPD3) =  -191.615155110     A.U. after   12 cycles
 E2(B2PLYPD3) =    -0.2472449674D+00 E(B2PLYPD3) =    -0.19186240007761D+03

 The electronic state is 1-A.
 Alpha  occ. eigenvalues --  -19.72720 -10.71439 -10.65317 -10.64773  -1.19100
 Alpha  occ. eigenvalues --   -0.93223  -0.75352  -0.66932  -0.56782  -0.56196
 Alpha  occ. eigenvalues --   -0.50327  -0.46945  -0.46510  -0.34884  -0.33741
 Alpha virt. eigenvalues --   -0.01670   0.05784   0.06979   0.08084   0.09734
 Alpha virt. eigenvalues --    0.12640   0.14025   0.15285   0.17269   0.19819
 Alpha virt. eigenvalues --    0.20091   0.21595   0.25341   0.26537   0.28753

 Mulliken charges:
               1
     1  C    0.154150
     2  O   -0.351993
     3  C   -0.035519
     4  C   -0.131723
     5  H    0.102210
     6  H    0.090063
     7  H    0.102003
     8  H    0.070808
 Sum of Mulliken charges =   0.00000

 Dipole moment (field-independent basis, Debye):
    X=              3.5242    Y=              0.7487    Z=             -0.0281  Tot=              3.6029
 Quadrupole moment (field-independent basis, Debye-Ang):
   XX=            -27.6424   YY=            -21.6372   ZZ=            -25.2170
   XY=             -0.8951   XZ=              0.0055   YZ=             -0.0383

 Normal termination of Gaussian 09 at Wed Aug 26 15:13:19 2020.
