 Gaussian 09, Revision D.01,
 Gaussian 09:  ES64L-G09RevD.01 24-Apr-2013

 --------------------
 #p B2PLYPD3/Def2QZVP
 --------------------

 --------
 acrolein
 --------
 Symbolic Z-matrix:
 Charge =  0 Multiplicity = 1

                         Standard orientation:
 ---------------------------------------------------------------------
 Center     Atomic      Atomic             Coordinates (Angstroms)
 Number     Number       Type             X           Y           Z
 ---------------------------------------------------------------------
      1          6           0        0.663677    0.334877    0.025484
      2          8           0        1.803301   -0.102304   -0.026455
      3          6           0       -0.578210   -0.468415    0.030271
      4          6           0       -1.747071    0.165351   -0.024413
      5          1           0       -0.450476   -1.523997   -0.019558
      6          1           0       -1.848794    1.225747   -0.088503
      7          1           0       -2.685505   -0.417435    0.035060
      8          1           0        0.527988    1.343238    0.096595
 ---------------------------------------------------------------------

 SCF Done:  E(RB2PLYPD3) =  -191.610134324     A.U. after   12 cycles
 E2(B2PLYPD3) =    -0.2469643288D+00 E(B2PLYPD3) =    -0.19185709865271D+03

 The electronic state is 1-A.
 Alpha  occ. eigenvalues --  -19.72547 -10.70671 -10.65658 -10.64404  -1.18638
 Alpha  occ. eigenvalues --   -0.93243  -0.75737  -0.68444  -0.57130  -0.56044
 Alpha  occ. eigenvalues --   -0.50578  -0.47319  -0.46124  -0.34762  -0.33735
 Alpha virt. eigenvalues --   -0.01805   0.05673   0.07362   0.07969   0.09663
 Alpha virt. eigenvalues --    0.12686   0.13969   0.15366   0.17746   0.19383
 Alpha virt. eigenvalues --    0.20192   0.21571   0.25279   0.26760   0.28646

 Mulliken charges:
               1
     1  C    0.153688
     2  O   -0.360865
     3  C   -0.041754
     4  C   -0.130224
     5  H    0.109764
     6  H    0.090928
     7  H    0.096241
     8  H    0.082222
 Sum of Mulliken charges =   0.00000

 Dipole moment (field-independent basis, Debye):
    X=             -3.5953    Y=              0.7870    Z=              0.0626  Tot=              3.6809
 Quadrupole moment (field-independent basis, Debye-Ang):
   XX=            -27.7549   YY=            -21.5555   ZZ=            -25.1269
   XY=              0.7403   XZ=              0.2141   YZ=             -0.0513

 Normal termination of Gaussian 09 at Wed Aug 26 09:44:00 2020.
