 Gaussian 09, Revision D.01,
 Gaussian 09:  ES64L-G09RevD.01 24-Apr-2013

 --------------------
 #p B2PLYPD3/Def2QZVP
 --------------------

 --------
 acrolein
 --------
 Symbolic Z-matrix:
 Charge =  0 Multiplicity = 1

                         Standard orientation:
 ---------------------------------------------------------------------
 Center     Atomic      Atomic             Coordinates (Angstroms)
 Number     Number       Type             X           Y           Z
 ---------------------------------------------------------------------
      1          6           0       -0.659854    0.356435   -0.033818
      2          8           0       -1.779727   -0.130237    0.035272
      3          6           0        0.550571   -0.420971   -0.047440
      4          6           0        1.743787    0.127348   -0.000547
      5          1           0        0.406639   -1.479077   -0.004393
      6          1           0        1.797644    1.165643    0.040506
      7          1           0        2.748919   -0.418084    0.168081
      8          1           0       -0.522406    1.396540    0.004455
 ---------------------------------------------------------------------

 SCF Done:  E(RB2PLYPD3) =  -191.607522145     A.U. after   13 cycles
 E2(B2PLYPD3) =    -0.2471104481D+00 E(B2PLYPD3) =    -0.19185463259326D+03

 The electronic state is 1-A.
 Alpha  occ. eigenvalues --  -19.72668 -10.70898 -10.65612 -10.63763  -1.18779
 Alpha  occ. eigenvalues --   -0.93948  -0.76075  -0.68175  -0.57385  -0.56012
 Alpha  occ. eigenvalues --   -0.50543  -0.46615  -0.46238  -0.34945  -0.34101
 Alpha virt. eigenvalues --   -0.02020   0.05575   0.07309   0.08343   0.09775
 Alpha virt. eigenvalues --    0.12485   0.14145   0.15315   0.17717   0.19635
 Alpha virt. eigenvalues --    0.19981   0.21480   0.25503   0.26681   0.29004

 Mulliken charges:
               1
     1  C    0.150823
     2  O   -0.361593
     3  C   -0.025777
     4  C   -0.126006
     5  H    0.106963
     6  H    0.079808
     7  H    0.097383
     8  H    0.078400
 Sum of Mulliken charges =   0.00000

 Dipole moment (field-independent basis, Debye):
    X=              3.5615    Y=              0.8668    Z=              0.0580  Tot=              3.6659
 Quadrupole moment (field-independent basis, Debye-Ang):
   XX=            -27.3398   YY=            -21.8988   ZZ=            -25.0310
   XY=             -0.9990   XZ=              0.6557   YZ=             -0.0533

 Normal termination of Gaussian 09 at Wed Aug 26 09:21:32 2020.
