 Gaussian 09, Revision D.01,
 Gaussian 09:  ES64L-G09RevD.01 24-Apr-2013

 --------------------
 #p B2PLYPD3/Def2QZVP
 --------------------

 --------
 acrolein
 --------
 Symbolic Z-matrix:
 Charge =  0 Multiplicity = 1

                         Standard orientation:
 ---------------------------------------------------------------------
 Center     Atomic      Atomic             Coordinates (Angstroms)
 Number     Number       Type             X           Y           Z
 ---------------------------------------------------------------------
      1          6           0        0.675731    0.318666   -0.047959
      2          8           0        1.797616   -0.097654    0.040950
      3          6           0       -0.571606   -0.465570   -0.014132
      4          6           0       -1.756738    0.155789    0.010089
      5          1           0       -0.421286   -1.516404   -0.056406
      6          1           0       -1.912993    1.280470    0.116900
      7          1           0       -2.688854   -0.440652    0.029036
      8          1           0        0.557883    1.404510   -0.105121
 ---------------------------------------------------------------------

 SCF Done:  E(RB2PLYPD3) =  -191.611670397     A.U. after   13 cycles
 E2(B2PLYPD3) =    -0.2469344310D+00 E(B2PLYPD3) =    -0.19185860482757D+03

 The electronic state is 1-A.
 Alpha  occ. eigenvalues --  -19.72625 -10.71062 -10.66574 -10.64601  -1.20042
 Alpha  occ. eigenvalues --   -0.92744  -0.75090  -0.66967  -0.56520  -0.56033
 Alpha  occ. eigenvalues --   -0.50731  -0.46941  -0.46644  -0.34777  -0.33475
 Alpha virt. eigenvalues --   -0.01723   0.05579   0.07259   0.08316   0.09620
 Alpha virt. eigenvalues --    0.12368   0.13959   0.15306   0.17752   0.19226
 Alpha virt. eigenvalues --    0.20005   0.21431   0.25091   0.26571   0.28443

 Mulliken charges:
               1
     1  C    0.159969
     2  O   -0.344176
     3  C   -0.045632
     4  C   -0.125432
     5  H    0.106770
     6  H    0.090976
     7  H    0.097201
     8  H    0.060323
 Sum of Mulliken charges =   0.00000

 Dipole moment (field-independent basis, Debye):
    X=             -3.4948    Y=              0.6514    Z=             -0.1069  Tot=              3.5566
 Quadrupole moment (field-independent basis, Debye-Ang):
   XX=            -27.4228   YY=            -21.7724   ZZ=            -25.2520
   XY=              0.6343   XZ=             -0.4443   YZ=              0.1986

 Normal termination of Gaussian 09 at Wed Aug 26 09:04:28 2020.
