 Gaussian 09, Revision D.01,
 Gaussian 09:  ES64L-G09RevD.01 24-Apr-2013

 --------------------
 #p B2PLYPD3/Def2QZVP
 --------------------

 --------
 acrolein
 --------
 Symbolic Z-matrix:
 Charge =  0 Multiplicity = 1

                         Standard orientation:
 ---------------------------------------------------------------------
 Center     Atomic      Atomic             Coordinates (Angstroms)
 Number     Number       Type             X           Y           Z
 ---------------------------------------------------------------------
      1          6           0        0.671204    0.350839    0.013770
      2          8           0        1.784025   -0.136850   -0.008476
      3          6           0       -0.554761   -0.439618    0.000253
      4          6           0       -1.741660    0.148617   -0.023209
      5          1           0       -0.469399   -1.526647    0.011623
      6          1           0       -1.761672    1.168120   -0.034351
      7          1           0       -2.783104   -0.436896    0.092504
      8          1           0        0.493276    1.531201    0.053149
 ---------------------------------------------------------------------

 SCF Done:  E(RB2PLYPD3) =  -191.600311769     A.U. after   12 cycles
 E2(B2PLYPD3) =    -0.2485378574D+00 E(B2PLYPD3) =    -0.19184884962640D+03

 The electronic state is 1-A.
 Alpha  occ. eigenvalues --  -19.73162 -10.72623 -10.65866 -10.64409  -1.19511
 Alpha  occ. eigenvalues --   -0.93464  -0.74839  -0.66462  -0.56444  -0.55630
 Alpha  occ. eigenvalues --   -0.49887  -0.46941  -0.46525  -0.34907  -0.33898
 Alpha virt. eigenvalues --   -0.01886   0.05511   0.06637   0.08173   0.09791
 Alpha virt. eigenvalues --    0.12213   0.13743   0.15298   0.17223   0.19643
 Alpha virt. eigenvalues --    0.20315   0.21155   0.25491   0.26047   0.28992

 Mulliken charges:
               1
     1  C    0.152528
     2  O   -0.343531
     3  C   -0.024678
     4  C   -0.127932
     5  H    0.104986
     6  H    0.088674
     7  H    0.097320
     8  H    0.052633
 Sum of Mulliken charges =   0.00000

 Dipole moment (field-independent basis, Debye):
    X=             -3.4672    Y=              0.7133    Z=              0.1095  Tot=              3.5415
 Quadrupole moment (field-independent basis, Debye-Ang):
   XX=            -27.3640   YY=            -21.9729   ZZ=            -25.3181
   XY=              1.0516   XZ=             -0.1565   YZ=             -0.0863

 Normal termination of Gaussian 09 at Wed Aug 26 09:46:28 2020.
