 Gaussian 09, Revision D.01,
 Gaussian 09:  ES64L-G09RevD.01 24-Apr-2013

 --------------------
 #p B2PLYPD3/Def2QZVP
 --------------------

 --------
 acrolein
 --------
 Symbolic Z-matrix:
 Charge =  0 Multiplicity = 1

                         Standard orientation:
 ---------------------------------------------------------------------
 Center     Atomic      Atomic             Coordinates (Angstroms)
 Number     Number       Type             X           Y           Z
 ---------------------------------------------------------------------
      1          6           0        0.662001    0.341870    0.005344
      2          8           0        1.799265   -0.109468   -0.016440
      3          6           0       -0.589110   -0.467975    0.000371
      4          6           0       -1.744974    0.162365   -0.002673
      5          1           0       -0.469109   -1.571102    0.071952
      6          1           0       -1.762323    1.232198   -0.073053
      7          1           0       -2.611985   -0.393602   -0.012490
      8          1           0        0.481794    1.390692    0.126864
 ---------------------------------------------------------------------

 SCF Done:  E(RB2PLYPD3) =  -191.611718075     A.U. after   13 cycles
 E2(B2PLYPD3) =    -0.2472331778D+00 E(B2PLYPD3) =    -0.19185895125308D+03

 The electronic state is 1-A.
 Alpha  occ. eigenvalues --  -19.72878 -10.71520 -10.64608 -10.64447  -1.18666
 Alpha  occ. eigenvalues --   -0.93584  -0.75720  -0.67186  -0.57180  -0.56186
 Alpha  occ. eigenvalues --   -0.50628  -0.47287  -0.46143  -0.35026  -0.33810
 Alpha virt. eigenvalues --   -0.01545   0.05896   0.07037   0.07819   0.09762
 Alpha virt. eigenvalues --    0.12874   0.14017   0.15198   0.17280   0.19601
 Alpha virt. eigenvalues --    0.20266   0.21893   0.25101   0.26937   0.28687

 Mulliken charges:
               1
     1  C    0.154455
     2  O   -0.355194
     3  C   -0.036942
     4  C   -0.131818
     5  H    0.100656
     6  H    0.086327
     7  H    0.104627
     8  H    0.077888
 Sum of Mulliken charges =   0.00000

 Dipole moment (field-independent basis, Debye):
    X=             -3.5226    Y=              0.7467    Z=              0.0811  Tot=              3.6018
 Quadrupole moment (field-independent basis, Debye-Ang):
   XX=            -27.8662   YY=            -21.5656   ZZ=            -25.1236
   XY=              0.9030   XZ=              0.1963   YZ=             -0.1413

 Normal termination of Gaussian 09 at Wed Aug 26 10:08:18 2020.
