 Gaussian 09, Revision D.01,
 Gaussian 09:  ES64L-G09RevD.01 24-Apr-2013

 --------------------
 #p B2PLYPD3/Def2QZVP
 --------------------

 --------
 acrolein
 --------
 Symbolic Z-matrix:
 Charge =  0 Multiplicity = 1

                         Standard orientation:
 ---------------------------------------------------------------------
 Center     Atomic      Atomic             Coordinates (Angstroms)
 Number     Number       Type             X           Y           Z
 ---------------------------------------------------------------------
      1          6           0        0.727480    0.377310   -0.078931
      2          8           0        1.759473   -0.145027    0.070782
      3          6           0       -0.542701   -0.438489   -0.085432
      4          6           0       -1.777969    0.161924    0.011065
      5          1           0       -0.409521   -1.478106    0.021114
      6          1           0       -1.787260    1.147424    0.128678
      7          1           0       -2.874948   -0.480288    0.200115
      8          1           0        0.555092    1.366712    0.003633
 ---------------------------------------------------------------------

 SCF Done:  E(RB2PLYPD3) =  -191.573598552     A.U. after   12 cycles
 E2(B2PLYPD3) =    -0.2465326754D+00 E(B2PLYPD3) =    -0.19182013122734D+03

 The electronic state is 1-A.
 Alpha  occ. eigenvalues --  -19.73026 -10.70601 -10.66355 -10.64283  -1.22620
 Alpha  occ. eigenvalues --   -0.91289  -0.74889  -0.69076  -0.57624  -0.55228
 Alpha  occ. eigenvalues --   -0.50207  -0.48319  -0.46328  -0.34115  -0.33328
 Alpha virt. eigenvalues --   -0.01381   0.05201   0.07404   0.07753   0.09787
 Alpha virt. eigenvalues --    0.12144   0.13896   0.15544   0.18251   0.19489
 Alpha virt. eigenvalues --    0.19942   0.20991   0.24761   0.26477   0.28614

 Mulliken charges:
               1
     1  C    0.163761
     2  O   -0.324115
     3  C   -0.064452
     4  C   -0.149446
     5  H    0.112101
     6  H    0.089206
     7  H    0.088506
     8  H    0.084440
 Sum of Mulliken charges =   0.00000

 Dipole moment (field-independent basis, Debye):
    X=             -2.8587    Y=              0.9744    Z=              0.0610  Tot=              3.0208
 Quadrupole moment (field-independent basis, Debye-Ang):
   XX=            -27.2903   YY=            -21.8204   ZZ=            -25.2734
   XY=              1.1844   XZ=             -1.0747   YZ=             -0.0374

 Normal termination of Gaussian 09 at Wed Aug 26 13:49:52 2020.
