 Gaussian 09, Revision D.01,
 Gaussian 09:  ES64L-G09RevD.01 24-Apr-2013

 --------------------
 #p B2PLYPD3/Def2QZVP
 --------------------

 --------
 acrolein
 --------
 Symbolic Z-matrix:
 Charge =  0 Multiplicity = 1

                         Standard orientation:
 ---------------------------------------------------------------------
 Center     Atomic      Atomic             Coordinates (Angstroms)
 Number     Number       Type             X           Y           Z
 ---------------------------------------------------------------------
      1          6           0       -0.659715    0.339178    0.016338
      2          8           0       -1.782944   -0.114651   -0.013105
      3          6           0        0.550301   -0.447958    0.003148
      4          6           0        1.752409    0.137443   -0.016103
      5          1           0        0.464585   -1.540527   -0.004037
      6          1           0        1.869820    1.290174   -0.081909
      7          1           0        2.626789   -0.440663    0.090005
      8          1           0       -0.555609    1.436251    0.080481
 ---------------------------------------------------------------------

 SCF Done:  E(RB2PLYPD3) =  -191.611129028     A.U. after   13 cycles
 E2(B2PLYPD3) =    -0.2475027552D+00 E(B2PLYPD3) =    -0.19185863178343D+03

 The electronic state is 1-A.
 Alpha  occ. eigenvalues --  -19.72467 -10.71178 -10.66166 -10.64553  -1.19293
 Alpha  occ. eigenvalues --   -0.93148  -0.75691  -0.66494  -0.56624  -0.56290
 Alpha  occ. eigenvalues --   -0.50270  -0.46790  -0.46461  -0.34617  -0.33731
 Alpha virt. eigenvalues --   -0.02009   0.05625   0.06948   0.08393   0.09667
 Alpha virt. eigenvalues --    0.12324   0.14081   0.15382   0.17426   0.19110
 Alpha virt. eigenvalues --    0.20047   0.21814   0.25410   0.26350   0.28914

 Mulliken charges:
               1
     1  C    0.154356
     2  O   -0.350494
     3  C   -0.040147
     4  C   -0.125255
     5  H    0.103459
     6  H    0.083166
     7  H    0.106199
     8  H    0.068716
 Sum of Mulliken charges =   0.00000

 Dipole moment (field-independent basis, Debye):
    X=              3.5766    Y=              0.6992    Z=              0.0812  Tot=              3.6453
 Quadrupole moment (field-independent basis, Debye-Ang):
   XX=            -27.5170   YY=            -21.6443   ZZ=            -25.2427
   XY=             -1.0114   XZ=              0.0213   YZ=             -0.1160

 Normal termination of Gaussian 09 at Wed Aug 26 09:01:26 2020.
