 Gaussian 09, Revision D.01,
 Gaussian 09:  ES64L-G09RevD.01 24-Apr-2013

 --------------------
 #p B2PLYPD3/Def2QZVP
 --------------------

 --------
 acrolein
 --------
 Symbolic Z-matrix:
 Charge =  0 Multiplicity = 1

                         Standard orientation:
 ---------------------------------------------------------------------
 Center     Atomic      Atomic             Coordinates (Angstroms)
 Number     Number       Type             X           Y           Z
 ---------------------------------------------------------------------
      1          6           0       -0.678542    0.350156    0.003835
      2          8           0       -1.789872   -0.131909   -0.009444
      3          6           0        0.557946   -0.434442   -0.011697
      4          6           0        1.762306    0.136398   -0.022400
      5          1           0        0.458225   -1.478790    0.094412
      6          1           0        1.826808    1.157988   -0.015153
      7          1           0        2.676725   -0.430511    0.072090
      8          1           0       -0.493040    1.493912    0.105774
 ---------------------------------------------------------------------

 SCF Done:  E(RB2PLYPD3) =  -191.611211512     A.U. after   12 cycles
 E2(B2PLYPD3) =    -0.2473093387D+00 E(B2PLYPD3) =    -0.19185852085071D+03

 The electronic state is 1-A.
 Alpha  occ. eigenvalues --  -19.73140 -10.72243 -10.64826 -10.64039  -1.19680
 Alpha  occ. eigenvalues --   -0.93332  -0.75820  -0.66960  -0.56740  -0.56537
 Alpha  occ. eigenvalues --   -0.50751  -0.47659  -0.46667  -0.34742  -0.33870
 Alpha virt. eigenvalues --   -0.01950   0.05835   0.07083   0.08294   0.09834
 Alpha virt. eigenvalues --    0.12661   0.13840   0.15313   0.17569   0.19748
 Alpha virt. eigenvalues --    0.20169   0.21756   0.25237   0.26544   0.28713

 Mulliken charges:
               1
     1  C    0.154034
     2  O   -0.343586
     3  C   -0.029633
     4  C   -0.130750
     5  H    0.104951
     6  H    0.085554
     7  H    0.101572
     8  H    0.057857
 Sum of Mulliken charges =   0.00000

 Dipole moment (field-independent basis, Debye):
    X=              3.4808    Y=              0.7229    Z=              0.1919  Tot=              3.5602
 Quadrupole moment (field-independent basis, Debye-Ang):
   XX=            -27.2504   YY=            -21.9829   ZZ=            -25.1392
   XY=             -0.9516   XZ=              0.1726   YZ=             -0.1550

 Normal termination of Gaussian 09 at Wed Aug 26 08:35:33 2020.
