 Gaussian 09, Revision D.01,
 Gaussian 09:  ES64L-G09RevD.01 24-Apr-2013

 --------------------
 #p B2PLYPD3/Def2QZVP
 --------------------

 --------
 acrolein
 --------
 Symbolic Z-matrix:
 Charge =  0 Multiplicity = 1

                         Standard orientation:
 ---------------------------------------------------------------------
 Center     Atomic      Atomic             Coordinates (Angstroms)
 Number     Number       Type             X           Y           Z
 ---------------------------------------------------------------------
      1          6           0        0.669750    0.344452    0.007129
      2          8           0        1.798441   -0.119582   -0.012577
      3          6           0       -0.571908   -0.457931    0.003702
      4          6           0       -1.754722    0.149329    0.000373
      5          1           0       -0.451967   -1.531863    0.056088
      6          1           0       -1.807963    1.217877   -0.016987
      7          1           0       -2.688916   -0.412390   -0.052151
      8          1           0        0.502592    1.467931    0.046440
 ---------------------------------------------------------------------

 SCF Done:  E(RB2PLYPD3) =  -191.615404118     A.U. after   12 cycles
 E2(B2PLYPD3) =    -0.2478513031D+00 E(B2PLYPD3) =    -0.19186325542096D+03

 The electronic state is 1-A.
 Alpha  occ. eigenvalues --  -19.72980 -10.72118 -10.65461 -10.64560  -1.18983
 Alpha  occ. eigenvalues --   -0.93148  -0.75228  -0.66758  -0.56416  -0.56217
 Alpha  occ. eigenvalues --   -0.50425  -0.47190  -0.46410  -0.34827  -0.33808
 Alpha virt. eigenvalues --   -0.01819   0.05748   0.07044   0.08007   0.09746
 Alpha virt. eigenvalues --    0.12549   0.13863   0.15277   0.17367   0.19863
 Alpha virt. eigenvalues --    0.19981   0.21507   0.25360   0.26417   0.28834

 Mulliken charges:
               1
     1  C    0.156170
     2  O   -0.350895
     3  C   -0.035726
     4  C   -0.128883
     5  H    0.105830
     6  H    0.086407
     7  H    0.102389
     8  H    0.064707
 Sum of Mulliken charges =   0.00000

 Dipole moment (field-independent basis, Debye):
    X=             -3.5345    Y=              0.7209    Z=              0.0420  Tot=              3.6075
 Quadrupole moment (field-independent basis, Debye-Ang):
   XX=            -27.5416   YY=            -21.7702   ZZ=            -25.2602
   XY=              0.9009   XZ=              0.1907   YZ=             -0.0555

 Normal termination of Gaussian 09 at Wed Aug 26 18:33:11 2020.
