 Gaussian 09, Revision D.01,
 Gaussian 09:  ES64L-G09RevD.01 24-Apr-2013

 --------------------
 #p B2PLYPD3/Def2QZVP
 --------------------

 --------
 acrolein
 --------
 Symbolic Z-matrix:
 Charge =  0 Multiplicity = 1

                         Standard orientation:
 ---------------------------------------------------------------------
 Center     Atomic      Atomic             Coordinates (Angstroms)
 Number     Number       Type             X           Y           Z
 ---------------------------------------------------------------------
      1          6           0        0.664825    0.345458    0.053959
      2          8           0        1.798054   -0.121931   -0.043178
      3          6           0       -0.549199   -0.437520    0.040035
      4          6           0       -1.750492    0.125833   -0.037298
      5          1           0       -0.453507   -1.524055    0.041334
      6          1           0       -1.869772    1.231022   -0.009424
      7          1           0       -2.750023   -0.411162   -0.049396
      8          1           0        0.498069    1.477023    0.022735
 ---------------------------------------------------------------------

 SCF Done:  E(RB2PLYPD3) =  -191.609854892     A.U. after   13 cycles
 E2(B2PLYPD3) =    -0.2489428317D+00 E(B2PLYPD3) =    -0.19185879772335D+03

 The electronic state is 1-A.
 Alpha  occ. eigenvalues --  -19.72962 -10.72151 -10.66565 -10.64634  -1.18493
 Alpha  occ. eigenvalues --   -0.93332  -0.75486  -0.66408  -0.56633  -0.55712
 Alpha  occ. eigenvalues --   -0.50166  -0.46461  -0.45831  -0.34861  -0.33982
 Alpha virt. eigenvalues --   -0.02315   0.05487   0.06928   0.08144   0.09630
 Alpha virt. eigenvalues --    0.12238   0.14064   0.15308   0.17437   0.19764
 Alpha virt. eigenvalues --    0.19890   0.21139   0.25263   0.26336   0.28906

 Mulliken charges:
               1
     1  C    0.158119
     2  O   -0.355224
     3  C   -0.030246
     4  C   -0.118306
     5  H    0.105476
     6  H    0.077122
     7  H    0.099406
     8  H    0.063652
 Sum of Mulliken charges =   0.00000

 Dipole moment (field-independent basis, Debye):
    X=             -3.6697    Y=              0.7305    Z=              0.1486  Tot=              3.7446
 Quadrupole moment (field-independent basis, Debye-Ang):
   XX=            -27.2523   YY=            -21.9657   ZZ=            -25.3293
   XY=              0.8676   XZ=              0.3102   YZ=             -0.0194

 Normal termination of Gaussian 09 at Wed Aug 26 08:38:11 2020.
