 Gaussian 09, Revision D.01,
 Gaussian 09:  ES64L-G09RevD.01 24-Apr-2013

 --------------------
 #p B2PLYPD3/Def2QZVP
 --------------------

 --------
 acrolein
 --------
 Symbolic Z-matrix:
 Charge =  0 Multiplicity = 1

                         Standard orientation:
 ---------------------------------------------------------------------
 Center     Atomic      Atomic             Coordinates (Angstroms)
 Number     Number       Type             X           Y           Z
 ---------------------------------------------------------------------
      1          6           0        0.670875    0.398517    0.053325
      2          8           0        1.773714   -0.165196   -0.060653
      3          6           0       -0.590099   -0.420124    0.123361
      4          6           0       -1.719422    0.134075   -0.072191
      5          1           0       -0.496530   -1.545884   -0.046739
      6          1           0       -1.743999    1.095113    0.011099
      7          1           0       -2.611645   -0.397743   -0.124473
      8          1           0        0.494342    1.495277    0.018364
 ---------------------------------------------------------------------

 SCF Done:  E(RB2PLYPD3) =  -191.588443862     A.U. after   13 cycles
 E2(B2PLYPD3) =    -0.2479242012D+00 E(B2PLYPD3) =    -0.19183636806362D+03

 The electronic state is 1-A.
 Alpha  occ. eigenvalues --  -19.73297 -10.72796 -10.63984 -10.62333  -1.17847
 Alpha  occ. eigenvalues --   -0.94661  -0.75582  -0.67292  -0.57748  -0.56474
 Alpha  occ. eigenvalues --   -0.50677  -0.46069  -0.45680  -0.35596  -0.34105
 Alpha virt. eigenvalues --   -0.01322   0.05888   0.06871   0.07377   0.09999
 Alpha virt. eigenvalues --    0.12735   0.13655   0.14989   0.17369   0.19560
 Alpha virt. eigenvalues --    0.20860   0.22200   0.24325   0.26755   0.28578

 Mulliken charges:
               1
     1  C    0.151618
     2  O   -0.355649
     3  C   -0.036003
     4  C   -0.111021
     5  H    0.096351
     6  H    0.072833
     7  H    0.095528
     8  H    0.086343
 Sum of Mulliken charges =   0.00000

 Dipole moment (field-independent basis, Debye):
    X=             -3.4164    Y=              1.0431    Z=              0.0624  Tot=              3.5727
 Quadrupole moment (field-independent basis, Debye-Ang):
   XX=            -27.6177   YY=            -21.6477   ZZ=            -24.9813
   XY=              1.3026   XZ=              0.5948   YZ=              0.2592

 Normal termination of Gaussian 09 at Wed Aug 26 13:56:58 2020.
