 Gaussian 09, Revision D.01,
 Gaussian 09:  ES64L-G09RevD.01 24-Apr-2013

 --------------------
 #p B2PLYPD3/Def2QZVP
 --------------------

 --------
 acrolein
 --------
 Symbolic Z-matrix:
 Charge =  0 Multiplicity = 1

                         Standard orientation:
 ---------------------------------------------------------------------
 Center     Atomic      Atomic             Coordinates (Angstroms)
 Number     Number       Type             X           Y           Z
 ---------------------------------------------------------------------
      1          6           0       -0.665967    0.330436    0.055058
      2          8           0       -1.789146   -0.104990   -0.041651
      3          6           0        0.559023   -0.471425    0.040327
      4          6           0        1.747922    0.165229   -0.039455
      5          1           0        0.458273   -1.573898    0.028030
      6          1           0        1.806361    1.229288    0.023554
      7          1           0        2.734702   -0.391961   -0.055628
      8          1           0       -0.532031    1.431049    0.001675
 ---------------------------------------------------------------------

 SCF Done:  E(RB2PLYPD3) =  -191.612193054     A.U. after   12 cycles
 E2(B2PLYPD3) =    -0.2478398794D+00 E(B2PLYPD3) =    -0.19186003293352D+03

 The electronic state is 1-A.
 Alpha  occ. eigenvalues --  -19.72615 -10.71442 -10.66254 -10.65119  -1.19545
 Alpha  occ. eigenvalues --   -0.92720  -0.75040  -0.66805  -0.56635  -0.55821
 Alpha  occ. eigenvalues --   -0.50028  -0.47008  -0.46762  -0.34515  -0.33656
 Alpha virt. eigenvalues --   -0.01942   0.05682   0.06949   0.07994   0.09680
 Alpha virt. eigenvalues --    0.12500   0.14136   0.15286   0.17338   0.19837
 Alpha virt. eigenvalues --    0.20193   0.21175   0.24898   0.26428   0.28961

 Mulliken charges:
               1
     1  C    0.152557
     2  O   -0.346521
     3  C   -0.034985
     4  C   -0.129148
     5  H    0.105566
     6  H    0.090440
     7  H    0.097976
     8  H    0.064115
 Sum of Mulliken charges =   0.00000

 Dipole moment (field-independent basis, Debye):
    X=              3.5326    Y=              0.6934    Z=              0.1518  Tot=              3.6032
 Quadrupole moment (field-independent basis, Debye-Ang):
   XX=            -27.4522   YY=            -21.7214   ZZ=            -25.3305
   XY=             -0.8223   XZ=             -0.2744   YZ=              0.0255

 Normal termination of Gaussian 09 at Wed Aug 26 09:21:59 2020.
