 Gaussian 09, Revision D.01,
 Gaussian 09:  ES64L-G09RevD.01 24-Apr-2013

 --------------------
 #p B2PLYPD3/Def2QZVP
 --------------------

 --------
 acrolein
 --------
 Symbolic Z-matrix:
 Charge =  0 Multiplicity = 1

                         Standard orientation:
 ---------------------------------------------------------------------
 Center     Atomic      Atomic             Coordinates (Angstroms)
 Number     Number       Type             X           Y           Z
 ---------------------------------------------------------------------
      1          6           0        0.671681    0.333517   -0.006363
      2          8           0        1.793360   -0.113267    0.031563
      3          6           0       -0.567519   -0.466777   -0.049736
      4          6           0       -1.751752    0.139877    0.017009
      5          1           0       -0.475207   -1.493711   -0.062340
      6          1           0       -1.879297    1.268314    0.007911
      7          1           0       -2.634666   -0.398131    0.142852
      8          1           0        0.527830    1.489956   -0.106388
 ---------------------------------------------------------------------

 SCF Done:  E(RB2PLYPD3) =  -191.609020346     A.U. after   12 cycles
 E2(B2PLYPD3) =    -0.2473712060D+00 E(B2PLYPD3) =    -0.19185639155230D+03

 The electronic state is 1-A.
 Alpha  occ. eigenvalues --  -19.72905 -10.72139 -10.65643 -10.64191  -1.19712
 Alpha  occ. eigenvalues --   -0.93145  -0.75301  -0.66644  -0.57037  -0.55895
 Alpha  occ. eigenvalues --   -0.50655  -0.47391  -0.46683  -0.34827  -0.33541
 Alpha virt. eigenvalues --   -0.01721   0.05726   0.07152   0.08157   0.09614
 Alpha virt. eigenvalues --    0.12413   0.13999   0.15339   0.17599   0.19580
 Alpha virt. eigenvalues --    0.19841   0.21626   0.25207   0.26280   0.28602

 Mulliken charges:
               1
     1  C    0.161183
     2  O   -0.342549
     3  C   -0.047716
     4  C   -0.119520
     5  H    0.110227
     6  H    0.082427
     7  H    0.100641
     8  H    0.055307
 Sum of Mulliken charges =   0.00000

 Dipole moment (field-independent basis, Debye):
    X=             -3.5181    Y=              0.6137    Z=             -0.0305  Tot=              3.5713
 Quadrupole moment (field-independent basis, Debye-Ang):
   XX=            -27.3392   YY=            -21.8457   ZZ=            -25.2070
   XY=              0.8071   XZ=             -0.5025   YZ=             -0.0406

 Normal termination of Gaussian 09 at Wed Aug 26 08:35:45 2020.
