 Gaussian 09, Revision D.01,
 Gaussian 09:  ES64L-G09RevD.01 24-Apr-2013

 --------------------
 #p B2PLYPD3/Def2QZVP
 --------------------

 --------
 acrolein
 --------
 Symbolic Z-matrix:
 Charge =  0 Multiplicity = 1

                         Standard orientation:
 ---------------------------------------------------------------------
 Center     Atomic      Atomic             Coordinates (Angstroms)
 Number     Number       Type             X           Y           Z
 ---------------------------------------------------------------------
      1          6           0        0.681954    0.358325   -0.018484
      2          8           0        1.777464   -0.130589    0.024849
      3          6           0       -0.556119   -0.449460   -0.028568
      4          6           0       -1.747824    0.141652    0.007123
      5          1           0       -0.467059   -1.529494   -0.041432
      6          1           0       -1.817286    1.201919    0.008892
      7          1           0       -2.700189   -0.411420    0.105713
      8          1           0        0.496756    1.480603   -0.032394
 ---------------------------------------------------------------------

 SCF Done:  E(RB2PLYPD3) =  -191.615531870     A.U. after   12 cycles
 E2(B2PLYPD3) =    -0.2469221538D+00 E(B2PLYPD3) =    -0.19186245402376D+03

 The electronic state is 1-A.
 Alpha  occ. eigenvalues --  -19.73000 -10.71961 -10.65240 -10.64278  -1.20293
 Alpha  occ. eigenvalues --   -0.92830  -0.74925  -0.66777  -0.56533  -0.56253
 Alpha  occ. eigenvalues --   -0.50663  -0.47262  -0.46710  -0.34660  -0.33846
 Alpha virt. eigenvalues --   -0.01455   0.05780   0.07102   0.08148   0.09763
 Alpha virt. eigenvalues --    0.12544   0.14005   0.15388   0.17449   0.19817
 Alpha virt. eigenvalues --    0.19992   0.21493   0.25530   0.26342   0.28713

 Mulliken charges:
               1
     1  C    0.154713
     2  O   -0.338347
     3  C   -0.038614
     4  C   -0.131357
     5  H    0.105306
     6  H    0.081882
     7  H    0.099246
     8  H    0.067173
 Sum of Mulliken charges =   0.00000

 Dipole moment (field-independent basis, Debye):
    X=             -3.3598    Y=              0.7639    Z=             -0.0220  Tot=              3.4456
 Quadrupole moment (field-independent basis, Debye-Ang):
   XX=            -27.3173   YY=            -21.8135   ZZ=            -25.2256
   XY=              0.9651   XZ=             -0.3792   YZ=             -0.0123

 Normal termination of Gaussian 09 at Wed Aug 26 18:58:08 2020.
