 Gaussian 09, Revision D.01,
 Gaussian 09:  ES64L-G09RevD.01 24-Apr-2013

 --------------------
 #p B2PLYPD3/Def2QZVP
 --------------------

 --------
 acrolein
 --------
 Symbolic Z-matrix:
 Charge =  0 Multiplicity = 1

                         Standard orientation:
 ---------------------------------------------------------------------
 Center     Atomic      Atomic             Coordinates (Angstroms)
 Number     Number       Type             X           Y           Z
 ---------------------------------------------------------------------
      1          6           0       -0.665695    0.340944    0.003043
      2          8           0       -1.788575   -0.110689    0.011280
      3          6           0        0.567271   -0.459325   -0.023752
      4          6           0        1.752617    0.155481    0.000562
      5          1           0        0.434776   -1.567663   -0.017328
      6          1           0        1.821359    1.243502    0.002888
      7          1           0        2.668542   -0.418306    0.085723
      8          1           0       -0.541239    1.405381   -0.040642
 ---------------------------------------------------------------------

 SCF Done:  E(RB2PLYPD3) =  -191.615029780     A.U. after   12 cycles
 E2(B2PLYPD3) =    -0.2470996342D+00 E(B2PLYPD3) =    -0.19186212941407D+03

 The electronic state is 1-A.
 Alpha  occ. eigenvalues --  -19.72577 -10.71079 -10.65677 -10.64831  -1.19396
 Alpha  occ. eigenvalues --   -0.92935  -0.75398  -0.67036  -0.56644  -0.56239
 Alpha  occ. eigenvalues --   -0.50382  -0.46924  -0.46596  -0.34680  -0.33727
 Alpha virt. eigenvalues --   -0.01719   0.05747   0.07043   0.08171   0.09710
 Alpha virt. eigenvalues --    0.12574   0.14057   0.15324   0.17342   0.19742
 Alpha virt. eigenvalues --    0.19934   0.21604   0.25367   0.26505   0.28842

 Mulliken charges:
               1
     1  C    0.155642
     2  O   -0.351260
     3  C   -0.039197
     4  C   -0.131737
     5  H    0.102892
     6  H    0.087879
     7  H    0.103406
     8  H    0.072375
 Sum of Mulliken charges =   0.00000

 Dipole moment (field-independent basis, Debye):
    X=              3.5053    Y=              0.7548    Z=              0.0268  Tot=              3.5857
 Quadrupole moment (field-independent basis, Debye-Ang):
   XX=            -27.5997   YY=            -21.6119   ZZ=            -25.2315
   XY=             -0.8888   XZ=              0.2808   YZ=             -0.0477

 Normal termination of Gaussian 09 at Wed Aug 26 18:50:31 2020.
