 Gaussian 09, Revision D.01,
 Gaussian 09:  ES64L-G09RevD.01 24-Apr-2013

 --------------------
 #p B2PLYPD3/Def2QZVP
 --------------------

 --------
 acrolein
 --------
 Symbolic Z-matrix:
 Charge =  0 Multiplicity = 1

                         Standard orientation:
 ---------------------------------------------------------------------
 Center     Atomic      Atomic             Coordinates (Angstroms)
 Number     Number       Type             X           Y           Z
 ---------------------------------------------------------------------
      1          6           0        0.654178    0.329924    0.021808
      2          8           0        1.795272   -0.106478   -0.021372
      3          6           0       -0.580091   -0.453264    0.031040
      4          6           0       -1.742670    0.151534   -0.018236
      5          1           0       -0.430268   -1.543570   -0.009095
      6          1           0       -1.805110    1.216757   -0.017912
      7          1           0       -2.640590   -0.392650   -0.033974
      8          1           0        0.525290    1.402127    0.024277
 ---------------------------------------------------------------------

 SCF Done:  E(RB2PLYPD3) =  -191.614639230     A.U. after   12 cycles
 E2(B2PLYPD3) =    -0.2468796239D+00 E(B2PLYPD3) =    -0.19186151885384D+03

 The electronic state is 1-A.
 Alpha  occ. eigenvalues --  -19.72643 -10.71196 -10.64870 -10.64392  -1.18662
 Alpha  occ. eigenvalues --   -0.93922  -0.76052  -0.67204  -0.56953  -0.56824
 Alpha  occ. eigenvalues --   -0.50524  -0.47029  -0.46386  -0.35158  -0.33738
 Alpha virt. eigenvalues --   -0.01748   0.05820   0.07139   0.08290   0.09765
 Alpha virt. eigenvalues --    0.12756   0.14035   0.15268   0.17290   0.19920
 Alpha virt. eigenvalues --    0.20021   0.21850   0.25484   0.26589   0.28842

 Mulliken charges:
               1
     1  C    0.154587
     2  O   -0.358677
     3  C   -0.029132
     4  C   -0.127424
     5  H    0.101382
     6  H    0.087525
     7  H    0.103973
     8  H    0.067766
 Sum of Mulliken charges =   0.00000

 Dipole moment (field-independent basis, Debye):
    X=             -3.6214    Y=              0.7238    Z=              0.0277  Tot=              3.6931
 Quadrupole moment (field-independent basis, Debye-Ang):
   XX=            -27.5647   YY=            -21.7247   ZZ=            -25.0769
   XY=              0.8096   XZ=              0.2233   YZ=              0.0338

 Normal termination of Gaussian 09 at Wed Aug 26 20:21:31 2020.
