 Gaussian 09, Revision D.01,
 Gaussian 09:  ES64L-G09RevD.01 24-Apr-2013

 --------------------
 #p B2PLYPD3/Def2QZVP
 --------------------

 --------
 acrolein
 --------
 Symbolic Z-matrix:
 Charge =  0 Multiplicity = 1

                         Standard orientation:
 ---------------------------------------------------------------------
 Center     Atomic      Atomic             Coordinates (Angstroms)
 Number     Number       Type             X           Y           Z
 ---------------------------------------------------------------------
      1          6           0        0.656166    0.328752    0.034574
      2          8           0        1.799011   -0.100587   -0.024255
      3          6           0       -0.559429   -0.460757    0.007046
      4          6           0       -1.748721    0.147120   -0.019964
      5          1           0       -0.429495   -1.539332    0.029405
      6          1           0       -1.834331    1.250332   -0.058110
      7          1           0       -2.692859   -0.411716    0.035037
      8          1           0        0.476506    1.414723    0.057773
 ---------------------------------------------------------------------

 SCF Done:  E(RB2PLYPD3) =  -191.614651030     A.U. after   13 cycles
 E2(B2PLYPD3) =    -0.2480195527D+00 E(B2PLYPD3) =    -0.19186267058239D+03

 The electronic state is 1-A.
 Alpha  occ. eigenvalues --  -19.72711 -10.71396 -10.66291 -10.64602  -1.18705
 Alpha  occ. eigenvalues --   -0.93362  -0.75705  -0.66941  -0.56519  -0.56072
 Alpha  occ. eigenvalues --   -0.50317  -0.46862  -0.46444  -0.34758  -0.33806
 Alpha virt. eigenvalues --   -0.02168   0.05612   0.07054   0.08238   0.09693
 Alpha virt. eigenvalues --    0.12547   0.13976   0.15276   0.17428   0.19587
 Alpha virt. eigenvalues --    0.20032   0.21454   0.25330   0.26577   0.28827

 Mulliken charges:
               1
     1  C    0.156670
     2  O   -0.357530
     3  C   -0.029329
     4  C   -0.127420
     5  H    0.104467
     6  H    0.086516
     7  H    0.102504
     8  H    0.064122
 Sum of Mulliken charges =   0.00000

 Dipole moment (field-independent basis, Debye):
    X=             -3.6729    Y=              0.6760    Z=              0.1211  Tot=              3.7366
 Quadrupole moment (field-independent basis, Debye-Ang):
   XX=            -27.5243   YY=            -21.7822   ZZ=            -25.2475
   XY=              0.7014   XZ=              0.0989   YZ=             -0.1142

 Normal termination of Gaussian 09 at Wed Aug 26 10:53:26 2020.
