 Gaussian 09, Revision D.01,
 Gaussian 09:  ES64L-G09RevD.01 24-Apr-2013

 --------------------
 #p B2PLYPD3/Def2QZVP
 --------------------

 --------
 acrolein
 --------
 Symbolic Z-matrix:
 Charge =  0 Multiplicity = 1

                         Standard orientation:
 ---------------------------------------------------------------------
 Center     Atomic      Atomic             Coordinates (Angstroms)
 Number     Number       Type             X           Y           Z
 ---------------------------------------------------------------------
      1          6           0       -0.681444    0.374360   -0.067751
      2          8           0       -1.789185   -0.173121    0.070794
      3          6           0        0.568804   -0.397815   -0.060968
      4          6           0        1.739634    0.118227    0.038287
      5          1           0        0.587171   -1.398087   -0.058083
      6          1           0        1.748324    1.106538    0.336304
      7          1           0        2.679628   -0.452950   -0.047444
      8          1           0       -0.463612    1.560836   -0.254532
 ---------------------------------------------------------------------

 SCF Done:  E(RB2PLYPD3) =  -191.585994112     A.U. after   14 cycles
 E2(B2PLYPD3) =    -0.2490087995D+00 E(B2PLYPD3) =    -0.19183500291161D+03

 The electronic state is 1-A.
 Alpha  occ. eigenvalues --  -19.73741 -10.73703 -10.64055 -10.62622  -1.18183
 Alpha  occ. eigenvalues --   -0.94771  -0.75321  -0.67461  -0.57046  -0.55734
 Alpha  occ. eigenvalues --   -0.50783  -0.46834  -0.45990  -0.35156  -0.34180
 Alpha virt. eigenvalues --   -0.02116   0.05767   0.06833   0.07799   0.09895
 Alpha virt. eigenvalues --    0.12668   0.13229   0.15479   0.17259   0.19016
 Alpha virt. eigenvalues --    0.20525   0.21478   0.24683   0.26553   0.28689

 Mulliken charges:
               1
     1  C    0.153927
     2  O   -0.349181
     3  C   -0.023354
     4  C   -0.117228
     5  H    0.097678
     6  H    0.072321
     7  H    0.100038
     8  H    0.065801
 Sum of Mulliken charges =   0.00000

 Dipole moment (field-independent basis, Debye):
    X=              3.4765    Y=              0.7861    Z=             -0.1175  Tot=              3.5662
 Quadrupole moment (field-independent basis, Debye-Ang):
   XX=            -27.4614   YY=            -22.1486   ZZ=            -24.9632
   XY=             -1.5388   XZ=              0.6268   YZ=              0.2799

 Normal termination of Gaussian 09 at Wed Aug 26 14:13:04 2020.
