 Gaussian 09, Revision D.01,
 Gaussian 09:  ES64L-G09RevD.01 24-Apr-2013

 --------------------
 #p B2PLYPD3/Def2QZVP
 --------------------

 --------
 acrolein
 --------
 Symbolic Z-matrix:
 Charge =  0 Multiplicity = 1

                         Standard orientation:
 ---------------------------------------------------------------------
 Center     Atomic      Atomic             Coordinates (Angstroms)
 Number     Number       Type             X           Y           Z
 ---------------------------------------------------------------------
      1          6           0       -0.682997    0.339736    0.054354
      2          8           0       -1.780788   -0.108347   -0.044786
      3          6           0        0.555071   -0.460329    0.020408
      4          6           0        1.765545    0.143272   -0.034534
      5          1           0        0.456099   -1.528110    0.077569
      6          1           0        1.881833    1.282082   -0.060093
      7          1           0        2.610614   -0.425661    0.004070
      8          1           0       -0.527950    1.402390    0.095372
 ---------------------------------------------------------------------

 SCF Done:  E(RB2PLYPD3) =  -191.610470783     A.U. after   12 cycles
 E2(B2PLYPD3) =    -0.2462749482D+00 E(B2PLYPD3) =    -0.19185674573165D+03

 The electronic state is 1-A.
 Alpha  occ. eigenvalues --  -19.72650 -10.70890 -10.65589 -10.64454  -1.20717
 Alpha  occ. eigenvalues --   -0.92392  -0.75697  -0.67164  -0.56806  -0.56333
 Alpha  occ. eigenvalues --   -0.50972  -0.47407  -0.46975  -0.34317  -0.33704
 Alpha virt. eigenvalues --   -0.01641   0.05779   0.07303   0.08338   0.09674
 Alpha virt. eigenvalues --    0.12553   0.14156   0.15414   0.17711   0.19295
 Alpha virt. eigenvalues --    0.20005   0.21899   0.25280   0.26588   0.28677

 Mulliken charges:
               1
     1  C    0.158780
     2  O   -0.337616
     3  C   -0.048570
     4  C   -0.135737
     5  H    0.102601
     6  H    0.083396
     7  H    0.106172
     8  H    0.070974
 Sum of Mulliken charges =   0.00000

 Dipole moment (field-independent basis, Debye):
    X=              3.3701    Y=              0.7095    Z=              0.2184  Tot=              3.4509
 Quadrupole moment (field-independent basis, Debye-Ang):
   XX=            -27.3887   YY=            -21.6433   ZZ=            -25.2074
   XY=             -0.8629   XZ=             -0.2596   YZ=             -0.1541

 Normal termination of Gaussian 09 at Wed Aug 26 09:14:00 2020.
