 Gaussian 09, Revision D.01,
 Gaussian 09:  ES64L-G09RevD.01 24-Apr-2013

 --------------------
 #p B2PLYPD3/Def2QZVP
 --------------------

 --------
 acrolein
 --------
 Symbolic Z-matrix:
 Charge =  0 Multiplicity = 1

                         Standard orientation:
 ---------------------------------------------------------------------
 Center     Atomic      Atomic             Coordinates (Angstroms)
 Number     Number       Type             X           Y           Z
 ---------------------------------------------------------------------
      1          6           0       -0.687197    0.370846   -0.043452
      2          8           0       -1.780828   -0.161354    0.070637
      3          6           0        0.580144   -0.405180   -0.093228
      4          6           0        1.743397    0.124428    0.025715
      5          1           0        0.491892   -1.365249   -0.158668
      6          1           0        1.744452    1.173832   -0.012162
      7          1           0        2.740957   -0.462131    0.343790
      8          1           0       -0.548737    1.403823   -0.072265
 ---------------------------------------------------------------------

 SCF Done:  E(RB2PLYPD3) =  -191.586448178     A.U. after   14 cycles
 E2(B2PLYPD3) =    -0.2465819453D+00 E(B2PLYPD3) =    -0.19183303012301D+03

 The electronic state is 1-A.
 Alpha  occ. eigenvalues --  -19.73133 -10.71547 -10.65115 -10.62204  -1.19110
 Alpha  occ. eigenvalues --   -0.94311  -0.75279  -0.69323  -0.57354  -0.55726
 Alpha  occ. eigenvalues --   -0.51089  -0.47260  -0.45851  -0.35246  -0.34032
 Alpha virt. eigenvalues --   -0.01387   0.05480   0.07394   0.08130   0.09770
 Alpha virt. eigenvalues --    0.12266   0.13729   0.15312   0.18387   0.19258
 Alpha virt. eigenvalues --    0.19917   0.21445   0.25205   0.26604   0.29060

 Mulliken charges:
               1
     1  C    0.141586
     2  O   -0.352440
     3  C   -0.031602
     4  C   -0.131169
     5  H    0.111606
     6  H    0.073046
     7  H    0.099122
     8  H    0.089851
 Sum of Mulliken charges =   0.00000

 Dipole moment (field-independent basis, Debye):
    X=              3.3022    Y=              0.9375    Z=             -0.0862  Tot=              3.4338
 Quadrupole moment (field-independent basis, Debye-Ang):
   XX=            -27.5868   YY=            -21.9235   ZZ=            -24.8321
   XY=             -1.4764   XZ=              1.0958   YZ=             -0.1051

 Normal termination of Gaussian 09 at Wed Aug 26 14:22:03 2020.
