 Gaussian 09, Revision D.01,
 Gaussian 09:  ES64L-G09RevD.01 24-Apr-2013

 --------------------
 #p B2PLYPD3/Def2QZVP
 --------------------

 --------
 acrolein
 --------
 Symbolic Z-matrix:
 Charge =  0 Multiplicity = 1

                         Standard orientation:
 ---------------------------------------------------------------------
 Center     Atomic      Atomic             Coordinates (Angstroms)
 Number     Number       Type             X           Y           Z
 ---------------------------------------------------------------------
      1          6           0        0.671596    0.351120    0.032185
      2          8           0        1.797564   -0.128474   -0.037636
      3          6           0       -0.569333   -0.441552    0.065825
      4          6           0       -1.747998    0.137802   -0.025093
      5          1           0       -0.460214   -1.522516   -0.030784
      6          1           0       -1.793132    1.166887   -0.046014
      7          1           0       -2.691180   -0.408792   -0.096712
      8          1           0        0.438424    1.507996    0.037096
 ---------------------------------------------------------------------

 SCF Done:  E(RB2PLYPD3) =  -191.608950062     A.U. after   13 cycles
 E2(B2PLYPD3) =    -0.2483609511D+00 E(B2PLYPD3) =    -0.19185731101344D+03

 The electronic state is 1-A.
 Alpha  occ. eigenvalues --  -19.73351 -10.72792 -10.64891 -10.64332  -1.18885
 Alpha  occ. eigenvalues --   -0.93673  -0.75520  -0.66518  -0.56656  -0.56096
 Alpha  occ. eigenvalues --   -0.50565  -0.46895  -0.46473  -0.35083  -0.33944
 Alpha virt. eigenvalues --   -0.01904   0.05753   0.06923   0.07997   0.09835
 Alpha virt. eigenvalues --    0.12654   0.13617   0.15201   0.17283   0.19819
 Alpha virt. eigenvalues --    0.20199   0.21602   0.25208   0.26400   0.28746

 Mulliken charges:
               1
     1  C    0.157994
     2  O   -0.349405
     3  C   -0.026275
     4  C   -0.123803
     5  H    0.102135
     6  H    0.082536
     7  H    0.102293
     8  H    0.054526
 Sum of Mulliken charges =   0.00000

 Dipole moment (field-independent basis, Debye):
    X=             -3.5598    Y=              0.7166    Z=             -0.0243  Tot=              3.6312
 Quadrupole moment (field-independent basis, Debye-Ang):
   XX=            -27.3632   YY=            -22.0062   ZZ=            -25.2099
   XY=              0.8679   XZ=              0.5155   YZ=              0.0951

 Normal termination of Gaussian 09 at Wed Aug 26 09:13:33 2020.
