 Gaussian 09, Revision D.01,
 Gaussian 09:  ES64L-G09RevD.01 24-Apr-2013

 --------------------
 #p B2PLYPD3/Def2QZVP
 --------------------

 --------
 acrolein
 --------
 Symbolic Z-matrix:
 Charge =  0 Multiplicity = 1

                         Standard orientation:
 ---------------------------------------------------------------------
 Center     Atomic      Atomic             Coordinates (Angstroms)
 Number     Number       Type             X           Y           Z
 ---------------------------------------------------------------------
      1          6           0       -0.662675    0.332572    0.032382
      2          8           0       -1.784578   -0.099207   -0.029369
      3          6           0        0.572295   -0.466926    0.012234
      4          6           0        1.748497    0.161513   -0.032670
      5          1           0        0.393131   -1.581424    0.083789
      6          1           0        1.866559    1.246166    0.011605
      7          1           0        2.651588   -0.409888   -0.001489
      8          1           0       -0.583365    1.375842    0.069370
 ---------------------------------------------------------------------

 SCF Done:  E(RB2PLYPD3) =  -191.610894644     A.U. after   12 cycles
 E2(B2PLYPD3) =    -0.2465372034D+00 E(B2PLYPD3) =    -0.19185743184771D+03

 The electronic state is 1-A.
 Alpha  occ. eigenvalues --  -19.72331 -10.70485 -10.65558 -10.65079  -1.19693
 Alpha  occ. eigenvalues --   -0.92886  -0.75538  -0.67261  -0.56967  -0.56209
 Alpha  occ. eigenvalues --   -0.50473  -0.47010  -0.46487  -0.34727  -0.33524
 Alpha virt. eigenvalues --   -0.01571   0.05773   0.07042   0.08322   0.09672
 Alpha virt. eigenvalues --    0.12609   0.14149   0.15291   0.17321   0.19687
 Alpha virt. eigenvalues --    0.20005   0.21706   0.25275   0.26585   0.28701

 Mulliken charges:
               1
     1  C    0.157028
     2  O   -0.350579
     3  C   -0.040893
     4  C   -0.130161
     5  H    0.102830
     6  H    0.091343
     7  H    0.100413
     8  H    0.070019
 Sum of Mulliken charges =   0.00000

 Dipole moment (field-independent basis, Debye):
    X=              3.4863    Y=              0.7456    Z=              0.2121  Tot=              3.5715
 Quadrupole moment (field-independent basis, Debye-Ang):
   XX=            -27.5549   YY=            -21.5576   ZZ=            -25.1875
   XY=             -0.6953   XZ=             -0.0904   YZ=             -0.0847

 Normal termination of Gaussian 09 at Wed Aug 26 08:58:56 2020.
