 Gaussian 09, Revision D.01,
 Gaussian 09:  ES64L-G09RevD.01 24-Apr-2013

 --------------------
 #p B2PLYPD3/Def2QZVP
 --------------------

 --------
 acrolein
 --------
 Symbolic Z-matrix:
 Charge =  0 Multiplicity = 1

                         Standard orientation:
 ---------------------------------------------------------------------
 Center     Atomic      Atomic             Coordinates (Angstroms)
 Number     Number       Type             X           Y           Z
 ---------------------------------------------------------------------
      1          6           0        0.682238    0.382828    0.025878
      2          8           0        1.802079   -0.145567   -0.035149
      3          6           0       -0.530663   -0.419648    0.009259
      4          6           0       -1.759761    0.119754   -0.053699
      5          1           0       -0.437992   -1.574818    0.148045
      6          1           0       -1.831251    1.194973   -0.068633
      7          1           0       -2.923452   -0.451902    0.098754
      8          1           0        0.425180    1.498679    0.214396
 ---------------------------------------------------------------------

 SCF Done:  E(RB2PLYPD3) =  -191.576129224     A.U. after   13 cycles
 E2(B2PLYPD3) =    -0.2519991498D+00 E(B2PLYPD3) =    -0.19182812837382D+03

 The electronic state is 1-A.
 Alpha  occ. eigenvalues --  -19.73541 -10.73105 -10.67766 -10.65515  -1.18336
 Alpha  occ. eigenvalues --   -0.92643  -0.74825  -0.65632  -0.56020  -0.54529
 Alpha  occ. eigenvalues --   -0.49522  -0.46141  -0.44108  -0.34584  -0.34370
 Alpha virt. eigenvalues --   -0.02694   0.04636   0.06087   0.07784   0.09468
 Alpha virt. eigenvalues --    0.11736   0.13793   0.15236   0.17112   0.19207
 Alpha virt. eigenvalues --    0.19558   0.20830   0.24912   0.26269   0.28114

 Mulliken charges:
               1
     1  C    0.159061
     2  O   -0.350441
     3  C   -0.031311
     4  C   -0.125867
     5  H    0.103562
     6  H    0.077317
     7  H    0.094379
     8  H    0.073299
 Sum of Mulliken charges =   0.00000

 Dipole moment (field-independent basis, Debye):
    X=             -3.5372    Y=              0.9119    Z=              0.3363  Tot=              3.6683
 Quadrupole moment (field-independent basis, Debye-Ang):
   XX=            -27.3943   YY=            -22.0814   ZZ=            -25.6239
   XY=              0.9295   XZ=             -0.0879   YZ=             -0.2167

 Normal termination of Gaussian 09 at Wed Aug 26 13:26:20 2020.
