 Gaussian 09, Revision D.01,
 Gaussian 09:  ES64L-G09RevD.01 24-Apr-2013

 --------------------
 #p B2PLYPD3/Def2QZVP
 --------------------

 --------
 acrolein
 --------
 Symbolic Z-matrix:
 Charge =  0 Multiplicity = 1

                         Standard orientation:
 ---------------------------------------------------------------------
 Center     Atomic      Atomic             Coordinates (Angstroms)
 Number     Number       Type             X           Y           Z
 ---------------------------------------------------------------------
      1          6           0        0.632757    0.312790    0.052957
      2          8           0        1.819130   -0.083212   -0.055891
      3          6           0       -0.600839   -0.490659    0.101049
      4          6           0       -1.723573    0.139904   -0.060267
      5          1           0       -0.486421   -1.558562   -0.080462
      6          1           0       -1.903776    1.332587   -0.049567
      7          1           0       -2.464524   -0.334240   -0.073112
      8          1           0        0.451615    1.453697    0.087838
 ---------------------------------------------------------------------

 SCF Done:  E(RB2PLYPD3) =  -191.555265723     A.U. after   13 cycles
 E2(B2PLYPD3) =    -0.2495801525D+00 E(B2PLYPD3) =    -0.19180484587521D+03

 The electronic state is 1-A.
 Alpha  occ. eigenvalues --  -19.72870 -10.72496 -10.64768 -10.64408  -1.16722
 Alpha  occ. eigenvalues --   -0.95104  -0.77521  -0.66081  -0.58632  -0.54952
 Alpha  occ. eigenvalues --   -0.49949  -0.46935  -0.45369  -0.35629  -0.33578
 Alpha virt. eigenvalues --   -0.02089   0.05446   0.06847   0.07500   0.09497
 Alpha virt. eigenvalues --    0.12460   0.13551   0.15193   0.17278   0.19193
 Alpha virt. eigenvalues --    0.20030   0.22537   0.24681   0.26700   0.28429

 Mulliken charges:
               1
     1  C    0.156449
     2  O   -0.368599
     3  C   -0.031590
     4  C   -0.135349
     5  H    0.104847
     6  H    0.081246
     7  H    0.131677
     8  H    0.061319
 Sum of Mulliken charges =   0.00000

 Dipole moment (field-independent basis, Debye):
    X=             -3.8988    Y=              0.5570    Z=              0.0269  Tot=              3.9385
 Quadrupole moment (field-independent basis, Debye-Ang):
   XX=            -27.8553   YY=            -21.6064   ZZ=            -25.1064
   XY=              0.4790   XZ=              0.6015   YZ=              0.1930

 Normal termination of Gaussian 09 at Wed Aug 26 11:23:30 2020.
