 Gaussian 09, Revision D.01,
 Gaussian 09:  ES64L-G09RevD.01 24-Apr-2013

 --------------------
 #p B2PLYPD3/Def2QZVP
 --------------------

 --------
 acrolein
 --------
 Symbolic Z-matrix:
 Charge =  0 Multiplicity = 1

                         Standard orientation:
 ---------------------------------------------------------------------
 Center     Atomic      Atomic             Coordinates (Angstroms)
 Number     Number       Type             X           Y           Z
 ---------------------------------------------------------------------
      1          6           0        0.656042    0.349994    0.025200
      2          8           0        1.783972   -0.132981   -0.025636
      3          6           0       -0.542350   -0.420566    0.029995
      4          6           0       -1.743210    0.128644   -0.028331
      5          1           0       -0.409071   -1.491666   -0.000733
      6          1           0       -1.813893    1.165547   -0.074203
      7          1           0       -2.764008   -0.457078    0.038519
      8          1           0        0.492308    1.498612    0.080318
 ---------------------------------------------------------------------

 SCF Done:  E(RB2PLYPD3) =  -191.604814971     A.U. after   13 cycles
 E2(B2PLYPD3) =    -0.2486438047D+00 E(B2PLYPD3) =    -0.19185345877596D+03

 The electronic state is 1-A.
 Alpha  occ. eigenvalues --  -19.72906 -10.72025 -10.66189 -10.64091  -1.18606
 Alpha  occ. eigenvalues --   -0.93953  -0.75821  -0.66712  -0.56754  -0.55800
 Alpha  occ. eigenvalues --   -0.49952  -0.46696  -0.46311  -0.34924  -0.33963
 Alpha virt. eigenvalues --   -0.02360   0.05474   0.06855   0.08419   0.09821
 Alpha virt. eigenvalues --    0.12238   0.13729   0.15284   0.17410   0.19612
 Alpha virt. eigenvalues --    0.20184   0.21189   0.25708   0.26151   0.28990

 Mulliken charges:
               1
     1  C    0.154651
     2  O   -0.358013
     3  C   -0.022035
     4  C   -0.123274
     5  H    0.106297
     6  H    0.086337
     7  H    0.099708
     8  H    0.056331
 Sum of Mulliken charges =   0.00000

 Dipole moment (field-independent basis, Debye):
    X=             -3.6527    Y=              0.7436    Z=              0.0771  Tot=              3.7284
 Quadrupole moment (field-independent basis, Debye-Ang):
   XX=            -27.2553   YY=            -22.0186   ZZ=            -25.2280
   XY=              0.9411   XZ=              0.1396   YZ=             -0.0584

 Normal termination of Gaussian 09 at Wed Aug 26 08:44:24 2020.
