 Gaussian 09, Revision D.01,
 Gaussian 09:  ES64L-G09RevD.01 24-Apr-2013

 --------------------
 #p B2PLYPD3/Def2QZVP
 --------------------

 --------
 acrolein
 --------
 Symbolic Z-matrix:
 Charge =  0 Multiplicity = 1

                         Standard orientation:
 ---------------------------------------------------------------------
 Center     Atomic      Atomic             Coordinates (Angstroms)
 Number     Number       Type             X           Y           Z
 ---------------------------------------------------------------------
      1          6           0       -0.670733    0.363531   -0.025033
      2          8           0       -1.797922   -0.121892    0.034820
      3          6           0        0.576516   -0.451289   -0.040987
      4          6           0        1.758946    0.136434    0.007537
      5          1           0        0.409804   -1.545616   -0.068708
      6          1           0        1.852061    1.255450   -0.007564
      7          1           0        2.659579   -0.423250    0.182899
      8          1           0       -0.526440    1.396497   -0.034289
 ---------------------------------------------------------------------

 SCF Done:  E(RB2PLYPD3) =  -191.610762542     A.U. after   13 cycles
 E2(B2PLYPD3) =    -0.2477671797D+00 E(B2PLYPD3) =    -0.19185852972126D+03

 The electronic state is 1-A.
 Alpha  occ. eigenvalues --  -19.72846 -10.71356 -10.65613 -10.64689  -1.18434
 Alpha  occ. eigenvalues --   -0.92966  -0.75573  -0.67407  -0.56451  -0.56135
 Alpha  occ. eigenvalues --   -0.50686  -0.46556  -0.45840  -0.34800  -0.33929
 Alpha virt. eigenvalues --   -0.01753   0.05637   0.07205   0.07818   0.09676
 Alpha virt. eigenvalues --    0.12441   0.13987   0.15315   0.17466   0.19444
 Alpha virt. eigenvalues --    0.19797   0.21794   0.25263   0.26826   0.28726

 Mulliken charges:
               1
     1  C    0.161335
     2  O   -0.360633
     3  C   -0.046453
     4  C   -0.128166
     5  H    0.106048
     6  H    0.078889
     7  H    0.103380
     8  H    0.085600
 Sum of Mulliken charges =   0.00000

 Dipole moment (field-independent basis, Debye):
    X=              3.4970    Y=              0.8554    Z=             -0.0276  Tot=              3.6002
 Quadrupole moment (field-independent basis, Debye-Ang):
   XX=            -27.7791   YY=            -21.5774   ZZ=            -25.2122
   XY=             -0.9159   XZ=              0.5896   YZ=             -0.0507

 Normal termination of Gaussian 09 at Wed Aug 26 09:29:33 2020.
