 Gaussian 09, Revision D.01,
 Gaussian 09:  ES64L-G09RevD.01 24-Apr-2013

 --------------------
 #p B2PLYPD3/Def2QZVP
 --------------------

 --------
 acrolein
 --------
 Symbolic Z-matrix:
 Charge =  0 Multiplicity = 1

                         Standard orientation:
 ---------------------------------------------------------------------
 Center     Atomic      Atomic             Coordinates (Angstroms)
 Number     Number       Type             X           Y           Z
 ---------------------------------------------------------------------
      1          6           0        0.662609    0.338902    0.001154
      2          8           0        1.788806   -0.112277    0.011518
      3          6           0       -0.559782   -0.451186   -0.026893
      4          6           0       -1.755938    0.150370    0.000549
      5          1           0       -0.436512   -1.542175   -0.009283
      6          1           0       -1.831053    1.215961   -0.007588
      7          1           0       -2.674363   -0.413593    0.097268
      8          1           0        0.550148    1.409505   -0.021397
 ---------------------------------------------------------------------

 SCF Done:  E(RB2PLYPD3) =  -191.615699808     A.U. after   12 cycles
 E2(B2PLYPD3) =    -0.2470635507D+00 E(B2PLYPD3) =    -0.19186276335916D+03

 The electronic state is 1-A.
 Alpha  occ. eigenvalues --  -19.72508 -10.71024 -10.65593 -10.64658  -1.19202
 Alpha  occ. eigenvalues --   -0.93131  -0.75801  -0.67273  -0.56937  -0.56366
 Alpha  occ. eigenvalues --   -0.50330  -0.47153  -0.46607  -0.34612  -0.33758
 Alpha virt. eigenvalues --   -0.01960   0.05755   0.07151   0.08296   0.09723
 Alpha virt. eigenvalues --    0.12599   0.14127   0.15327   0.17424   0.19889
 Alpha virt. eigenvalues --    0.19913   0.21635   0.25362   0.26428   0.28901

 Mulliken charges:
               1
     1  C    0.152293
     2  O   -0.353774
     3  C   -0.034371
     4  C   -0.131317
     5  H    0.104244
     6  H    0.088456
     7  H    0.103058
     8  H    0.071411
 Sum of Mulliken charges =   0.00000

 Dipole moment (field-independent basis, Debye):
    X=             -3.5731    Y=              0.7568    Z=              0.0390  Tot=              3.6525
 Quadrupole moment (field-independent basis, Debye-Ang):
   XX=            -27.4640   YY=            -21.6922   ZZ=            -25.1801
   XY=              0.9007   XZ=             -0.2965   YZ=             -0.0719

 Normal termination of Gaussian 09 at Wed Aug 26 20:31:11 2020.
