 Gaussian 09, Revision D.01,
 Gaussian 09:  ES64L-G09RevD.01 24-Apr-2013

 --------------------
 #p B2PLYPD3/Def2QZVP
 --------------------

 --------
 acrolein
 --------
 Symbolic Z-matrix:
 Charge =  0 Multiplicity = 1

                         Standard orientation:
 ---------------------------------------------------------------------
 Center     Atomic      Atomic             Coordinates (Angstroms)
 Number     Number       Type             X           Y           Z
 ---------------------------------------------------------------------
      1          6           0       -0.662164    0.351006   -0.024337
      2          8           0       -1.787602   -0.127376    0.019454
      3          6           0        0.557266   -0.439568   -0.026055
      4          6           0        1.752768    0.129678    0.002689
      5          1           0        0.433805   -1.507243    0.014991
      6          1           0        1.811584    1.216975    0.024170
      7          1           0        2.663618   -0.425912    0.074504
      8          1           0       -0.495406    1.488491    0.016917
 ---------------------------------------------------------------------

 SCF Done:  E(RB2PLYPD3) =  -191.614422383     A.U. after   12 cycles
 E2(B2PLYPD3) =    -0.2479591016D+00 E(B2PLYPD3) =    -0.19186238148435D+03

 The electronic state is 1-A.
 Alpha  occ. eigenvalues --  -19.72946 -10.72088 -10.65431 -10.64202  -1.18833
 Alpha  occ. eigenvalues --   -0.93529  -0.75724  -0.66574  -0.56856  -0.56108
 Alpha  occ. eigenvalues --   -0.50473  -0.46848  -0.46522  -0.34870  -0.33916
 Alpha virt. eigenvalues --   -0.02020   0.05729   0.07028   0.08221   0.09810
 Alpha virt. eigenvalues --    0.12508   0.13861   0.15314   0.17366   0.19801
 Alpha virt. eigenvalues --    0.19928   0.21657   0.25468   0.26431   0.28945

 Mulliken charges:
               1
     1  C    0.158492
     2  O   -0.353940
     3  C   -0.031492
     4  C   -0.126116
     5  H    0.105111
     6  H    0.081765
     7  H    0.105408
     8  H    0.060772
 Sum of Mulliken charges =   0.00000

 Dipole moment (field-independent basis, Debye):
    X=              3.5757    Y=              0.7172    Z=              0.0355  Tot=              3.6471
 Quadrupole moment (field-independent basis, Debye-Ang):
   XX=            -27.4196   YY=            -21.8546   ZZ=            -25.2062
   XY=             -0.9865   XZ=              0.3258   YZ=             -0.0354

 Normal termination of Gaussian 09 at Wed Aug 26 10:04:56 2020.
