 Gaussian 09, Revision D.01,
 Gaussian 09:  ES64L-G09RevD.01 24-Apr-2013

 --------------------
 #p B2PLYPD3/Def2QZVP
 --------------------

 --------
 acrolein
 --------
 Symbolic Z-matrix:
 Charge =  0 Multiplicity = 1

                         Standard orientation:
 ---------------------------------------------------------------------
 Center     Atomic      Atomic             Coordinates (Angstroms)
 Number     Number       Type             X           Y           Z
 ---------------------------------------------------------------------
      1          6           0        0.671531    0.341906    0.004487
      2          8           0        1.792322   -0.112842   -0.006230
      3          6           0       -0.572555   -0.461463   -0.002940
      4          6           0       -1.749987    0.149839   -0.015716
      5          1           0       -0.475199   -1.506378    0.041136
      6          1           0       -1.844633    1.245575   -0.001216
      7          1           0       -2.615738   -0.422048    0.043069
      8          1           0        0.503062    1.403896    0.051869
 ---------------------------------------------------------------------

 SCF Done:  E(RB2PLYPD3) =  -191.614806083     A.U. after   12 cycles
 E2(B2PLYPD3) =    -0.2464210076D+00 E(B2PLYPD3) =    -0.19186122709078D+03

 The electronic state is 1-A.
 Alpha  occ. eigenvalues --  -19.72757 -10.71247 -10.64984 -10.63974  -1.19494
 Alpha  occ. eigenvalues --   -0.93260  -0.75648  -0.67650  -0.56922  -0.56435
 Alpha  occ. eigenvalues --   -0.50796  -0.47524  -0.46656  -0.34799  -0.33775
 Alpha virt. eigenvalues --   -0.01534   0.05814   0.07325   0.08164   0.09722
 Alpha virt. eigenvalues --    0.12745   0.14047   0.15345   0.17722   0.19606
 Alpha virt. eigenvalues --    0.20012   0.21835   0.25414   0.26686   0.28543

 Mulliken charges:
               1
     1  C    0.154607
     2  O   -0.349325
     3  C   -0.042559
     4  C   -0.130900
     5  H    0.106052
     6  H    0.085527
     7  H    0.101127
     8  H    0.075471
 Sum of Mulliken charges =   0.00000

 Dipole moment (field-independent basis, Debye):
    X=             -3.4805    Y=              0.7377    Z=              0.1127  Tot=              3.5596
 Quadrupole moment (field-independent basis, Debye-Ang):
   XX=            -27.6186   YY=            -21.6153   ZZ=            -25.1033
   XY=              0.8807   XZ=             -0.0994   YZ=             -0.0660

 Normal termination of Gaussian 09 at Wed Aug 26 10:26:18 2020.
