 Gaussian 09, Revision D.01,
 Gaussian 09:  ES64L-G09RevD.01 24-Apr-2013

 --------------------
 #p B2PLYPD3/Def2QZVP
 --------------------

 --------
 acrolein
 --------
 Symbolic Z-matrix:
 Charge =  0 Multiplicity = 1

                         Standard orientation:
 ---------------------------------------------------------------------
 Center     Atomic      Atomic             Coordinates (Angstroms)
 Number     Number       Type             X           Y           Z
 ---------------------------------------------------------------------
      1          6           0        0.672626    0.350680    0.010550
      2          8           0        1.785500   -0.127831   -0.013580
      3          6           0       -0.560790   -0.445623    0.029928
      4          6           0       -1.746291    0.135178   -0.012348
      5          1           0       -0.454737   -1.489285   -0.017720
      6          1           0       -1.846651    1.228051    0.007880
      7          1           0       -2.693483   -0.429328   -0.048347
      8          1           0        0.517599    1.471798   -0.001952
 ---------------------------------------------------------------------

 SCF Done:  E(RB2PLYPD3) =  -191.615457093     A.U. after   13 cycles
 E2(B2PLYPD3) =    -0.2471048670D+00 E(B2PLYPD3) =    -0.19186256195973D+03

 The electronic state is 1-A.
 Alpha  occ. eigenvalues --  -19.72893 -10.71854 -10.65632 -10.63924  -1.19527
 Alpha  occ. eigenvalues --   -0.93278  -0.75124  -0.67025  -0.56533  -0.56306
 Alpha  occ. eigenvalues --   -0.50629  -0.46855  -0.46682  -0.34918  -0.33835
 Alpha virt. eigenvalues --   -0.01623   0.05693   0.07200   0.08201   0.09732
 Alpha virt. eigenvalues --    0.12434   0.13910   0.15337   0.17682   0.19739
 Alpha virt. eigenvalues --    0.19918   0.21414   0.25473   0.26422   0.28773

 Mulliken charges:
               1
     1  C    0.156171
     2  O   -0.347561
     3  C   -0.039983
     4  C   -0.125002
     5  H    0.109192
     6  H    0.081925
     7  H    0.098717
     8  H    0.066540
 Sum of Mulliken charges =   0.00000

 Dipole moment (field-independent basis, Debye):
    X=             -3.4792    Y=              0.7434    Z=             -0.0115  Tot=              3.5578
 Quadrupole moment (field-independent basis, Debye-Ang):
   XX=            -27.3635   YY=            -21.8238   ZZ=            -25.1932
   XY=              0.9552   XZ=              0.1864   YZ=              0.0770

 Normal termination of Gaussian 09 at Wed Aug 26 16:15:33 2020.
