 Gaussian 09, Revision D.01,
 Gaussian 09:  ES64L-G09RevD.01 24-Apr-2013

 --------------------
 #p B2PLYPD3/Def2QZVP
 --------------------

 --------
 acrolein
 --------
 Symbolic Z-matrix:
 Charge =  0 Multiplicity = 1

                         Standard orientation:
 ---------------------------------------------------------------------
 Center     Atomic      Atomic             Coordinates (Angstroms)
 Number     Number       Type             X           Y           Z
 ---------------------------------------------------------------------
      1          6           0        0.672963    0.350990   -0.014610
      2          8           0        1.779391   -0.124690    0.013493
      3          6           0       -0.555000   -0.446798   -0.011848
      4          6           0       -1.752122    0.146231    0.005698
      5          1           0       -0.445566   -1.514251    0.010372
      6          1           0       -1.826202    1.182145    0.071503
      7          1           0       -2.684938   -0.420541   -0.017723
      8          1           0        0.526528    1.447627   -0.047532
 ---------------------------------------------------------------------

 SCF Done:  E(RB2PLYPD3) =  -191.616191992     A.U. after   12 cycles
 E2(B2PLYPD3) =    -0.2465943138D+00 E(B2PLYPD3) =    -0.19186278630563D+03

 The electronic state is 1-A.
 Alpha  occ. eigenvalues --  -19.72719 -10.71403 -10.65116 -10.64219  -1.19861
 Alpha  occ. eigenvalues --   -0.93062  -0.75548  -0.67316  -0.56981  -0.56352
 Alpha  occ. eigenvalues --   -0.50549  -0.47386  -0.46929  -0.34586  -0.33800
 Alpha virt. eigenvalues --   -0.01700   0.05812   0.07237   0.08261   0.09791
 Alpha virt. eigenvalues --    0.12634   0.14042   0.15396   0.17505   0.19815
 Alpha virt. eigenvalues --    0.20172   0.21594   0.25523   0.26364   0.28807

 Mulliken charges:
               1
     1  C    0.151653
     2  O   -0.346190
     3  C   -0.036663
     4  C   -0.133870
     5  H    0.106775
     6  H    0.087510
     7  H    0.100430
     8  H    0.070354
 Sum of Mulliken charges =   0.00000

 Dipole moment (field-independent basis, Debye):
    X=             -3.4531    Y=              0.7714    Z=             -0.0058  Tot=              3.5382
 Quadrupole moment (field-independent basis, Debye-Ang):
   XX=            -27.3345   YY=            -21.7572   ZZ=            -25.1511
   XY=              0.9476   XZ=             -0.1452   YZ=              0.0580

 Normal termination of Gaussian 09 at Wed Aug 26 18:44:05 2020.
