 Gaussian 09, Revision D.01,
 Gaussian 09:  ES64L-G09RevD.01 24-Apr-2013

 --------------------
 #p B2PLYPD3/Def2QZVP
 --------------------

 --------
 acrolein
 --------
 Symbolic Z-matrix:
 Charge =  0 Multiplicity = 1

                         Standard orientation:
 ---------------------------------------------------------------------
 Center     Atomic      Atomic             Coordinates (Angstroms)
 Number     Number       Type             X           Y           Z
 ---------------------------------------------------------------------
      1          6           0       -0.666324    0.360281   -0.024565
      2          8           0       -1.784670   -0.130785    0.023373
      3          6           0        0.556264   -0.436846   -0.034995
      4          6           0        1.749799    0.134095    0.018770
      5          1           0        0.436027   -1.540416   -0.001515
      6          1           0        1.825057    1.204474   -0.009161
      7          1           0        2.717796   -0.412343    0.064325
      8          1           0       -0.539959    1.449384    0.004108
 ---------------------------------------------------------------------

 SCF Done:  E(RB2PLYPD3) =  -191.614613107     A.U. after   12 cycles
 E2(B2PLYPD3) =    -0.2476701390D+00 E(B2PLYPD3) =    -0.19186228324575D+03

 The electronic state is 1-A.
 Alpha  occ. eigenvalues --  -19.72750 -10.71614 -10.65605 -10.64561  -1.18835
 Alpha  occ. eigenvalues --   -0.93222  -0.75461  -0.66939  -0.56780  -0.56118
 Alpha  occ. eigenvalues --   -0.50362  -0.46503  -0.46189  -0.34787  -0.33987
 Alpha virt. eigenvalues --   -0.01860   0.05675   0.07029   0.08121   0.09729
 Alpha virt. eigenvalues --    0.12415   0.14134   0.15328   0.17332   0.19847
 Alpha virt. eigenvalues --    0.19993   0.21410   0.25388   0.26467   0.29033

 Mulliken charges:
               1
     1  C    0.153276
     2  O   -0.355038
     3  C   -0.035824
     4  C   -0.126407
     5  H    0.104836
     6  H    0.080960
     7  H    0.101363
     8  H    0.076834
 Sum of Mulliken charges =   0.00000

 Dipole moment (field-independent basis, Debye):
    X=              3.5383    Y=              0.8369    Z=             -0.0306  Tot=              3.6360
 Quadrupole moment (field-independent basis, Debye-Ang):
   XX=            -27.3893   YY=            -21.7528   ZZ=            -25.2349
   XY=             -1.0302   XZ=              0.2575   YZ=             -0.0611

 Normal termination of Gaussian 09 at Wed Aug 26 19:10:11 2020.
