 Gaussian 09, Revision D.01,
 Gaussian 09:  ES64L-G09RevD.01 24-Apr-2013

 --------------------
 #p B2PLYPD3/Def2QZVP
 --------------------

 --------
 acrolein
 --------
 Symbolic Z-matrix:
 Charge =  0 Multiplicity = 1

                         Standard orientation:
 ---------------------------------------------------------------------
 Center     Atomic      Atomic             Coordinates (Angstroms)
 Number     Number       Type             X           Y           Z
 ---------------------------------------------------------------------
      1          6           0       -0.654088    0.327702   -0.067697
      2          8           0       -1.840231   -0.095461    0.073264
      3          6           0        0.599585   -0.501467   -0.051552
      4          6           0        1.735609    0.189300    0.015650
      5          1           0        0.527353   -1.607494   -0.152014
      6          1           0        1.881774    1.271464    0.072391
      7          1           0        2.707276   -0.422503    0.261794
      8          1           0       -0.481188    1.429011   -0.146689
 ---------------------------------------------------------------------

 SCF Done:  E(RB2PLYPD3) =  -191.596683755     A.U. after   13 cycles
 E2(B2PLYPD3) =    -0.2514126475D+00 E(B2PLYPD3) =    -0.19184809640259D+03

 The electronic state is 1-A.
 Alpha  occ. eigenvalues --  -19.72968 -10.72794 -10.66865 -10.65921  -1.16138
 Alpha  occ. eigenvalues --   -0.93150  -0.74547  -0.66849  -0.56006  -0.55100
 Alpha  occ. eigenvalues --   -0.49912  -0.46065  -0.44721  -0.34892  -0.33703
 Alpha virt. eigenvalues --   -0.02273   0.05321   0.06351   0.07110   0.09417
 Alpha virt. eigenvalues --    0.12166   0.13958   0.14891   0.17359   0.19563
 Alpha virt. eigenvalues --    0.19714   0.21315   0.24477   0.26503   0.28009

 Mulliken charges:
               1
     1  C    0.154776
     2  O   -0.373058
     3  C   -0.034366
     4  C   -0.117862
     5  H    0.111579
     6  H    0.095165
     7  H    0.082948
     8  H    0.080819
 Sum of Mulliken charges =   0.00000

 Dipole moment (field-independent basis, Debye):
    X=              3.8013    Y=              0.7274    Z=             -0.1703  Tot=              3.8740
 Quadrupole moment (field-independent basis, Debye-Ang):
   XX=            -28.5272   YY=            -21.3559   ZZ=            -25.4610
   XY=             -0.5516   XZ=              0.9930   YZ=              0.1126

 Normal termination of Gaussian 09 at Wed Aug 26 11:53:28 2020.
