 Gaussian 09, Revision D.01,
 Gaussian 09:  ES64L-G09RevD.01 24-Apr-2013

 --------------------
 #p B2PLYPD3/Def2QZVP
 --------------------

 --------
 acrolein
 --------
 Symbolic Z-matrix:
 Charge =  0 Multiplicity = 1

                         Standard orientation:
 ---------------------------------------------------------------------
 Center     Atomic      Atomic             Coordinates (Angstroms)
 Number     Number       Type             X           Y           Z
 ---------------------------------------------------------------------
      1          6           0       -0.671597    0.345167    0.023918
      2          8           0       -1.782344   -0.122871   -0.022927
      3          6           0        0.544980   -0.441060    0.017287
      4          6           0        1.755607    0.137760   -0.019929
      5          1           0        0.441091   -1.517540    0.010615
      6          1           0        1.856860    1.229131   -0.080245
      7          1           0        2.720249   -0.442216    0.041207
      8          1           0       -0.533385    1.462393    0.084185
 ---------------------------------------------------------------------

 SCF Done:  E(RB2PLYPD3) =  -191.614266350     A.U. after   13 cycles
 E2(B2PLYPD3) =    -0.2475241989D+00 E(B2PLYPD3) =    -0.19186179054873D+03

 The electronic state is 1-A.
 Alpha  occ. eigenvalues --  -19.72714 -10.71524 -10.66358 -10.64459  -1.19787
 Alpha  occ. eigenvalues --   -0.92878  -0.75284  -0.66650  -0.56584  -0.56022
 Alpha  occ. eigenvalues --   -0.50315  -0.47005  -0.46569  -0.34556  -0.33809
 Alpha virt. eigenvalues --   -0.01996   0.05616   0.07047   0.08391   0.09713
 Alpha virt. eigenvalues --    0.12333   0.13964   0.15404   0.17543   0.19473
 Alpha virt. eigenvalues --    0.20033   0.21312   0.25480   0.26288   0.28864

 Mulliken charges:
               1
     1  C    0.154974
     2  O   -0.345994
     3  C   -0.037270
     4  C   -0.127706
     5  H    0.106697
     6  H    0.084671
     7  H    0.100684
     8  H    0.063944
 Sum of Mulliken charges =   0.00000

 Dipole moment (field-independent basis, Debye):
    X=              3.5133    Y=              0.7275    Z=              0.0804  Tot=              3.5887
 Quadrupole moment (field-independent basis, Debye-Ang):
   XX=            -27.2663   YY=            -21.8494   ZZ=            -25.2829
   XY=             -0.9408   XZ=             -0.1328   YZ=             -0.0979

 Normal termination of Gaussian 09 at Wed Aug 26 13:21:40 2020.
