 Gaussian 09, Revision D.01,
 Gaussian 09:  ES64L-G09RevD.01 24-Apr-2013

 --------------------
 #p B2PLYPD3/Def2QZVP
 --------------------

 --------
 acrolein
 --------
 Symbolic Z-matrix:
 Charge =  0 Multiplicity = 1

                         Standard orientation:
 ---------------------------------------------------------------------
 Center     Atomic      Atomic             Coordinates (Angstroms)
 Number     Number       Type             X           Y           Z
 ---------------------------------------------------------------------
      1          6           0        0.643654    0.327688    0.079229
      2          8           0        1.805891   -0.085483   -0.071109
      3          6           0       -0.552790   -0.477329    0.063731
      4          6           0       -1.736782    0.116233   -0.066920
      5          1           0       -0.414251   -1.521067   -0.007087
      6          1           0       -1.937627    1.347260   -0.204490
      7          1           0       -2.622002   -0.381012    0.097282
      8          1           0        0.402260    1.439133    0.226927
 ---------------------------------------------------------------------

 SCF Done:  E(RB2PLYPD3) =  -191.588620804     A.U. after   14 cycles
 E2(B2PLYPD3) =    -0.2502100777D+00 E(B2PLYPD3) =    -0.19183883088168D+03

 The electronic state is 1-A.
 Alpha  occ. eigenvalues --  -19.72961 -10.72081 -10.67053 -10.64534  -1.17614
 Alpha  occ. eigenvalues --   -0.93778  -0.76151  -0.66391  -0.57435  -0.54640
 Alpha  occ. eigenvalues --   -0.50405  -0.46395  -0.45347  -0.34804  -0.33781
 Alpha virt. eigenvalues --   -0.02783   0.05044   0.06987   0.07911   0.09580
 Alpha virt. eigenvalues --    0.12036   0.13682   0.15398   0.17270   0.18316
 Alpha virt. eigenvalues --    0.20006   0.21881   0.24898   0.26584   0.28833

 Mulliken charges:
               1
     1  C    0.163013
     2  O   -0.364850
     3  C   -0.040062
     4  C   -0.108659
     5  H    0.112454
     6  H    0.070719
     7  H    0.105178
     8  H    0.062208
 Sum of Mulliken charges =   0.00000

 Dipole moment (field-independent basis, Debye):
    X=             -3.8046    Y=              0.5441    Z=              0.2383  Tot=              3.8507
 Quadrupole moment (field-independent basis, Debye-Ang):
   XX=            -27.6195   YY=            -21.8609   ZZ=            -25.2914
   XY=              0.4043   XZ=              0.4179   YZ=             -0.1579

 Normal termination of Gaussian 09 at Wed Aug 26 11:11:25 2020.
