 Gaussian 09, Revision D.01,
 Gaussian 09:  ES64L-G09RevD.01 24-Apr-2013

 --------------------
 #p B2PLYPD3/Def2QZVP
 --------------------

 --------
 acrolein
 --------
 Symbolic Z-matrix:
 Charge =  0 Multiplicity = 1

                         Standard orientation:
 ---------------------------------------------------------------------
 Center     Atomic      Atomic             Coordinates (Angstroms)
 Number     Number       Type             X           Y           Z
 ---------------------------------------------------------------------
      1          6           0       -0.676924    0.366616   -0.071112
      2          8           0       -1.801755   -0.145561    0.076190
      3          6           0        0.577687   -0.438006   -0.077840
      4          6           0        1.735040    0.141927    0.060867
      5          1           0        0.486338   -1.462053   -0.186690
      6          1           0        1.849217    1.187523   -0.085802
      7          1           0        2.787117   -0.459627    0.240210
      8          1           0       -0.523447    1.475427   -0.048734
 ---------------------------------------------------------------------

 SCF Done:  E(RB2PLYPD3) =  -191.595439100     A.U. after   14 cycles
 E2(B2PLYPD3) =    -0.2491681437D+00 E(B2PLYPD3) =    -0.19184460724378D+03

 The electronic state is 1-A.
 Alpha  occ. eigenvalues --  -19.73205 -10.72648 -10.66126 -10.63945  -1.17743
 Alpha  occ. eigenvalues --   -0.93650  -0.74600  -0.67702  -0.56497  -0.55367
 Alpha  occ. eigenvalues --   -0.50517  -0.46644  -0.45188  -0.34928  -0.34001
 Alpha virt. eigenvalues --   -0.01807   0.05278   0.06783   0.07558   0.09629
 Alpha virt. eigenvalues --    0.12002   0.13787   0.15132   0.17858   0.19505
 Alpha virt. eigenvalues --    0.20480   0.20908   0.24478   0.26489   0.28651

 Mulliken charges:
               1
     1  C    0.155032
     2  O   -0.360047
     3  C   -0.034332
     4  C   -0.125820
     5  H    0.111847
     6  H    0.087939
     7  H    0.086252
     8  H    0.079128
 Sum of Mulliken charges =   0.00000

 Dipole moment (field-independent basis, Debye):
    X=              3.5125    Y=              0.8885    Z=             -0.3193  Tot=              3.6371
 Quadrupole moment (field-independent basis, Debye-Ang):
   XX=            -27.7643   YY=            -21.8087   ZZ=            -25.2085
   XY=             -1.0657   XZ=              0.6578   YZ=             -0.0369

 Normal termination of Gaussian 09 at Wed Aug 26 12:40:55 2020.
