 Gaussian 09, Revision D.01,
 Gaussian 09:  ES64L-G09RevD.01 24-Apr-2013

 --------------------
 #p B2PLYPD3/Def2QZVP
 --------------------

 --------
 acrolein
 --------
 Symbolic Z-matrix:
 Charge =  0 Multiplicity = 1

                         Standard orientation:
 ---------------------------------------------------------------------
 Center     Atomic      Atomic             Coordinates (Angstroms)
 Number     Number       Type             X           Y           Z
 ---------------------------------------------------------------------
      1          6           0        0.678859    0.358902   -0.004952
      2          8           0        1.785688   -0.130278    0.005696
      3          6           0       -0.558428   -0.453096   -0.005707
      4          6           0       -1.751834    0.136484    0.003262
      5          1           0       -0.454238   -1.496435    0.007529
      6          1           0       -1.843839    1.217124    0.040126
      7          1           0       -2.713751   -0.412105   -0.017507
      8          1           0        0.514742    1.479904   -0.031335
 ---------------------------------------------------------------------

 SCF Done:  E(RB2PLYPD3) =  -191.615253016     A.U. after   12 cycles
 E2(B2PLYPD3) =    -0.2472459407D+00 E(B2PLYPD3) =    -0.19186249895644D+03

 The electronic state is 1-A.
 Alpha  occ. eigenvalues --  -19.72956 -10.72005 -10.65604 -10.64110  -1.19663
 Alpha  occ. eigenvalues --   -0.92858  -0.74924  -0.67141  -0.56459  -0.56207
 Alpha  occ. eigenvalues --   -0.50667  -0.46922  -0.46742  -0.34678  -0.33857
 Alpha virt. eigenvalues --   -0.01604   0.05697   0.07253   0.08037   0.09718
 Alpha virt. eigenvalues --    0.12426   0.13971   0.15396   0.17644   0.19741
 Alpha virt. eigenvalues --    0.19993   0.21332   0.25517   0.26319   0.28793

 Mulliken charges:
               1
     1  C    0.156265
     2  O   -0.345366
     3  C   -0.044496
     4  C   -0.127410
     5  H    0.111124
     6  H    0.081333
     7  H    0.097652
     8  H    0.070898
 Sum of Mulliken charges =   0.00000

 Dipole moment (field-independent basis, Debye):
    X=             -3.4309    Y=              0.7749    Z=             -0.0028  Tot=              3.5173
 Quadrupole moment (field-independent basis, Debye-Ang):
   XX=            -27.3429   YY=            -21.7896   ZZ=            -25.2450
   XY=              0.9440   XZ=             -0.0537   YZ=              0.0309

 Normal termination of Gaussian 09 at Wed Aug 26 15:29:10 2020.
