 Gaussian 09, Revision D.01,
 Gaussian 09:  ES64L-G09RevD.01 24-Apr-2013

 --------------------
 #p B2PLYPD3/Def2QZVP
 --------------------

 --------
 acrolein
 --------
 Symbolic Z-matrix:
 Charge =  0 Multiplicity = 1

                         Standard orientation:
 ---------------------------------------------------------------------
 Center     Atomic      Atomic             Coordinates (Angstroms)
 Number     Number       Type             X           Y           Z
 ---------------------------------------------------------------------
      1          6           0        0.649858    0.334626    0.058055
      2          8           0        1.782561   -0.120010   -0.059198
      3          6           0       -0.547627   -0.399196    0.061341
      4          6           0       -1.744118    0.120150   -0.058315
      5          1           0       -0.370573   -1.487083    0.020494
      6          1           0       -1.714765    1.077508   -0.204497
      7          1           0       -2.749826   -0.380217    0.081223
      8          1           0        0.425998    1.416395    0.209881
 ---------------------------------------------------------------------

 SCF Done:  E(RB2PLYPD3) =  -191.591591726     A.U. after   14 cycles
 E2(B2PLYPD3) =    -0.2479963859D+00 E(B2PLYPD3) =    -0.19183958811225D+03

 The electronic state is 1-A.
 Alpha  occ. eigenvalues --  -19.73022 -10.71380 -10.64953 -10.63748  -1.18723
 Alpha  occ. eigenvalues --   -0.95111  -0.77397  -0.67250  -0.57235  -0.56673
 Alpha  occ. eigenvalues --   -0.51172  -0.46663  -0.46122  -0.35038  -0.34051
 Alpha virt. eigenvalues --   -0.02756   0.05730   0.07119   0.08643   0.09954
 Alpha virt. eigenvalues --    0.12673   0.13679   0.15437   0.17204   0.19107
 Alpha virt. eigenvalues --    0.20290   0.21789   0.25410   0.26604   0.28969

 Mulliken charges:
               1
     1  C    0.153465
     2  O   -0.360016
     3  C   -0.008094
     4  C   -0.124107
     5  H    0.092473
     6  H    0.080603
     7  H    0.112550
     8  H    0.053127
 Sum of Mulliken charges =   0.00000

 Dipole moment (field-independent basis, Debye):
    X=             -3.7202    Y=              0.7309    Z=              0.1711  Tot=              3.7952
 Quadrupole moment (field-independent basis, Debye-Ang):
   XX=            -26.9364   YY=            -22.4037   ZZ=            -24.9173
   XY=              0.8054   XZ=              0.3457   YZ=             -0.1768

 Normal termination of Gaussian 09 at Wed Aug 26 11:35:37 2020.
