 Gaussian 09, Revision D.01,
 Gaussian 09:  ES64L-G09RevD.01 24-Apr-2013

 --------------------
 #p B2PLYPD3/Def2QZVP
 --------------------

 --------
 acrolein
 --------
 Symbolic Z-matrix:
 Charge =  0 Multiplicity = 1

                         Standard orientation:
 ---------------------------------------------------------------------
 Center     Atomic      Atomic             Coordinates (Angstroms)
 Number     Number       Type             X           Y           Z
 ---------------------------------------------------------------------
      1          6           0       -0.672376    0.367855    0.018808
      2          8           0       -1.769415   -0.120607   -0.020367
      3          6           0        0.581398   -0.479114   -0.023679
      4          6           0        1.750552    0.167054   -0.034803
      5          1           0        0.455337   -1.596621    0.184026
      6          1           0        1.780085    1.282816    0.049750
      7          1           0        2.554361   -0.414557    0.051596
      8          1           0       -0.591912    1.358447    0.115603
 ---------------------------------------------------------------------

 SCF Done:  E(RB2PLYPD3) =  -191.594111945     A.U. after   12 cycles
 E2(B2PLYPD3) =    -0.2464087596D+00 E(B2PLYPD3) =    -0.19184052070482D+03

 The electronic state is 1-A.
 Alpha  occ. eigenvalues --  -19.72410 -10.70430 -10.64994 -10.64420  -1.19896
 Alpha  occ. eigenvalues --   -0.92507  -0.75457  -0.67785  -0.57299  -0.56004
 Alpha  occ. eigenvalues --   -0.50451  -0.47454  -0.46117  -0.34423  -0.33586
 Alpha virt. eigenvalues --   -0.01038   0.05877   0.06701   0.07872   0.09688
 Alpha virt. eigenvalues --    0.12624   0.14032   0.15305   0.17519   0.19538
 Alpha virt. eigenvalues --    0.19972   0.22171   0.24832   0.26912   0.28936

 Mulliken charges:
               1
     1  C    0.158662
     2  O   -0.344287
     3  C   -0.058133
     4  C   -0.131711
     5  H    0.101567
     6  H    0.084211
     7  H    0.102851
     8  H    0.086840
 Sum of Mulliken charges =   0.00000

 Dipole moment (field-independent basis, Debye):
    X=              3.2362    Y=              0.8825    Z=              0.3804  Tot=              3.3759
 Quadrupole moment (field-independent basis, Debye-Ang):
   XX=            -28.0423   YY=            -21.1963   ZZ=            -25.1363
   XY=             -1.1406   XZ=              0.2113   YZ=             -0.2055

 Normal termination of Gaussian 09 at Wed Aug 26 13:26:37 2020.
