 Gaussian 09, Revision D.01,
 Gaussian 09:  ES64L-G09RevD.01 24-Apr-2013

 --------------------
 #p B2PLYPD3/Def2QZVP
 --------------------

 --------
 acrolein
 --------
 Symbolic Z-matrix:
 Charge =  0 Multiplicity = 1

                         Standard orientation:
 ---------------------------------------------------------------------
 Center     Atomic      Atomic             Coordinates (Angstroms)
 Number     Number       Type             X           Y           Z
 ---------------------------------------------------------------------
      1          6           0        0.672793    0.346142   -0.035357
      2          8           0        1.767708   -0.120010    0.036516
      3          6           0       -0.549438   -0.442158   -0.029201
      4          6           0       -1.762552    0.134772    0.010688
      5          1           0       -0.421306   -1.506734   -0.002287
      6          1           0       -1.858558    1.234440    0.156918
      7          1           0       -2.591179   -0.431749   -0.001118
      8          1           0        0.564560    1.431588   -0.122423
 ---------------------------------------------------------------------

 SCF Done:  E(RB2PLYPD3) =  -191.611185848     A.U. after   13 cycles
 E2(B2PLYPD3) =    -0.2459535506D+00 E(B2PLYPD3) =    -0.19185713939870D+03

 The electronic state is 1-A.
 Alpha  occ. eigenvalues --  -19.72496 -10.70832 -10.65046 -10.64165  -1.20547
 Alpha  occ. eigenvalues --   -0.92916  -0.76122  -0.67022  -0.57203  -0.56627
 Alpha  occ. eigenvalues --   -0.50947  -0.47382  -0.47191  -0.34423  -0.33666
 Alpha virt. eigenvalues --   -0.01737   0.05865   0.07346   0.08453   0.09807
 Alpha virt. eigenvalues --    0.12647   0.14051   0.15491   0.17525   0.19320
 Alpha virt. eigenvalues --    0.20147   0.22121   0.25353   0.26415   0.28755

 Mulliken charges:
               1
     1  C    0.156748
     2  O   -0.341781
     3  C   -0.047164
     4  C   -0.132139
     5  H    0.104289
     6  H    0.085605
     7  H    0.107089
     8  H    0.067353
 Sum of Mulliken charges =   0.00000

 Dipole moment (field-independent basis, Debye):
    X=             -3.3929    Y=              0.7185    Z=             -0.0279  Tot=              3.4682
 Quadrupole moment (field-independent basis, Debye-Ang):
   XX=            -27.2961   YY=            -21.7199   ZZ=            -25.0879
   XY=              0.9929   XZ=             -0.4425   YZ=              0.1478

 Normal termination of Gaussian 09 at Wed Aug 26 09:15:02 2020.
