 Gaussian 09, Revision D.01,
 Gaussian 09:  ES64L-G09RevD.01 24-Apr-2013

 --------------------
 #p B2PLYPD3/Def2QZVP
 --------------------

 --------
 acrolein
 --------
 Symbolic Z-matrix:
 Charge =  0 Multiplicity = 1

                         Standard orientation:
 ---------------------------------------------------------------------
 Center     Atomic      Atomic             Coordinates (Angstroms)
 Number     Number       Type             X           Y           Z
 ---------------------------------------------------------------------
      1          6           0       -0.683200    0.351715    0.045929
      2          8           0       -1.790658   -0.109986   -0.031457
      3          6           0        0.585792   -0.480971    0.016084
      4          6           0        1.766459    0.156619   -0.029701
      5          1           0        0.442960   -1.543874    0.021505
      6          1           0        1.845107    1.254529   -0.052223
      7          1           0        2.545285   -0.394154    0.042043
      8          1           0       -0.522388    1.399216    0.046463
 ---------------------------------------------------------------------

 SCF Done:  E(RB2PLYPD3) =  -191.600308466     A.U. after   13 cycles
 E2(B2PLYPD3) =    -0.2462818391D+00 E(B2PLYPD3) =    -0.19184659030464D+03

 The electronic state is 1-A.
 Alpha  occ. eigenvalues --  -19.72823 -10.71206 -10.64558 -10.64082  -1.19962
 Alpha  occ. eigenvalues --   -0.92646  -0.75863  -0.67647  -0.57489  -0.56152
 Alpha  occ. eigenvalues --   -0.50977  -0.48052  -0.46706  -0.34487  -0.33542
 Alpha virt. eigenvalues --   -0.01332   0.05926   0.07465   0.07803   0.09745
 Alpha virt. eigenvalues --    0.12754   0.14127   0.15454   0.17509   0.19557
 Alpha virt. eigenvalues --    0.20009   0.22354   0.25193   0.26697   0.28474

 Mulliken charges:
               1
     1  C    0.158264
     2  O   -0.343719
     3  C   -0.056448
     4  C   -0.140047
     5  H    0.105515
     6  H    0.088575
     7  H    0.107223
     8  H    0.080637
 Sum of Mulliken charges =   0.00000

 Dipole moment (field-independent basis, Debye):
    X=              3.3184    Y=              0.7725    Z=              0.1540  Tot=              3.4106
 Quadrupole moment (field-independent basis, Debye-Ang):
   XX=            -27.7495   YY=            -21.4020   ZZ=            -25.1329
   XY=             -0.8102   XZ=             -0.1168   YZ=             -0.0958

 Normal termination of Gaussian 09 at Wed Aug 26 09:27:37 2020.
