 Gaussian 09, Revision D.01,
 Gaussian 09:  ES64L-G09RevD.01 24-Apr-2013

 --------------------
 #p B2PLYPD3/Def2QZVP
 --------------------

 --------
 acrolein
 --------
 Symbolic Z-matrix:
 Charge =  0 Multiplicity = 1

                         Standard orientation:
 ---------------------------------------------------------------------
 Center     Atomic      Atomic             Coordinates (Angstroms)
 Number     Number       Type             X           Y           Z
 ---------------------------------------------------------------------
      1          6           0       -0.685037    0.328756    0.037726
      2          8           0       -1.793691   -0.109685   -0.074918
      3          6           0        0.569232   -0.495957    0.049509
      4          6           0        1.751699    0.151375   -0.029957
      5          1           0        0.542258   -1.470290    0.177882
      6          1           0        1.961888    1.408129   -0.207590
      7          1           0        2.651864   -0.440391   -0.087345
      8          1           0       -0.621850    1.474983    0.372726
 ---------------------------------------------------------------------

 SCF Done:  E(RB2PLYPD3) =  -191.577222334     A.U. after   13 cycles
 E2(B2PLYPD3) =    -0.2486260357D+00 E(B2PLYPD3) =    -0.19182584836971D+03

 The electronic state is 1-A.
 Alpha  occ. eigenvalues --  -19.72905 -10.72437 -10.67374 -10.64406  -1.20415
 Alpha  occ. eigenvalues --   -0.92389  -0.73776  -0.66418  -0.56692  -0.55437
 Alpha  occ. eigenvalues --   -0.50659  -0.46675  -0.45614  -0.34714  -0.33183
 Alpha virt. eigenvalues --   -0.01419   0.05114   0.06529   0.07650   0.09256
 Alpha virt. eigenvalues --    0.11812   0.13963   0.15134   0.18130   0.18399
 Alpha virt. eigenvalues --    0.19805   0.21091   0.24176   0.26480   0.28463

 Mulliken charges:
               1
     1  C    0.160196
     2  O   -0.327553
     3  C   -0.075054
     4  C   -0.117139
     5  H    0.118382
     6  H    0.081972
     7  H    0.093600
     8  H    0.065596
 Sum of Mulliken charges =   0.00000

 Dipole moment (field-independent basis, Debye):
    X=              3.3534    Y=              0.5323    Z=              0.2413  Tot=              3.4039
 Quadrupole moment (field-independent basis, Debye-Ang):
   XX=            -27.4684   YY=            -21.7351   ZZ=            -25.4028
   XY=             -0.9089   XZ=             -0.8404   YZ=             -0.3541

 Normal termination of Gaussian 09 at Wed Aug 26 10:56:48 2020.
