 Gaussian 09, Revision D.01,
 Gaussian 09:  ES64L-G09RevD.01 24-Apr-2013

 --------------------
 #p B2PLYPD3/Def2QZVP
 --------------------

 --------
 acrolein
 --------
 Symbolic Z-matrix:
 Charge =  0 Multiplicity = 1

                         Standard orientation:
 ---------------------------------------------------------------------
 Center     Atomic      Atomic             Coordinates (Angstroms)
 Number     Number       Type             X           Y           Z
 ---------------------------------------------------------------------
      1          6           0        0.668703    0.341589    0.020290
      2          8           0        1.798714   -0.110918   -0.012112
      3          6           0       -0.567743   -0.458117    0.011945
      4          6           0       -1.761276    0.146655   -0.012725
      5          1           0       -0.430180   -1.559283    0.004022
      6          1           0       -1.840544    1.230322    0.021847
      7          1           0       -2.653234   -0.411098   -0.020280
      8          1           0        0.496148    1.446644   -0.025747
 ---------------------------------------------------------------------

 SCF Done:  E(RB2PLYPD3) =  -191.615031355     A.U. after   12 cycles
 E2(B2PLYPD3) =    -0.2477884396D+00 E(B2PLYPD3) =    -0.19186281979493D+03

 The electronic state is 1-A.
 Alpha  occ. eigenvalues --  -19.72891 -10.71802 -10.65442 -10.64909  -1.19090
 Alpha  occ. eigenvalues --   -0.92974  -0.75698  -0.66511  -0.56682  -0.56172
 Alpha  occ. eigenvalues --   -0.50526  -0.46999  -0.46535  -0.34689  -0.33802
 Alpha virt. eigenvalues --   -0.01951   0.05770   0.07050   0.08080   0.09728
 Alpha virt. eigenvalues --    0.12615   0.13983   0.15316   0.17214   0.19766
 Alpha virt. eigenvalues --    0.20039   0.21759   0.25257   0.26531   0.28671

 Mulliken charges:
               1
     1  C    0.159710
     2  O   -0.351266
     3  C   -0.037150
     4  C   -0.130669
     5  H    0.102055
     6  H    0.087029
     7  H    0.105657
     8  H    0.064633
 Sum of Mulliken charges =   0.00000

 Dipole moment (field-independent basis, Debye):
    X=             -3.5601    Y=              0.7099    Z=              0.0452  Tot=              3.6305
 Quadrupole moment (field-independent basis, Debye-Ang):
   XX=            -27.5105   YY=            -21.7371   ZZ=            -25.2699
   XY=              0.7879   XZ=              0.0652   YZ=              0.0271

 Normal termination of Gaussian 09 at Wed Aug 26 16:07:34 2020.
