 Gaussian 09, Revision D.01,
 Gaussian 09:  ES64L-G09RevD.01 24-Apr-2013

 --------------------
 #p B2PLYPD3/Def2QZVP
 --------------------

 --------
 acrolein
 --------
 Symbolic Z-matrix:
 Charge =  0 Multiplicity = 1

                         Standard orientation:
 ---------------------------------------------------------------------
 Center     Atomic      Atomic             Coordinates (Angstroms)
 Number     Number       Type             X           Y           Z
 ---------------------------------------------------------------------
      1          6           0       -0.685239    0.358830    0.041772
      2          8           0       -1.769539   -0.142919   -0.037183
      3          6           0        0.549910   -0.438023    0.029243
      4          6           0        1.754776    0.138217   -0.042285
      5          1           0        0.512858   -1.446410    0.034165
      6          1           0        1.818449    1.226615   -0.073987
      7          1           0        2.690135   -0.446090    0.063282
      8          1           0       -0.581807    1.455096    0.101625
 ---------------------------------------------------------------------

 SCF Done:  E(RB2PLYPD3) =  -191.611213441     A.U. after   13 cycles
 E2(B2PLYPD3) =    -0.2462804485D+00 E(B2PLYPD3) =    -0.19185749388909D+03

 The electronic state is 1-A.
 Alpha  occ. eigenvalues --  -19.72709 -10.71429 -10.65511 -10.63448  -1.20397
 Alpha  occ. eigenvalues --   -0.92864  -0.74885  -0.67870  -0.57245  -0.56101
 Alpha  occ. eigenvalues --   -0.50561  -0.47186  -0.47145  -0.34515  -0.33809
 Alpha virt. eigenvalues --   -0.01555   0.05768   0.07353   0.08277   0.09765
 Alpha virt. eigenvalues --    0.12417   0.14007   0.15511   0.18036   0.19333
 Alpha virt. eigenvalues --    0.19943   0.21454   0.25540   0.26166   0.29073

 Mulliken charges:
               1
     1  C    0.147251
     2  O   -0.338366
     3  C   -0.047229
     4  C   -0.127788
     5  H    0.111345
     6  H    0.078339
     7  H    0.097753
     8  H    0.078695
 Sum of Mulliken charges =   0.00000

 Dipole moment (field-independent basis, Debye):
    X=              3.3110    Y=              0.8106    Z=              0.1902  Tot=              3.4141
 Quadrupole moment (field-independent basis, Debye-Ang):
   XX=            -27.3280   YY=            -21.7295   ZZ=            -25.1500
   XY=             -1.3216   XZ=             -0.1108   YZ=             -0.1195

 Normal termination of Gaussian 09 at Wed Aug 26 10:18:04 2020.
