 Gaussian 09, Revision D.01,
 Gaussian 09:  ES64L-G09RevD.01 24-Apr-2013

 --------------------
 #p B2PLYPD3/Def2QZVP
 --------------------

 --------
 acrolein
 --------
 Symbolic Z-matrix:
 Charge =  0 Multiplicity = 1

                         Standard orientation:
 ---------------------------------------------------------------------
 Center     Atomic      Atomic             Coordinates (Angstroms)
 Number     Number       Type             X           Y           Z
 ---------------------------------------------------------------------
      1          6           0        0.664721    0.341281    0.018832
      2          8           0        1.797824   -0.109764   -0.020548
      3          6           0       -0.571425   -0.462874    0.031360
      4          6           0       -1.747112    0.150740   -0.022194
      5          1           0       -0.455189   -1.507324   -0.007590
      6          1           0       -1.854396    1.225271   -0.014935
      7          1           0       -2.658813   -0.409005   -0.017211
      8          1           0        0.508704    1.394289    0.036135
 ---------------------------------------------------------------------

 SCF Done:  E(RB2PLYPD3) =  -191.615245187     A.U. after   12 cycles
 E2(B2PLYPD3) =    -0.2468911553D+00 E(B2PLYPD3) =    -0.19186213634277D+03

 The electronic state is 1-A.
 Alpha  occ. eigenvalues --  -19.72679 -10.71185 -10.65293 -10.64140  -1.18808
 Alpha  occ. eigenvalues --   -0.93353  -0.75744  -0.67961  -0.56756  -0.56549
 Alpha  occ. eigenvalues --   -0.50635  -0.47362  -0.46352  -0.34820  -0.33802
 Alpha virt. eigenvalues --   -0.01747   0.05739   0.07377   0.08050   0.09698
 Alpha virt. eigenvalues --    0.12712   0.14031   0.15325   0.17710   0.19726
 Alpha virt. eigenvalues --    0.20025   0.21663   0.25354   0.26637   0.28627

 Mulliken charges:
               1
     1  C    0.153395
     2  O   -0.357316
     3  C   -0.040243
     4  C   -0.128295
     5  H    0.109452
     6  H    0.086464
     7  H    0.098285
     8  H    0.078258
 Sum of Mulliken charges =   0.00000

 Dipole moment (field-independent basis, Debye):
    X=             -3.5828    Y=              0.7646    Z=              0.0457  Tot=              3.6638
 Quadrupole moment (field-independent basis, Debye-Ang):
   XX=            -27.5907   YY=            -21.6350   ZZ=            -25.1222
   XY=              0.7891   XZ=              0.1756   YZ=              0.0337

 Normal termination of Gaussian 09 at Wed Aug 26 10:32:46 2020.
