 Gaussian 09, Revision D.01,
 Gaussian 09:  ES64L-G09RevD.01 24-Apr-2013

 --------------------
 #p B2PLYPD3/Def2QZVP
 --------------------

 --------
 acrolein
 --------
 Symbolic Z-matrix:
 Charge =  0 Multiplicity = 1

                         Standard orientation:
 ---------------------------------------------------------------------
 Center     Atomic      Atomic             Coordinates (Angstroms)
 Number     Number       Type             X           Y           Z
 ---------------------------------------------------------------------
      1          6           0       -0.687779    0.371621    0.098772
      2          8           0       -1.745959   -0.137577   -0.060767
      3          6           0        0.523736   -0.413775    0.008094
      4          6           0        1.761554    0.141387   -0.044017
      5          1           0        0.359993   -1.531373    0.075876
      6          1           0        1.823264    1.072329   -0.167795
      7          1           0        2.777187   -0.425883    0.117246
      8          1           0       -0.577838    1.390142    0.083717
 ---------------------------------------------------------------------

 SCF Done:  E(RB2PLYPD3) =  -191.581541584     A.U. after   13 cycles
 E2(B2PLYPD3) =    -0.2461735110D+00 E(B2PLYPD3) =    -0.19182771509481D+03

 The electronic state is 1-A.
 Alpha  occ. eigenvalues --  -19.72515 -10.70175 -10.64935 -10.64561  -1.21185
 Alpha  occ. eigenvalues --   -0.92565  -0.76368  -0.68421  -0.58375  -0.55439
 Alpha  occ. eigenvalues --   -0.50511  -0.47642  -0.46514  -0.34437  -0.33336
 Alpha virt. eigenvalues --   -0.02035   0.05718   0.07321   0.08232   0.09833
 Alpha virt. eigenvalues --    0.12427   0.14402   0.15416   0.17460   0.19574
 Alpha virt. eigenvalues --    0.20180   0.21782   0.25415   0.26617   0.29318

 Mulliken charges:
               1
     1  C    0.157014
     2  O   -0.338661
     3  C   -0.037542
     4  C   -0.155083
     5  H    0.101343
     6  H    0.096429
     7  H    0.098244
     8  H    0.078255
 Sum of Mulliken charges =   0.00000

 Dipole moment (field-independent basis, Debye):
    X=              3.2032    Y=              0.9741    Z=              0.2979  Tot=              3.3613
 Quadrupole moment (field-independent basis, Debye-Ang):
   XX=            -26.9873   YY=            -21.8368   ZZ=            -25.0553
   XY=             -0.9758   XZ=             -0.2206   YZ=             -0.3260

 Normal termination of Gaussian 09 at Wed Aug 26 12:38:38 2020.
