 Gaussian 09, Revision D.01,
 Gaussian 09:  ES64L-G09RevD.01 24-Apr-2013

 --------------------
 #p B2PLYPD3/Def2QZVP
 --------------------

 --------
 acrolein
 --------
 Symbolic Z-matrix:
 Charge =  0 Multiplicity = 1

                         Standard orientation:
 ---------------------------------------------------------------------
 Center     Atomic      Atomic             Coordinates (Angstroms)
 Number     Number       Type             X           Y           Z
 ---------------------------------------------------------------------
      1          6           0       -0.675799    0.386255   -0.051435
      2          8           0       -1.768390   -0.139206    0.060835
      3          6           0        0.586841   -0.474315   -0.108828
      4          6           0        1.734858    0.148164    0.024909
      5          1           0        0.435134   -1.479567    0.090985
      6          1           0        1.736764    1.215843    0.137319
      7          1           0        2.616831   -0.388507    0.174907
      8          1           0       -0.517003    1.405262   -0.077773
 ---------------------------------------------------------------------

 SCF Done:  E(RB2PLYPD3) =  -191.603930153     A.U. after   13 cycles
 E2(B2PLYPD3) =    -0.2466031339D+00 E(B2PLYPD3) =    -0.19185053328668D+03

 The electronic state is 1-A.
 Alpha  occ. eigenvalues --  -19.72882 -10.71378 -10.64164 -10.63560  -1.19131
 Alpha  occ. eigenvalues --   -0.93135  -0.75088  -0.68700  -0.57156  -0.56208
 Alpha  occ. eigenvalues --   -0.51121  -0.47443  -0.46125  -0.34798  -0.33684
 Alpha virt. eigenvalues --   -0.00986   0.05792   0.07135   0.07623   0.09875
 Alpha virt. eigenvalues --    0.12799   0.13615   0.15408   0.18031   0.19347
 Alpha virt. eigenvalues --    0.20038   0.21803   0.24793   0.26918   0.28773

 Mulliken charges:
               1
     1  C    0.157604
     2  O   -0.353037
     3  C   -0.064869
     4  C   -0.114741
     5  H    0.112384
     6  H    0.073367
     7  H    0.096087
     8  H    0.093204
 Sum of Mulliken charges =   0.00000

 Dipole moment (field-independent basis, Debye):
    X=              3.2498    Y=              0.9552    Z=              0.1353  Tot=              3.3900
 Quadrupole moment (field-independent basis, Debye-Ang):
   XX=            -27.8562   YY=            -21.4831   ZZ=            -25.0022
   XY=             -1.1372   XZ=              1.0062   YZ=             -0.1581

 Normal termination of Gaussian 09 at Wed Aug 26 10:32:53 2020.
