 Gaussian 09, Revision D.01,
 Gaussian 09:  ES64L-G09RevD.01 24-Apr-2013

 --------------------
 #p B2PLYPD3/Def2QZVP
 --------------------

 --------
 acrolein
 --------
 Symbolic Z-matrix:
 Charge =  0 Multiplicity = 1

                         Standard orientation:
 ---------------------------------------------------------------------
 Center     Atomic      Atomic             Coordinates (Angstroms)
 Number     Number       Type             X           Y           Z
 ---------------------------------------------------------------------
      1          6           0       -0.672204    0.329069    0.053326
      2          8           0       -1.781184   -0.109931   -0.040964
      3          6           0        0.547988   -0.448775    0.042561
      4          6           0        1.755542    0.141743   -0.026578
      5          1           0        0.412463   -1.510949    0.002722
      6          1           0        1.822635    1.248904   -0.024468
      7          1           0        2.736043   -0.429943   -0.067471
      8          1           0       -0.509626    1.439215    0.001079
 ---------------------------------------------------------------------

 SCF Done:  E(RB2PLYPD3) =  -191.612480681     A.U. after   13 cycles
 E2(B2PLYPD3) =    -0.2472934211D+00 E(B2PLYPD3) =    -0.19185977410172D+03

 The electronic state is 1-A.
 Alpha  occ. eigenvalues --  -19.72739 -10.71265 -10.66708 -10.64393  -1.20386
 Alpha  occ. eigenvalues --   -0.92881  -0.75243  -0.66707  -0.56460  -0.56032
 Alpha  occ. eigenvalues --   -0.50501  -0.47361  -0.46623  -0.34643  -0.33660
 Alpha virt. eigenvalues --   -0.01960   0.05603   0.07128   0.08460   0.09750
 Alpha virt. eigenvalues --    0.12367   0.13868   0.15364   0.17666   0.19646
 Alpha virt. eigenvalues --    0.19910   0.21149   0.25257   0.26569   0.28928

 Mulliken charges:
               1
     1  C    0.160048
     2  O   -0.341898
     3  C   -0.033858
     4  C   -0.129212
     5  H    0.105153
     6  H    0.085205
     7  H    0.102894
     8  H    0.051668
 Sum of Mulliken charges =   0.00000

 Dipole moment (field-independent basis, Debye):
    X=              3.4874    Y=              0.6464    Z=              0.0719  Tot=              3.5475
 Quadrupole moment (field-independent basis, Debye-Ang):
   XX=            -27.1580   YY=            -21.9865   ZZ=            -25.2707
   XY=             -0.8226   XZ=             -0.4006   YZ=              0.0121

 Normal termination of Gaussian 09 at Wed Aug 26 09:11:42 2020.
