 Gaussian 09, Revision D.01,
 Gaussian 09:  ES64L-G09RevD.01 24-Apr-2013

 --------------------
 #p B2PLYPD3/Def2QZVP
 --------------------

 --------
 acrolein
 --------
 Symbolic Z-matrix:
 Charge =  0 Multiplicity = 1

                         Standard orientation:
 ---------------------------------------------------------------------
 Center     Atomic      Atomic             Coordinates (Angstroms)
 Number     Number       Type             X           Y           Z
 ---------------------------------------------------------------------
      1          6           0        0.673614    0.357593    0.017333
      2          8           0        1.789679   -0.126807   -0.017024
      3          6           0       -0.559854   -0.442754    0.002683
      4          6           0       -1.755397    0.135286   -0.002343
      5          1           0       -0.483420   -1.509859    0.048646
      6          1           0       -1.851960    1.229623   -0.048429
      7          1           0       -2.641251   -0.428302   -0.024319
      8          1           0        0.509023    1.422247    0.054248
 ---------------------------------------------------------------------

 SCF Done:  E(RB2PLYPD3) =  -191.615741040     A.U. after   12 cycles
 E2(B2PLYPD3) =    -0.2469684498D+00 E(B2PLYPD3) =    -0.19186270949027D+03

 The electronic state is 1-A.
 Alpha  occ. eigenvalues --  -19.72824 -10.71465 -10.65117 -10.64093  -1.19132
 Alpha  occ. eigenvalues --   -0.93172  -0.75804  -0.67422  -0.56756  -0.56572
 Alpha  occ. eigenvalues --   -0.50716  -0.46918  -0.46502  -0.34702  -0.33997
 Alpha virt. eigenvalues --   -0.01757   0.05770   0.07264   0.08117   0.09709
 Alpha virt. eigenvalues --    0.12628   0.14120   0.15332   0.17665   0.19635
 Alpha virt. eigenvalues --    0.19985   0.21751   0.25485   0.26544   0.28702

 Mulliken charges:
               1
     1  C    0.153916
     2  O   -0.351521
     3  C   -0.039790
     4  C   -0.130283
     5  H    0.104207
     6  H    0.079229
     7  H    0.102797
     8  H    0.081446
 Sum of Mulliken charges =   0.00000

 Dipole moment (field-independent basis, Debye):
    X=             -3.5036    Y=              0.8073    Z=              0.0603  Tot=              3.5959
 Quadrupole moment (field-independent basis, Debye-Ang):
   XX=            -27.5123   YY=            -21.6654   ZZ=            -25.1504
   XY=              1.0492   XZ=              0.1916   YZ=             -0.0913

 Normal termination of Gaussian 09 at Wed Aug 26 20:42:44 2020.
