 Gaussian 09, Revision D.01,
 Gaussian 09:  ES64L-G09RevD.01 24-Apr-2013

 --------------------
 #p B2PLYPD3/Def2QZVP
 --------------------

 --------
 acrolein
 --------
 Symbolic Z-matrix:
 Charge =  0 Multiplicity = 1

                         Standard orientation:
 ---------------------------------------------------------------------
 Center     Atomic      Atomic             Coordinates (Angstroms)
 Number     Number       Type             X           Y           Z
 ---------------------------------------------------------------------
      1          6           0        0.646940    0.335250    0.030767
      2          8           0        1.807772   -0.098173   -0.029751
      3          6           0       -0.573810   -0.467537    0.046671
      4          6           0       -1.743674    0.149330   -0.032016
      5          1           0       -0.409916   -1.640801   -0.022485
      6          1           0       -1.863188    1.251239   -0.019831
      7          1           0       -2.651098   -0.385557   -0.027618
      8          1           0        0.485288    1.458242    0.035402
 ---------------------------------------------------------------------

 SCF Done:  E(RB2PLYPD3) =  -191.604751345     A.U. after   13 cycles
 E2(B2PLYPD3) =    -0.2494650344D+00 E(B2PLYPD3) =    -0.19185421637929D+03

 The electronic state is 1-A.
 Alpha  occ. eigenvalues --  -19.72805 -10.72122 -10.65837 -10.65703  -1.17646
 Alpha  occ. eigenvalues --   -0.93475  -0.75832  -0.65628  -0.56729  -0.55721
 Alpha  occ. eigenvalues --   -0.49868  -0.46096  -0.45837  -0.35001  -0.33774
 Alpha virt. eigenvalues --   -0.02203   0.05609   0.06481   0.07905   0.09624
 Alpha virt. eigenvalues --    0.12491   0.13946   0.15202   0.16678   0.19791
 Alpha virt. eigenvalues --    0.20005   0.21796   0.25047   0.26406   0.28625

 Mulliken charges:
               1
     1  C    0.159714
     2  O   -0.363307
     3  C   -0.033092
     4  C   -0.116877
     5  H    0.099783
     6  H    0.086014
     7  H    0.103593
     8  H    0.064172
 Sum of Mulliken charges =   0.00000

 Dipole moment (field-independent basis, Debye):
    X=             -3.7582    Y=              0.6946    Z=              0.0503  Tot=              3.8222
 Quadrupole moment (field-independent basis, Debye-Ang):
   XX=            -27.6832   YY=            -21.6458   ZZ=            -25.3744
   XY=              0.5627   XZ=              0.2566   YZ=              0.0680

 Normal termination of Gaussian 09 at Wed Aug 26 08:36:13 2020.
