 Gaussian 09, Revision D.01,
 Gaussian 09:  ES64L-G09RevD.01 24-Apr-2013

 --------------------
 #p B2PLYPD3/Def2QZVP
 --------------------

 --------
 acrolein
 --------
 Symbolic Z-matrix:
 Charge =  0 Multiplicity = 1

                         Standard orientation:
 ---------------------------------------------------------------------
 Center     Atomic      Atomic             Coordinates (Angstroms)
 Number     Number       Type             X           Y           Z
 ---------------------------------------------------------------------
      1          6           0        0.678252    0.348164   -0.022994
      2          8           0        1.770049   -0.132107    0.013292
      3          6           0       -0.546540   -0.420653    0.008471
      4          6           0       -1.746287    0.138609   -0.013559
      5          1           0       -0.466415   -1.492182   -0.019382
      6          1           0       -1.771296    1.130747    0.096991
      7          1           0       -2.737670   -0.407500    0.011852
      8          1           0        0.502435    1.429071   -0.027308
 ---------------------------------------------------------------------

 SCF Done:  E(RB2PLYPD3) =  -191.607897284     A.U. after   12 cycles
 E2(B2PLYPD3) =    -0.2459124375D+00 E(B2PLYPD3) =    -0.19185380972108D+03

 The electronic state is 1-A.
 Alpha  occ. eigenvalues --  -19.72830 -10.71147 -10.64790 -10.63685  -1.20669
 Alpha  occ. eigenvalues --   -0.93655  -0.75902  -0.67645  -0.57440  -0.56337
 Alpha  occ. eigenvalues --   -0.50896  -0.47570  -0.46671  -0.34808  -0.33971
 Alpha virt. eigenvalues --   -0.01669   0.05805   0.07281   0.08574   0.09824
 Alpha virt. eigenvalues --    0.12684   0.14183   0.15300   0.17603   0.19731
 Alpha virt. eigenvalues --    0.20319   0.21638   0.25487   0.26458   0.28856

 Mulliken charges:
               1
     1  C    0.146814
     2  O   -0.338694
     3  C   -0.023168
     4  C   -0.132996
     5  H    0.099929
     6  H    0.082184
     7  H    0.099152
     8  H    0.066778
 Sum of Mulliken charges =   0.00000

 Dipole moment (field-independent basis, Debye):
    X=             -3.3968    Y=              0.7844    Z=              0.0117  Tot=              3.4862
 Quadrupole moment (field-independent basis, Debye-Ang):
   XX=            -27.0242   YY=            -22.0410   ZZ=            -25.0096
   XY=              1.0751   XZ=             -0.2277   YZ=              0.1344

 Normal termination of Gaussian 09 at Wed Aug 26 07:52:53 2020.
