 Gaussian 09, Revision D.01,
 Gaussian 09:  ES64L-G09RevD.01 24-Apr-2013

 --------------------
 #p B2PLYPD3/Def2QZVP
 --------------------

 --------
 acrolein
 --------
 Symbolic Z-matrix:
 Charge =  0 Multiplicity = 1

                         Standard orientation:
 ---------------------------------------------------------------------
 Center     Atomic      Atomic             Coordinates (Angstroms)
 Number     Number       Type             X           Y           Z
 ---------------------------------------------------------------------
      1          6           0       -0.676250    0.358860   -0.023652
      2          8           0       -1.787907   -0.135262    0.017644
      3          6           0        0.564689   -0.442919   -0.022713
      4          6           0        1.755386    0.132908   -0.001537
      5          1           0        0.447223   -1.499242    0.013265
      6          1           0        1.816148    1.189326    0.016177
      7          1           0        2.679948   -0.412982    0.085764
      8          1           0       -0.503009    1.511906    0.031055
 ---------------------------------------------------------------------

 SCF Done:  E(RB2PLYPD3) =  -191.613469182     A.U. after   12 cycles
 E2(B2PLYPD3) =    -0.2476077255D+00 E(B2PLYPD3) =    -0.19186107690733D+03

 The electronic state is 1-A.
 Alpha  occ. eigenvalues --  -19.73154 -10.72462 -10.64942 -10.64151  -1.19345
 Alpha  occ. eigenvalues --   -0.93250  -0.75305  -0.66699  -0.56727  -0.56198
 Alpha  occ. eigenvalues --   -0.50668  -0.47039  -0.46693  -0.34863  -0.33886
 Alpha virt. eigenvalues --   -0.01734   0.05782   0.07102   0.08067   0.09816
 Alpha virt. eigenvalues --    0.12528   0.13862   0.15359   0.17400   0.19813
 Alpha virt. eigenvalues --    0.20021   0.21669   0.25430   0.26399   0.28818

 Mulliken charges:
               1
     1  C    0.158864
     2  O   -0.346598
     3  C   -0.036924
     4  C   -0.127103
     5  H    0.107049
     6  H    0.081948
     7  H    0.101728
     8  H    0.061036
 Sum of Mulliken charges =   0.00000

 Dipole moment (field-independent basis, Debye):
    X=              3.4573    Y=              0.7460    Z=              0.0464  Tot=              3.5372
 Quadrupole moment (field-independent basis, Debye-Ang):
   XX=            -27.3497   YY=            -21.8781   ZZ=            -25.2041
   XY=             -0.9855   XZ=              0.3323   YZ=             -0.0386

 Normal termination of Gaussian 09 at Wed Aug 26 20:22:35 2020.
