 Gaussian 09, Revision D.01,
 Gaussian 09:  ES64L-G09RevD.01 24-Apr-2013

 --------------------
 #p B2PLYPD3/Def2QZVP
 --------------------

 --------
 acrolein
 --------
 Symbolic Z-matrix:
 Charge =  0 Multiplicity = 1

                         Standard orientation:
 ---------------------------------------------------------------------
 Center     Atomic      Atomic             Coordinates (Angstroms)
 Number     Number       Type             X           Y           Z
 ---------------------------------------------------------------------
      1          6           0        0.671602    0.344506    0.011422
      2          8           0        1.796127   -0.119755   -0.019363
      3          6           0       -0.571040   -0.460122    0.009121
      4          6           0       -1.747046    0.150357   -0.022226
      5          1           0       -0.476620   -1.532421    0.071621
      6          1           0       -1.811884    1.241646   -0.029092
      7          1           0       -2.706679   -0.412859    0.015556
      8          1           0        0.505072    1.453235    0.106913
 ---------------------------------------------------------------------

 SCF Done:  E(RB2PLYPD3) =  -191.615140223     A.U. after   12 cycles
 E2(B2PLYPD3) =    -0.2476985458D+00 E(B2PLYPD3) =    -0.19186283876842D+03

 The electronic state is 1-A.
 Alpha  occ. eigenvalues --  -19.72955 -10.72010 -10.65759 -10.64440  -1.19189
 Alpha  occ. eigenvalues --   -0.93091  -0.74875  -0.66820  -0.56223  -0.56185
 Alpha  occ. eigenvalues --   -0.50495  -0.46858  -0.46414  -0.34876  -0.33833
 Alpha virt. eigenvalues --   -0.01651   0.05690   0.06965   0.08035   0.09690
 Alpha virt. eigenvalues --    0.12492   0.13961   0.15302   0.17484   0.19593
 Alpha virt. eigenvalues --    0.20070   0.21305   0.25328   0.26505   0.28804

 Mulliken charges:
               1
     1  C    0.155428
     2  O   -0.348417
     3  C   -0.038828
     4  C   -0.126887
     5  H    0.106416
     6  H    0.083887
     7  H    0.099270
     8  H    0.069130
 Sum of Mulliken charges =   0.00000

 Dipole moment (field-independent basis, Debye):
    X=             -3.4984    Y=              0.7312    Z=              0.1461  Tot=              3.5770
 Quadrupole moment (field-independent basis, Debye-Ang):
   XX=            -27.5673   YY=            -21.7445   ZZ=            -25.2710
   XY=              0.9315   XZ=              0.0619   YZ=             -0.0988

 Normal termination of Gaussian 09 at Wed Aug 26 14:33:41 2020.
