 Gaussian 09, Revision D.01,
 Gaussian 09:  ES64L-G09RevD.01 24-Apr-2013

 --------------------
 #p B2PLYPD3/Def2QZVP
 --------------------

 --------
 acrolein
 --------
 Symbolic Z-matrix:
 Charge =  0 Multiplicity = 1

                         Standard orientation:
 ---------------------------------------------------------------------
 Center     Atomic      Atomic             Coordinates (Angstroms)
 Number     Number       Type             X           Y           Z
 ---------------------------------------------------------------------
      1          6           0        0.684479    0.362770   -0.006266
      2          8           0        1.778886   -0.133285    0.008350
      3          6           0       -0.553737   -0.441213   -0.003743
      4          6           0       -1.760404    0.133374   -0.000422
      5          1           0       -0.459134   -1.514441   -0.009261
      6          1           0       -1.858649    1.212629    0.051212
      7          1           0       -2.689516   -0.410886   -0.002016
      8          1           0        0.554186    1.449396   -0.044145
 ---------------------------------------------------------------------

 SCF Done:  E(RB2PLYPD3) =  -191.617223125     A.U. after   12 cycles
 E2(B2PLYPD3) =    -0.2465194219D+00 E(B2PLYPD3) =    -0.19186374254673D+03

 The electronic state is 1-A.
 Alpha  occ. eigenvalues --  -19.72781 -10.71466 -10.65272 -10.64300  -1.20121
 Alpha  occ. eigenvalues --   -0.92614  -0.75304  -0.67206  -0.56806  -0.56399
 Alpha  occ. eigenvalues --   -0.50820  -0.47048  -0.46630  -0.34513  -0.33904
 Alpha virt. eigenvalues --   -0.01564   0.05784   0.07310   0.08197   0.09710
 Alpha virt. eigenvalues --    0.12494   0.14220   0.15441   0.17594   0.19685
 Alpha virt. eigenvalues --    0.20006   0.21578   0.25542   0.26337   0.28792

 Mulliken charges:
               1
     1  C    0.154491
     2  O   -0.342109
     3  C   -0.047063
     4  C   -0.130456
     5  H    0.106807
     6  H    0.078914
     7  H    0.100963
     8  H    0.078452
 Sum of Mulliken charges =   0.00000

 Dipole moment (field-independent basis, Debye):
    X=             -3.3781    Y=              0.8260    Z=             -0.0074  Tot=              3.4776
 Quadrupole moment (field-independent basis, Debye-Ang):
   XX=            -27.2421   YY=            -21.7463   ZZ=            -25.2018
   XY=              1.0602   XZ=             -0.1172   YZ=              0.0564

 Normal termination of Gaussian 09 at Wed Aug 26 15:23:44 2020.
