 Gaussian 09, Revision D.01,
 Gaussian 09:  ES64L-G09RevD.01 24-Apr-2013

 --------------------
 #p B2PLYPD3/Def2QZVP
 --------------------

 --------
 acrolein
 --------
 Symbolic Z-matrix:
 Charge =  0 Multiplicity = 1

                         Standard orientation:
 ---------------------------------------------------------------------
 Center     Atomic      Atomic             Coordinates (Angstroms)
 Number     Number       Type             X           Y           Z
 ---------------------------------------------------------------------
      1          6           0        0.683125    0.337459   -0.044507
      2          8           0        1.814440   -0.090804    0.036769
      3          6           0       -0.586053   -0.503420   -0.011475
      4          6           0       -1.751957    0.165946    0.019870
      5          1           0       -0.480167   -1.584433    0.001527
      6          1           0       -1.931481    1.324482    0.193276
      7          1           0       -2.687153   -0.375299   -0.103395
      8          1           0        0.512594    1.361769   -0.168893
 ---------------------------------------------------------------------

 SCF Done:  E(RB2PLYPD3) =  -191.602162631     A.U. after   13 cycles
 E2(B2PLYPD3) =    -0.2480095612D+00 E(B2PLYPD3) =    -0.19185017219183D+03

 The electronic state is 1-A.
 Alpha  occ. eigenvalues --  -19.72807 -10.71333 -10.66591 -10.65238  -1.19294
 Alpha  occ. eigenvalues --   -0.92022  -0.74621  -0.67314  -0.56133  -0.55548
 Alpha  occ. eigenvalues --   -0.50867  -0.46608  -0.45888  -0.34473  -0.33550
 Alpha virt. eigenvalues --   -0.01582   0.05405   0.07214   0.07462   0.09474
 Alpha virt. eigenvalues --    0.12328   0.14215   0.15482   0.17537   0.18785
 Alpha virt. eigenvalues --    0.20086   0.21411   0.24565   0.26845   0.28184

 Mulliken charges:
               1
     1  C    0.162527
     2  O   -0.347768
     3  C   -0.065914
     4  C   -0.125645
     5  H    0.110947
     6  H    0.084716
     7  H    0.094357
     8  H    0.086781
 Sum of Mulliken charges =   0.00000

 Dipole moment (field-independent basis, Debye):
    X=             -3.4743    Y=              0.7328    Z=             -0.1253  Tot=              3.5530
 Quadrupole moment (field-independent basis, Debye-Ang):
   XX=            -27.7973   YY=            -21.4675   ZZ=            -25.3557
   XY=              0.5419   XZ=             -0.2707   YZ=              0.2277

 Normal termination of Gaussian 09 at Wed Aug 26 13:53:11 2020.
