 Gaussian 09, Revision D.01,
 Gaussian 09:  ES64L-G09RevD.01 24-Apr-2013

 --------------------
 #p B2PLYPD3/Def2QZVP
 --------------------

 --------
 acrolein
 --------
 Symbolic Z-matrix:
 Charge =  0 Multiplicity = 1

                         Standard orientation:
 ---------------------------------------------------------------------
 Center     Atomic      Atomic             Coordinates (Angstroms)
 Number     Number       Type             X           Y           Z
 ---------------------------------------------------------------------
      1          6           0        0.693953    0.368840   -0.009309
      2          8           0        1.761496   -0.166560    0.057582
      3          6           0       -0.519695   -0.400051   -0.103298
      4          6           0       -1.771727    0.143625    0.015528
      5          1           0       -0.510993   -1.397344   -0.066086
      6          1           0       -1.747930    1.106959    0.049582
      7          1           0       -2.922134   -0.465098    0.269749
      8          1           0        0.673902    1.413475   -0.131428
 ---------------------------------------------------------------------

 SCF Done:  E(RB2PLYPD3) =  -191.559454231     A.U. after   13 cycles
 E2(B2PLYPD3) =    -0.2478266640D+00 E(B2PLYPD3) =    -0.19180728089546D+03

 The electronic state is 1-A.
 Alpha  occ. eigenvalues --  -19.72427 -10.70814 -10.66718 -10.63584  -1.20512
 Alpha  occ. eigenvalues --   -0.92934  -0.75434  -0.69332  -0.58657  -0.54721
 Alpha  occ. eigenvalues --   -0.49335  -0.47348  -0.46343  -0.34169  -0.33805
 Alpha virt. eigenvalues --   -0.02225   0.04612   0.07292   0.08195   0.09582
 Alpha virt. eigenvalues --    0.11720   0.14141   0.15432   0.18445   0.19029
 Alpha virt. eigenvalues --    0.20293   0.20491   0.24459   0.25849   0.28313

 Mulliken charges:
               1
     1  C    0.137100
     2  O   -0.340809
     3  C   -0.046372
     4  C   -0.143970
     5  H    0.115571
     6  H    0.092770
     7  H    0.098759
     8  H    0.086951
 Sum of Mulliken charges =   0.00000

 Dipole moment (field-independent basis, Debye):
    X=             -3.3246    Y=              0.9818    Z=              0.0470  Tot=              3.4669
 Quadrupole moment (field-independent basis, Debye-Ang):
   XX=            -26.8450   YY=            -22.0164   ZZ=            -25.1691
   XY=              1.7011   XZ=             -1.0882   YZ=             -0.1106

 Normal termination of Gaussian 09 at Wed Aug 26 11:18:33 2020.
