 Gaussian 09, Revision D.01,
 Gaussian 09:  ES64L-G09RevD.01 24-Apr-2013

 --------------------
 #p B2PLYPD3/Def2QZVP
 --------------------

 --------
 acrolein
 --------
 Symbolic Z-matrix:
 Charge =  0 Multiplicity = 1

                         Standard orientation:
 ---------------------------------------------------------------------
 Center     Atomic      Atomic             Coordinates (Angstroms)
 Number     Number       Type             X           Y           Z
 ---------------------------------------------------------------------
      1          6           0       -0.691387    0.342225    0.097983
      2          8           0       -1.763490   -0.131382   -0.072060
      3          6           0        0.508565   -0.397176    0.054070
      4          6           0        1.756129    0.115695   -0.034694
      5          1           0        0.353953   -1.457061    0.030559
      6          1           0        1.885450    1.129229   -0.130415
      7          1           0        2.894363   -0.470806   -0.055788
      8          1           0       -0.465693    1.485234    0.027965
 ---------------------------------------------------------------------

 SCF Done:  E(RB2PLYPD3) =  -191.581830412     A.U. after   13 cycles
 E2(B2PLYPD3) =    -0.2482469449D+00 E(B2PLYPD3) =    -0.19183007735709D+03

 The electronic state is 1-A.
 Alpha  occ. eigenvalues --  -19.73171 -10.71510 -10.67345 -10.64129  -1.21575
 Alpha  occ. eigenvalues --   -0.93075  -0.75969  -0.66585  -0.57433  -0.55465
 Alpha  occ. eigenvalues --   -0.49887  -0.48301  -0.45334  -0.34680  -0.33662
 Alpha virt. eigenvalues --   -0.02512   0.04918   0.07091   0.08676   0.09763
 Alpha virt. eigenvalues --    0.11873   0.13910   0.15473   0.17750   0.19613
 Alpha virt. eigenvalues --    0.19758   0.20926   0.25480   0.25813   0.28382

 Mulliken charges:
               1
     1  C    0.169099
     2  O   -0.331417
     3  C   -0.021925
     4  C   -0.133841
     5  H    0.102545
     6  H    0.087361
     7  H    0.093932
     8  H    0.034247
 Sum of Mulliken charges =   0.00000

 Dipole moment (field-independent basis, Debye):
    X=              3.3925    Y=              0.7037    Z=              0.1393  Tot=              3.4675
 Quadrupole moment (field-independent basis, Debye-Ang):
   XX=            -26.4370   YY=            -22.5733   ZZ=            -25.2687
   XY=             -0.6261   XZ=             -0.6686   YZ=             -0.1587

 Normal termination of Gaussian 09 at Wed Aug 26 13:17:59 2020.
