 Gaussian 09, Revision D.01,
 Gaussian 09:  ES64L-G09RevD.01 24-Apr-2013

 --------------------
 #p B2PLYPD3/Def2QZVP
 --------------------

 --------
 acrolein
 --------
 Symbolic Z-matrix:
 Charge =  0 Multiplicity = 1

                         Standard orientation:
 ---------------------------------------------------------------------
 Center     Atomic      Atomic             Coordinates (Angstroms)
 Number     Number       Type             X           Y           Z
 ---------------------------------------------------------------------
      1          6           0       -0.680957    0.350653    0.001439
      2          8           0       -1.783494   -0.131281   -0.013642
      3          6           0        0.546627   -0.435537    0.029066
      4          6           0        1.754687    0.137914   -0.019693
      5          1           0        0.474079   -1.482109    0.022583
      6          1           0        1.817890    1.195375    0.029640
      7          1           0        2.754788   -0.437385   -0.044639
      8          1           0       -0.500952    1.456190    0.036679
 ---------------------------------------------------------------------

 SCF Done:  E(RB2PLYPD3) =  -191.611665567     A.U. after   13 cycles
 E2(B2PLYPD3) =    -0.2471678261D+00 E(B2PLYPD3) =    -0.19185883339318D+03

 The electronic state is 1-A.
 Alpha  occ. eigenvalues --  -19.72923 -10.71683 -10.65998 -10.63928  -1.20079
 Alpha  occ. eigenvalues --   -0.93025  -0.75193  -0.67348  -0.56721  -0.56006
 Alpha  occ. eigenvalues --   -0.50495  -0.47214  -0.46703  -0.34601  -0.33949
 Alpha virt. eigenvalues --   -0.01836   0.05622   0.07190   0.08336   0.09727
 Alpha virt. eigenvalues --    0.12418   0.13935   0.15373   0.17805   0.19879
 Alpha virt. eigenvalues --    0.19956   0.21092   0.25486   0.26248   0.28806

 Mulliken charges:
               1
     1  C    0.151878
     2  O   -0.342500
     3  C   -0.033026
     4  C   -0.131415
     5  H    0.107102
     6  H    0.082969
     7  H    0.098118
     8  H    0.066873
 Sum of Mulliken charges =   0.00000

 Dipole moment (field-independent basis, Debye):
    X=              3.4524    Y=              0.7614    Z=              0.0480  Tot=              3.5357
 Quadrupole moment (field-independent basis, Debye-Ang):
   XX=            -27.1951   YY=            -21.9444   ZZ=            -25.2203
   XY=             -1.0435   XZ=             -0.1263   YZ=              0.0630

 Normal termination of Gaussian 09 at Wed Aug 26 15:58:58 2020.
