 Gaussian 09, Revision D.01,
 Gaussian 09:  ES64L-G09RevD.01 24-Apr-2013

 --------------------
 #p B2PLYPD3/Def2QZVP
 --------------------

 --------
 acrolein
 --------
 Symbolic Z-matrix:
 Charge =  0 Multiplicity = 1

                         Standard orientation:
 ---------------------------------------------------------------------
 Center     Atomic      Atomic             Coordinates (Angstroms)
 Number     Number       Type             X           Y           Z
 ---------------------------------------------------------------------
      1          6           0       -0.650590    0.357961   -0.090130
      2          8           0       -1.801210   -0.103031    0.077983
      3          6           0        0.588662   -0.512566   -0.057161
      4          6           0        1.724564    0.178600    0.021936
      5          1           0        0.551296   -1.579104   -0.013794
      6          1           0        1.827980    1.283557    0.246686
      7          1           0        2.556248   -0.363398    0.082077
      8          1           0       -0.501654    1.339232   -0.186699
 ---------------------------------------------------------------------

 SCF Done:  E(RB2PLYPD3) =  -191.590897949     A.U. after   13 cycles
 E2(B2PLYPD3) =    -0.2486205949D+00 E(B2PLYPD3) =    -0.19183951854443D+03

 The electronic state is 1-A.
 Alpha  occ. eigenvalues --  -19.72586 -10.71282 -10.64854 -10.64661  -1.16924
 Alpha  occ. eigenvalues --   -0.93247  -0.76027  -0.68644  -0.57223  -0.55842
 Alpha  occ. eigenvalues --   -0.50181  -0.47500  -0.45040  -0.34547  -0.33745
 Alpha virt. eigenvalues --   -0.01725   0.05599   0.06871   0.07248   0.09600
 Alpha virt. eigenvalues --    0.12905   0.14251   0.15375   0.17511   0.19236
 Alpha virt. eigenvalues --    0.20321   0.21711   0.24384   0.26710   0.27940

 Mulliken charges:
               1
     1  C    0.154169
     2  O   -0.370102
     3  C   -0.057076
     4  C   -0.119344
     5  H    0.109301
     6  H    0.082530
     7  H    0.092776
     8  H    0.107745
 Sum of Mulliken charges =   0.00000

 Dipole moment (field-independent basis, Debye):
    X=              3.6204    Y=              0.8122    Z=             -0.1006  Tot=              3.7117
 Quadrupole moment (field-independent basis, Debye-Ang):
   XX=            -28.3607   YY=            -21.0469   ZZ=            -25.1403
   XY=             -0.9000   XZ=              0.9964   YZ=              0.1475

 Normal termination of Gaussian 09 at Wed Aug 26 13:48:16 2020.
