 Gaussian 09, Revision D.01,
 Gaussian 09:  ES64L-G09RevD.01 24-Apr-2013

 --------------------
 #p B2PLYPD3/Def2QZVP
 --------------------

 --------
 acrolein
 --------
 Symbolic Z-matrix:
 Charge =  0 Multiplicity = 1

                         Standard orientation:
 ---------------------------------------------------------------------
 Center     Atomic      Atomic             Coordinates (Angstroms)
 Number     Number       Type             X           Y           Z
 ---------------------------------------------------------------------
      1          6           0        0.654044    0.367152    0.018423
      2          8           0        1.775198   -0.146052   -0.067977
      3          6           0       -0.518007   -0.414430    0.116607
      4          6           0       -1.741835    0.104681   -0.068709
      5          1           0       -0.496494   -1.452607    0.131503
      6          1           0       -1.859899    1.265886    0.000476
      7          1           0       -2.683062   -0.505369   -0.189190
      8          1           0        0.472659    1.516086    0.203095
 ---------------------------------------------------------------------

 SCF Done:  E(RB2PLYPD3) =  -191.595557418     A.U. after   14 cycles
 E2(B2PLYPD3) =    -0.2503127687D+00 E(B2PLYPD3) =    -0.19184587018682D+03

 The electronic state is 1-A.
 Alpha  occ. eigenvalues --  -19.72867 -10.72342 -10.67283 -10.63808  -1.18173
 Alpha  occ. eigenvalues --   -0.93638  -0.75583  -0.66472  -0.56251  -0.55697
 Alpha  occ. eigenvalues --   -0.49977  -0.46864  -0.45333  -0.34498  -0.33972
 Alpha virt. eigenvalues --   -0.02668   0.05341   0.06509   0.08154   0.09648
 Alpha virt. eigenvalues --    0.11989   0.13693   0.15140   0.17875   0.19020
 Alpha virt. eigenvalues --    0.19783   0.21249   0.24626   0.26166   0.28722

 Mulliken charges:
               1
     1  C    0.161159
     2  O   -0.359030
     3  C   -0.032456
     4  C   -0.113685
     5  H    0.107882
     6  H    0.071087
     7  H    0.101569
     8  H    0.063475
 Sum of Mulliken charges =   0.00000

 Dipole moment (field-independent basis, Debye):
    X=             -3.7160    Y=              0.7072    Z=              0.1875  Tot=              3.7874
 Quadrupole moment (field-independent basis, Debye-Ang):
   XX=            -27.3810   YY=            -21.9325   ZZ=            -25.3160
   XY=              1.3045   XZ=              0.7476   YZ=              0.1293

 Normal termination of Gaussian 09 at Wed Aug 26 13:53:45 2020.
