 Gaussian 09, Revision D.01,
 Gaussian 09:  ES64L-G09RevD.01 24-Apr-2013

 --------------------
 #p B2PLYPD3/Def2QZVP
 --------------------

 --------
 acrolein
 --------
 Symbolic Z-matrix:
 Charge =  0 Multiplicity = 1

                         Standard orientation:
 ---------------------------------------------------------------------
 Center     Atomic      Atomic             Coordinates (Angstroms)
 Number     Number       Type             X           Y           Z
 ---------------------------------------------------------------------
      1          6           0        0.659065    0.348016    0.029605
      2          8           0        1.791779   -0.142208   -0.043292
      3          6           0       -0.555113   -0.412063    0.041592
      4          6           0       -1.736219    0.121305   -0.053912
      5          1           0       -0.479211   -1.371423    0.171703
      6          1           0       -1.751971    1.044557    0.091680
      7          1           0       -2.729336   -0.398708   -0.105429
      8          1           0        0.419892    1.519692    0.084673
 ---------------------------------------------------------------------

 SCF Done:  E(RB2PLYPD3) =  -191.571798263     A.U. after   14 cycles
 E2(B2PLYPD3) =    -0.2481318821D+00 E(B2PLYPD3) =    -0.19181993014511D+03

 The electronic state is 1-A.
 Alpha  occ. eigenvalues --  -19.73396 -10.72762 -10.63956 -10.62583  -1.18362
 Alpha  occ. eigenvalues --   -0.95449  -0.76946  -0.68670  -0.57030  -0.56639
 Alpha  occ. eigenvalues --   -0.50659  -0.48618  -0.45981  -0.35156  -0.34017
 Alpha virt. eigenvalues --   -0.02347   0.05723   0.07146   0.08298   0.09849
 Alpha virt. eigenvalues --    0.12642   0.13625   0.15098   0.17697   0.19782
 Alpha virt. eigenvalues --    0.20739   0.21795   0.25326   0.26312   0.28989

 Mulliken charges:
               1
     1  C    0.149528
     2  O   -0.354836
     3  C   -0.000156
     4  C   -0.131907
     5  H    0.103139
     6  H    0.088941
     7  H    0.097434
     8  H    0.047858
 Sum of Mulliken charges =   0.00000

 Dipole moment (field-independent basis, Debye):
    X=             -3.6849    Y=              0.6890    Z=              0.2941  Tot=              3.7603
 Quadrupole moment (field-independent basis, Debye-Ang):
   XX=            -27.0233   YY=            -22.3480   ZZ=            -24.8359
   XY=              1.0008   XZ=              0.2182   YZ=             -0.0067

 Normal termination of Gaussian 09 at Wed Aug 26 14:29:54 2020.
