 Gaussian 09, Revision D.01,
 Gaussian 09:  ES64L-G09RevD.01 24-Apr-2013

 --------------------
 #p B2PLYPD3/Def2QZVP
 --------------------

 --------
 acrolein
 --------
 Symbolic Z-matrix:
 Charge =  0 Multiplicity = 1

                         Standard orientation:
 ---------------------------------------------------------------------
 Center     Atomic      Atomic             Coordinates (Angstroms)
 Number     Number       Type             X           Y           Z
 ---------------------------------------------------------------------
      1          6           0        0.657987    0.334247    0.006524
      2          8           0        1.796487   -0.105367   -0.006599
      3          6           0       -0.564531   -0.455096    0.018733
      4          6           0       -1.751501    0.143901   -0.007227
      5          1           0       -0.407938   -1.551028   -0.024918
      6          1           0       -1.826397    1.239389    0.006760
      7          1           0       -2.664567   -0.418298   -0.024353
      8          1           0        0.475280    1.434564   -0.012875
 ---------------------------------------------------------------------

 SCF Done:  E(RB2PLYPD3) =  -191.615192481     A.U. after   12 cycles
 E2(B2PLYPD3) =    -0.2478683868D+00 E(B2PLYPD3) =    -0.19186306086759D+03

 The electronic state is 1-A.
 Alpha  occ. eigenvalues --  -19.72811 -10.71586 -10.65801 -10.64692  -1.18867
 Alpha  occ. eigenvalues --   -0.93412  -0.75819  -0.66530  -0.56698  -0.56084
 Alpha  occ. eigenvalues --   -0.50448  -0.46808  -0.46505  -0.34877  -0.33802
 Alpha virt. eigenvalues --   -0.02027   0.05702   0.06997   0.08264   0.09750
 Alpha virt. eigenvalues --    0.12595   0.13871   0.15259   0.17240   0.19757
 Alpha virt. eigenvalues --    0.19994   0.21645   0.25375   0.26614   0.28735

 Mulliken charges:
               1
     1  C    0.159706
     2  O   -0.355788
     3  C   -0.030193
     4  C   -0.128649
     5  H    0.101690
     6  H    0.087107
     7  H    0.105782
     8  H    0.060345
 Sum of Mulliken charges =   0.00000

 Dipole moment (field-independent basis, Debye):
    X=             -3.6287    Y=              0.6795    Z=             -0.0209  Tot=              3.6919
 Quadrupole moment (field-independent basis, Debye-Ang):
   XX=            -27.5150   YY=            -21.8016   ZZ=            -25.2368
   XY=              0.7224   XZ=              0.0964   YZ=              0.0645

 Normal termination of Gaussian 09 at Wed Aug 26 15:42:43 2020.
