 Gaussian 09, Revision D.01,
 Gaussian 09:  ES64L-G09RevD.01 24-Apr-2013

 --------------------
 #p B2PLYPD3/Def2QZVP
 --------------------

 --------
 acrolein
 --------
 Symbolic Z-matrix:
 Charge =  0 Multiplicity = 1

                         Standard orientation:
 ---------------------------------------------------------------------
 Center     Atomic      Atomic             Coordinates (Angstroms)
 Number     Number       Type             X           Y           Z
 ---------------------------------------------------------------------
      1          6           0       -0.636462   -0.310144    0.061486
      2          8           0       -1.826430    0.088965   -0.063354
      3          6           0        0.584762    0.431189   -0.009049
      4          6           0        1.764280   -0.153313   -0.011852
      5          1           0        0.424670    1.590647    0.228422
      6          1           0        1.853741   -1.186909   -0.169597
      7          1           0        2.572139    0.413370   -0.068382
      8          1           0       -0.514589   -1.335215    0.272878
 ---------------------------------------------------------------------

 SCF Done:  E(RB2PLYPD3) =  -191.589060561     A.U. after   14 cycles
 E2(B2PLYPD3) =    -0.2493928184D+00 E(B2PLYPD3) =    -0.19183845337985D+03

 The electronic state is 1-A.
 Alpha  occ. eigenvalues --  -19.72756 -10.71273 -10.65526 -10.64596  -1.16453
 Alpha  occ. eigenvalues --   -0.94674  -0.78073  -0.66640  -0.57683  -0.57181
 Alpha  occ. eigenvalues --   -0.50239  -0.46892  -0.44483  -0.35251  -0.33829
 Alpha virt. eigenvalues --   -0.02927   0.05868   0.06380   0.07948   0.09552
 Alpha virt. eigenvalues --    0.13023   0.13756   0.14814   0.17219   0.19223
 Alpha virt. eigenvalues --    0.20426   0.22362   0.24065   0.27321   0.28306

 Mulliken charges:
               1
     1  C    0.147518
     2  O   -0.373512
     3  C   -0.019839
     4  C   -0.116306
     5  H    0.089287
     6  H    0.088313
     7  H    0.107985
     8  H    0.076554
 Sum of Mulliken charges =   0.00000

 Dipole moment (field-independent basis, Debye):
    X=              3.9212    Y=             -0.7370    Z=              0.3090  Tot=              4.0018
 Quadrupole moment (field-independent basis, Debye-Ang):
   XX=            -27.8500   YY=            -21.8402   ZZ=            -25.0091
   XY=              0.6322   XZ=             -0.6645   YZ=              0.4087

 Normal termination of Gaussian 09 at Wed Aug 26 12:12:47 2020.
