 Gaussian 09, Revision D.01,
 Gaussian 09:  ES64L-G09RevD.01 24-Apr-2013

 --------------------
 #p B2PLYPD3/Def2QZVP
 --------------------

 --------
 acrolein
 --------
 Symbolic Z-matrix:
 Charge =  0 Multiplicity = 1

                         Standard orientation:
 ---------------------------------------------------------------------
 Center     Atomic      Atomic             Coordinates (Angstroms)
 Number     Number       Type             X           Y           Z
 ---------------------------------------------------------------------
      1          6           0       -0.672913    0.373660   -0.051848
      2          8           0       -1.771726   -0.137279    0.022641
      3          6           0        0.528918   -0.436148   -0.015195
      4          6           0        1.755835    0.129346    0.019011
      5          1           0        0.341928   -1.547372    0.022378
      6          1           0        1.766101    1.205037   -0.008843
      7          1           0        2.879276   -0.449243    0.003803
      8          1           0       -0.484535    1.488664    0.089731
 ---------------------------------------------------------------------

 SCF Done:  E(RB2PLYPD3) =  -191.591304691     A.U. after   13 cycles
 E2(B2PLYPD3) =    -0.2498021397D+00 E(B2PLYPD3) =    -0.19184110683087D+03

 The electronic state is 1-A.
 Alpha  occ. eigenvalues --  -19.73022 -10.71993 -10.67484 -10.65013  -1.19608
 Alpha  occ. eigenvalues --   -0.92510  -0.74562  -0.66247  -0.56123  -0.54929
 Alpha  occ. eigenvalues --   -0.49689  -0.46989  -0.45301  -0.34551  -0.33852
 Alpha virt. eigenvalues --   -0.02204   0.05066   0.06628   0.07805   0.09727
 Alpha virt. eigenvalues --    0.11873   0.13768   0.15319   0.17301   0.19496
 Alpha virt. eigenvalues --    0.20126   0.20468   0.25223   0.26522   0.29013

 Mulliken charges:
               1
     1  C    0.166569
     2  O   -0.348192
     3  C   -0.040906
     4  C   -0.130871
     5  H    0.107657
     6  H    0.083030
     7  H    0.100786
     8  H    0.061927
 Sum of Mulliken charges =   0.00000

 Dipole moment (field-independent basis, Debye):
    X=              3.4116    Y=              0.8202    Z=             -0.0634  Tot=              3.5094
 Quadrupole moment (field-independent basis, Debye-Ang):
   XX=            -27.2116   YY=            -21.9832   ZZ=            -25.5141
   XY=             -0.9820   XZ=              0.0875   YZ=             -0.0116

 Normal termination of Gaussian 09 at Wed Aug 26 11:27:24 2020.
