 Gaussian 09, Revision D.01,
 Gaussian 09:  ES64L-G09RevD.01 24-Apr-2013

 --------------------
 #p B2PLYPD3/Def2QZVP
 --------------------

 --------
 acrolein
 --------
 Symbolic Z-matrix:
 Charge =  0 Multiplicity = 1

                         Standard orientation:
 ---------------------------------------------------------------------
 Center     Atomic      Atomic             Coordinates (Angstroms)
 Number     Number       Type             X           Y           Z
 ---------------------------------------------------------------------
      1          6           0       -0.678551    0.364478   -0.019406
      2          8           0       -1.782737   -0.133896    0.023944
      3          6           0        0.566040   -0.451242   -0.039845
      4          6           0        1.750250    0.145048    0.006944
      5          1           0        0.474717   -1.506352    0.020945
      6          1           0        1.817483    1.205245    0.048620
      7          1           0        2.666777   -0.425198    0.079668
      8          1           0       -0.523511    1.447764   -0.026945
 ---------------------------------------------------------------------

 SCF Done:  E(RB2PLYPD3) =  -191.616168294     A.U. after   12 cycles
 E2(B2PLYPD3) =    -0.2467817352D+00 E(B2PLYPD3) =    -0.19186295002965D+03

 The electronic state is 1-A.
 Alpha  occ. eigenvalues --  -19.72873 -10.71705 -10.64895 -10.64031  -1.19473
 Alpha  occ. eigenvalues --   -0.92988  -0.75140  -0.67558  -0.56811  -0.56295
 Alpha  occ. eigenvalues --   -0.50646  -0.47210  -0.46653  -0.34676  -0.33887
 Alpha virt. eigenvalues --   -0.01457   0.05806   0.07275   0.07938   0.09778
 Alpha virt. eigenvalues --    0.12630   0.13971   0.15385   0.17676   0.19810
 Alpha virt. eigenvalues --    0.19981   0.21596   0.25422   0.26457   0.28751

 Mulliken charges:
               1
     1  C    0.152324
     2  O   -0.347740
     3  C   -0.044624
     4  C   -0.130757
     5  H    0.108411
     6  H    0.082615
     7  H    0.099009
     8  H    0.080761
 Sum of Mulliken charges =   0.00000

 Dipole moment (field-independent basis, Debye):
    X=              3.3940    Y=              0.8355    Z=              0.0479  Tot=              3.4957
 Quadrupole moment (field-independent basis, Debye-Ang):
   XX=            -27.5513   YY=            -21.6260   ZZ=            -25.1644
   XY=             -1.0799   XZ=              0.4131   YZ=             -0.0493

 Normal termination of Gaussian 09 at Wed Aug 26 16:20:53 2020.
