 Gaussian 09, Revision D.01,
 Gaussian 09:  ES64L-G09RevD.01 24-Apr-2013

 --------------------
 #p B2PLYPD3/Def2QZVP
 --------------------

 --------
 acrolein
 --------
 Symbolic Z-matrix:
 Charge =  0 Multiplicity = 1

                         Standard orientation:
 ---------------------------------------------------------------------
 Center     Atomic      Atomic             Coordinates (Angstroms)
 Number     Number       Type             X           Y           Z
 ---------------------------------------------------------------------
      1          6           0       -0.681376    0.371976   -0.041617
      2          8           0       -1.770469   -0.147354    0.024940
      3          6           0        0.542304   -0.413097   -0.065577
      4          6           0        1.769737    0.098005    0.027210
      5          1           0        0.450444   -1.430083    0.108208
      6          1           0        1.917352    1.239294   -0.045237
      7          1           0        2.615728   -0.426772    0.085980
      8          1           0       -0.603764    1.455086    0.131434
 ---------------------------------------------------------------------

 SCF Done:  E(RB2PLYPD3) =  -191.602659410     A.U. after   12 cycles
 E2(B2PLYPD3) =    -0.2467728441D+00 E(B2PLYPD3) =    -0.19184943225359D+03

 The electronic state is 1-A.
 Alpha  occ. eigenvalues --  -19.72724 -10.71411 -10.65178 -10.63729  -1.19791
 Alpha  occ. eigenvalues --   -0.93089  -0.76259  -0.67312  -0.57660  -0.56627
 Alpha  occ. eigenvalues --   -0.51113  -0.47119  -0.45704  -0.34755  -0.33843
 Alpha virt. eigenvalues --   -0.01935   0.05815   0.07375   0.08018   0.09722
 Alpha virt. eigenvalues --    0.12301   0.14130   0.15361   0.18105   0.19264
 Alpha virt. eigenvalues --    0.19909   0.22055   0.24506   0.27037   0.28997

 Mulliken charges:
               1
     1  C    0.156953
     2  O   -0.345041
     3  C   -0.052986
     4  C   -0.121323
     5  H    0.111028
     6  H    0.067207
     7  H    0.105880
     8  H    0.078282
 Sum of Mulliken charges =   0.00000

 Dipole moment (field-independent basis, Debye):
    X=              3.4098    Y=              0.8316    Z=              0.0938  Tot=              3.5110
 Quadrupole moment (field-independent basis, Debye-Ang):
   XX=            -27.0731   YY=            -21.9163   ZZ=            -25.0561
   XY=             -1.3116   XZ=              0.3331   YZ=             -0.2314

 Normal termination of Gaussian 09 at Wed Aug 26 12:49:23 2020.
