 Gaussian 09, Revision D.01,
 Gaussian 09:  ES64L-G09RevD.01 24-Apr-2013

 --------------------
 #p B2PLYPD3/Def2QZVP
 --------------------

 --------
 acrolein
 --------
 Symbolic Z-matrix:
 Charge =  0 Multiplicity = 1

                         Standard orientation:
 ---------------------------------------------------------------------
 Center     Atomic      Atomic             Coordinates (Angstroms)
 Number     Number       Type             X           Y           Z
 ---------------------------------------------------------------------
      1          6           0       -0.685129    0.362053   -0.003323
      2          8           0       -1.780234   -0.134933   -0.009649
      3          6           0        0.556048   -0.447285    0.024798
      4          6           0        1.760517    0.140226   -0.017041
      5          1           0        0.481455   -1.503465    0.027818
      6          1           0        1.818299    1.196388    0.048739
      7          1           0        2.679776   -0.411040   -0.052868
      8          1           0       -0.526278    1.467619    0.026896
 ---------------------------------------------------------------------

 SCF Done:  E(RB2PLYPD3) =  -191.615802532     A.U. after   12 cycles
 E2(B2PLYPD3) =    -0.2467215426D+00 E(B2PLYPD3) =    -0.19186252407500D+03

 The electronic state is 1-A.
 Alpha  occ. eigenvalues --  -19.72915 -10.71812 -10.64975 -10.64135  -1.20117
 Alpha  occ. eigenvalues --   -0.92687  -0.75221  -0.67281  -0.56752  -0.56440
 Alpha  occ. eigenvalues --   -0.50751  -0.47377  -0.46923  -0.34438  -0.33875
 Alpha virt. eigenvalues --   -0.01586   0.05846   0.07272   0.08084   0.09774
 Alpha virt. eigenvalues --    0.12583   0.14088   0.15416   0.17609   0.19914
 Alpha virt. eigenvalues --    0.19987   0.21556   0.25411   0.26308   0.28783

 Mulliken charges:
               1
     1  C    0.153451
     2  O   -0.340194
     3  C   -0.043833
     4  C   -0.133965
     5  H    0.106993
     6  H    0.081931
     7  H    0.101358
     8  H    0.074258
 Sum of Mulliken charges =   0.00000

 Dipole moment (field-independent basis, Debye):
    X=              3.3686    Y=              0.7990    Z=              0.0444  Tot=              3.4623
 Quadrupole moment (field-independent basis, Debye-Ang):
   XX=            -27.3087   YY=            -21.7527   ZZ=            -25.1952
   XY=             -1.1064   XZ=             -0.0960   YZ=              0.0770

 Normal termination of Gaussian 09 at Wed Aug 26 14:48:11 2020.
