 Gaussian 09, Revision D.01,
 Gaussian 09:  ES64L-G09RevD.01 24-Apr-2013

 --------------------
 #p B2PLYPD3/Def2QZVP
 --------------------

 --------
 acrolein
 --------
 Symbolic Z-matrix:
 Charge =  0 Multiplicity = 1

                         Standard orientation:
 ---------------------------------------------------------------------
 Center     Atomic      Atomic             Coordinates (Angstroms)
 Number     Number       Type             X           Y           Z
 ---------------------------------------------------------------------
      1          6           0       -0.689242   -0.349343   -0.088125
      2          8           0       -1.796833    0.086370    0.062584
      3          6           0        0.579250    0.490956   -0.001510
      4          6           0        1.791039   -0.142150    0.018244
      5          1           0        0.404376    1.661653   -0.086981
      6          1           0        1.950160   -1.365111    0.184627
      7          1           0        2.464241    0.362752   -0.023591
      8          1           0       -0.530391   -1.347033   -0.146380
 ---------------------------------------------------------------------

 SCF Done:  E(RB2PLYPD3) =  -191.523988365     A.U. after   14 cycles
 E2(B2PLYPD3) =    -0.2478691333D+00 E(B2PLYPD3) =    -0.19177185749856D+03

 The electronic state is 1-A.
 Alpha  occ. eigenvalues --  -19.72830 -10.70810 -10.66147 -10.64643  -1.20151
 Alpha  occ. eigenvalues --   -0.92220  -0.77374  -0.67259  -0.57598  -0.54883
 Alpha  occ. eigenvalues --   -0.51317  -0.46729  -0.46078  -0.34164  -0.33601
 Alpha virt. eigenvalues --   -0.01716   0.05333   0.07052   0.07518   0.09400
 Alpha virt. eigenvalues --    0.12234   0.14356   0.15229   0.17128   0.18957
 Alpha virt. eigenvalues --    0.20068   0.23191   0.24438   0.26549   0.28242

 Mulliken charges:
               1
     1  C    0.170679
     2  O   -0.340824
     3  C   -0.053185
     4  C   -0.219077
     5  H    0.092394
     6  H    0.088552
     7  H    0.174797
     8  H    0.086664
 Sum of Mulliken charges =   0.00000

 Dipole moment (field-independent basis, Debye):
    X=              3.2718    Y=             -0.7675    Z=             -0.2462  Tot=              3.3696
 Quadrupole moment (field-independent basis, Debye-Ang):
   XX=            -27.8331   YY=            -21.2147   ZZ=            -25.2958
   XY=              0.5538   XZ=              0.5286   YZ=             -0.3378

 Normal termination of Gaussian 09 at Wed Aug 26 14:37:49 2020.
