 Gaussian 09, Revision D.01,
 Gaussian 09:  ES64L-G09RevD.01 24-Apr-2013

 --------------------
 #p B2PLYPD3/Def2QZVP
 --------------------

 --------
 acrolein
 --------
 Symbolic Z-matrix:
 Charge =  0 Multiplicity = 1

                         Standard orientation:
 ---------------------------------------------------------------------
 Center     Atomic      Atomic             Coordinates (Angstroms)
 Number     Number       Type             X           Y           Z
 ---------------------------------------------------------------------
      1          6           0       -0.673125    0.355537    0.031351
      2          8           0       -1.769224   -0.131220   -0.035665
      3          6           0        0.555448   -0.429842    0.005045
      4          6           0        1.752582    0.151341   -0.003575
      5          1           0        0.386676   -1.528554    0.109341
      6          1           0        1.800668    1.096603   -0.123563
      7          1           0        2.726897   -0.419440   -0.036005
      8          1           0       -0.569877    1.438929    0.138624
 ---------------------------------------------------------------------

 SCF Done:  E(RB2PLYPD3) =  -191.600230819     A.U. after   13 cycles
 E2(B2PLYPD3) =    -0.2462971821D+00 E(B2PLYPD3) =    -0.19184652800085D+03

 The electronic state is 1-A.
 Alpha  occ. eigenvalues --  -19.72662 -10.71138 -10.64566 -10.64421  -1.20112
 Alpha  occ. eigenvalues --   -0.93380  -0.76043  -0.67439  -0.57919  -0.55996
 Alpha  occ. eigenvalues --   -0.50568  -0.47339  -0.46656  -0.34702  -0.33811
 Alpha virt. eigenvalues --   -0.01688   0.05838   0.07138   0.08304   0.09849
 Alpha virt. eigenvalues --    0.12603   0.14113   0.15185   0.17240   0.19638
 Alpha virt. eigenvalues --    0.20573   0.21875   0.25066   0.26679   0.28872

 Mulliken charges:
               1
     1  C    0.147497
     2  O   -0.345136
     3  C   -0.030963
     4  C   -0.138519
     5  H    0.102938
     6  H    0.094101
     7  H    0.097949
     8  H    0.072132
 Sum of Mulliken charges =   0.00000

 Dipole moment (field-independent basis, Debye):
    X=              3.3738    Y=              0.8377    Z=              0.1131  Tot=              3.4780
 Quadrupole moment (field-independent basis, Debye-Ang):
   XX=            -27.2130   YY=            -21.8500   ZZ=            -25.0586
   XY=             -0.9561   XZ=             -0.4261   YZ=             -0.2324

 Normal termination of Gaussian 09 at Wed Aug 26 09:23:01 2020.
