 Gaussian 09, Revision D.01,
 Gaussian 09:  ES64L-G09RevD.01 24-Apr-2013

 --------------------
 #p B2PLYPD3/Def2QZVP
 --------------------

 --------
 acrolein
 --------
 Symbolic Z-matrix:
 Charge =  0 Multiplicity = 1

                         Standard orientation:
 ---------------------------------------------------------------------
 Center     Atomic      Atomic             Coordinates (Angstroms)
 Number     Number       Type             X           Y           Z
 ---------------------------------------------------------------------
      1          6           0        0.671061    0.355981    0.014032
      2          8           0        1.794587   -0.117215   -0.015857
      3          6           0       -0.575488   -0.460059    0.032532
      4          6           0       -1.751604    0.144816   -0.008648
      5          1           0       -0.443714   -1.556916   -0.032679
      6          1           0       -1.863227    1.259164   -0.021074
      7          1           0       -2.640414   -0.415523   -0.051633
      8          1           0        0.526857    1.406567    0.004747
 ---------------------------------------------------------------------

 SCF Done:  E(RB2PLYPD3) =  -191.613261899     A.U. after   12 cycles
 E2(B2PLYPD3) =    -0.2472026712D+00 E(B2PLYPD3) =    -0.19186046457011D+03

 The electronic state is 1-A.
 Alpha  occ. eigenvalues --  -19.72759 -10.71348 -10.65298 -10.64656  -1.18919
 Alpha  occ. eigenvalues --   -0.92956  -0.75463  -0.67195  -0.56542  -0.56309
 Alpha  occ. eigenvalues --   -0.50654  -0.46602  -0.46284  -0.34824  -0.33849
 Alpha virt. eigenvalues --   -0.01538   0.05714   0.07154   0.07922   0.09663
 Alpha virt. eigenvalues --    0.12555   0.14061   0.15337   0.17445   0.19540
 Alpha virt. eigenvalues --    0.19981   0.21796   0.25329   0.26684   0.28628

 Mulliken charges:
               1
     1  C    0.159078
     2  O   -0.354568
     3  C   -0.048244
     4  C   -0.128185
     5  H    0.104914
     6  H    0.082180
     7  H    0.102337
     8  H    0.082488
 Sum of Mulliken charges =   0.00000

 Dipole moment (field-independent basis, Debye):
    X=             -3.4913    Y=              0.8143    Z=             -0.0403  Tot=              3.5853
 Quadrupole moment (field-independent basis, Debye-Ang):
   XX=            -27.6811   YY=            -21.5327   ZZ=            -25.2193
   XY=              0.8851   XZ=              0.2626   YZ=              0.0725

 Normal termination of Gaussian 09 at Wed Aug 26 15:44:24 2020.
