 Gaussian 09, Revision D.01,
 Gaussian 09:  ES64L-G09RevD.01 24-Apr-2013

 --------------------
 #p B2PLYPD3/Def2QZVP
 --------------------

 --------
 acrolein
 --------
 Symbolic Z-matrix:
 Charge =  0 Multiplicity = 1

                         Standard orientation:
 ---------------------------------------------------------------------
 Center     Atomic      Atomic             Coordinates (Angstroms)
 Number     Number       Type             X           Y           Z
 ---------------------------------------------------------------------
      1          6           0       -0.683543    0.346351    0.027395
      2          8           0       -1.783281   -0.113139   -0.033119
      3          6           0        0.572348   -0.469067    0.007249
      4          6           0        1.756946    0.160484   -0.004143
      5          1           0        0.443357   -1.566165    0.109000
      6          1           0        1.836455    1.228776   -0.062403
      7          1           0        2.705971   -0.373726   -0.076993
      8          1           0       -0.594035    1.389619    0.112336
 ---------------------------------------------------------------------

 SCF Done:  E(RB2PLYPD3) =  -191.613011985     A.U. after   12 cycles
 E2(B2PLYPD3) =    -0.2461462409D+00 E(B2PLYPD3) =    -0.19185915822559D+03

 The electronic state is 1-A.
 Alpha  occ. eigenvalues --  -19.72548 -10.70846 -10.65379 -10.64956  -1.20476
 Alpha  occ. eigenvalues --   -0.92263  -0.74960  -0.67545  -0.57020  -0.56033
 Alpha  occ. eigenvalues --   -0.50769  -0.47247  -0.46568  -0.34535  -0.33599
 Alpha virt. eigenvalues --   -0.01292   0.05830   0.07234   0.08046   0.09632
 Alpha virt. eigenvalues --    0.12589   0.14245   0.15308   0.17560   0.19654
 Alpha virt. eigenvalues --    0.20034   0.21520   0.25113   0.26588   0.28846

 Mulliken charges:
               1
     1  C    0.154629
     2  O   -0.339487
     3  C   -0.052241
     4  C   -0.130077
     5  H    0.106343
     6  H    0.084040
     7  H    0.097745
     8  H    0.079048
 Sum of Mulliken charges =   0.00000

 Dipole moment (field-independent basis, Debye):
    X=              3.3246    Y=              0.8091    Z=              0.1241  Tot=              3.4239
 Quadrupole moment (field-independent basis, Debye-Ang):
   XX=            -27.4027   YY=            -21.6234   ZZ=            -25.2050
   XY=             -0.8785   XZ=             -0.4163   YZ=             -0.1650

 Normal termination of Gaussian 09 at Wed Aug 26 20:43:22 2020.
