 Gaussian 09, Revision D.01,
 Gaussian 09:  ES64L-G09RevD.01 24-Apr-2013

 --------------------
 #p B2PLYPD3/Def2QZVP
 --------------------

 --------
 acrolein
 --------
 Symbolic Z-matrix:
 Charge =  0 Multiplicity = 1

                         Standard orientation:
 ---------------------------------------------------------------------
 Center     Atomic      Atomic             Coordinates (Angstroms)
 Number     Number       Type             X           Y           Z
 ---------------------------------------------------------------------
      1          6           0        0.665201    0.337120   -0.012756
      2          8           0        1.788881   -0.106336    0.017631
      3          6           0       -0.556869   -0.454113   -0.026980
      4          6           0       -1.755557    0.152152    0.005601
      5          1           0       -0.447645   -1.553031    0.009953
      6          1           0       -1.848182    1.216010    0.040956
      7          1           0       -2.654540   -0.410209    0.050083
      8          1           0        0.522673    1.386963   -0.037224
 ---------------------------------------------------------------------

 SCF Done:  E(RB2PLYPD3) =  -191.615172665     A.U. after   12 cycles
 E2(B2PLYPD3) =    -0.2467402631D+00 E(B2PLYPD3) =    -0.19186191292789D+03

 The electronic state is 1-A.
 Alpha  occ. eigenvalues --  -19.72506 -10.70792 -10.65407 -10.64691  -1.19465
 Alpha  occ. eigenvalues --   -0.93057  -0.76085  -0.67429  -0.57001  -0.56472
 Alpha  occ. eigenvalues --   -0.50485  -0.47196  -0.46753  -0.34538  -0.33802
 Alpha virt. eigenvalues --   -0.01931   0.05787   0.07189   0.08349   0.09701
 Alpha virt. eigenvalues --    0.12734   0.14177   0.15346   0.17451   0.19813
 Alpha virt. eigenvalues --    0.20047   0.21738   0.25379   0.26526   0.28696

 Mulliken charges:
               1
     1  C    0.152714
     2  O   -0.351935
     3  C   -0.034075
     4  C   -0.132938
     5  H    0.101951
     6  H    0.087669
     7  H    0.103108
     8  H    0.073507
 Sum of Mulliken charges =   0.00000

 Dipole moment (field-independent basis, Debye):
    X=             -3.5699    Y=              0.7520    Z=              0.0219  Tot=              3.6483
 Quadrupole moment (field-independent basis, Debye-Ang):
   XX=            -27.4387   YY=            -21.6701   ZZ=            -25.1561
   XY=              0.8187   XZ=             -0.2942   YZ=             -0.0194

 Normal termination of Gaussian 09 at Wed Aug 26 19:49:21 2020.
