 Gaussian 09, Revision D.01,
 Gaussian 09:  ES64L-G09RevD.01 24-Apr-2013

 --------------------
 #p B2PLYPD3/Def2QZVP
 --------------------

 --------
 acrolein
 --------
 Symbolic Z-matrix:
 Charge =  0 Multiplicity = 1

                         Standard orientation:
 ---------------------------------------------------------------------
 Center     Atomic      Atomic             Coordinates (Angstroms)
 Number     Number       Type             X           Y           Z
 ---------------------------------------------------------------------
      1          6           0       -0.681378    0.360304   -0.010827
      2          8           0       -1.794234   -0.131681    0.037252
      3          6           0        0.559919   -0.448852   -0.068878
      4          6           0        1.755515    0.148271    0.012954
      5          1           0        0.479314   -1.500199   -0.029861
      6          1           0        1.804048    1.192077    0.019454
      7          1           0        2.733810   -0.447702    0.192853
      8          1           0       -0.467631    1.450935   -0.079961
 ---------------------------------------------------------------------

 SCF Done:  E(RB2PLYPD3) =  -191.608734598     A.U. after   12 cycles
 E2(B2PLYPD3) =    -0.2480831202D+00 E(B2PLYPD3) =    -0.19185681771787D+03

 The electronic state is 1-A.
 Alpha  occ. eigenvalues --  -19.73115 -10.72130 -10.65852 -10.64182  -1.19257
 Alpha  occ. eigenvalues --   -0.92886  -0.74959  -0.67545  -0.56451  -0.55749
 Alpha  occ. eigenvalues --   -0.50369  -0.47097  -0.46565  -0.34570  -0.33940
 Alpha virt. eigenvalues --   -0.01867   0.05597   0.07128   0.07800   0.09744
 Alpha virt. eigenvalues --    0.12491   0.13744   0.15342   0.17758   0.19616
 Alpha virt. eigenvalues --    0.20039   0.21272   0.25040   0.26390   0.28604

 Mulliken charges:
               1
     1  C    0.152625
     2  O   -0.348517
     3  C   -0.037189
     4  C   -0.132536
     5  H    0.108850
     6  H    0.085266
     7  H    0.096732
     8  H    0.074769
 Sum of Mulliken charges =   0.00000

 Dipole moment (field-independent basis, Debye):
    X=              3.4505    Y=              0.8086    Z=              0.0385  Tot=              3.5442
 Quadrupole moment (field-independent basis, Debye-Ang):
   XX=            -27.5944   YY=            -21.7884   ZZ=            -25.2576
   XY=             -1.0083   XZ=              0.6942   YZ=             -0.1199

 Normal termination of Gaussian 09 at Wed Aug 26 08:56:02 2020.
