 Gaussian 09, Revision D.01,
 Gaussian 09:  ES64L-G09RevD.01 24-Apr-2013

 --------------------
 #p B2PLYPD3/Def2QZVP
 --------------------

 --------
 acrolein
 --------
 Symbolic Z-matrix:
 Charge =  0 Multiplicity = 1

                         Standard orientation:
 ---------------------------------------------------------------------
 Center     Atomic      Atomic             Coordinates (Angstroms)
 Number     Number       Type             X           Y           Z
 ---------------------------------------------------------------------
      1          6           0        0.627980    0.312499    0.041508
      2          8           0        1.808801   -0.080580   -0.049288
      3          6           0       -0.591878   -0.488949    0.101504
      4          6           0       -1.718305    0.150372   -0.032131
      5          1           0       -0.433863   -1.517498   -0.119114
      6          1           0       -1.884378    1.324310   -0.075481
      7          1           0       -2.576742   -0.363467   -0.139493
      8          1           0        0.517795    1.357768    0.063100
 ---------------------------------------------------------------------

 SCF Done:  E(RB2PLYPD3) =  -191.593158696     A.U. after   13 cycles
 E2(B2PLYPD3) =    -0.2484096297D+00 E(B2PLYPD3) =    -0.19184156832541D+03

 The electronic state is 1-A.
 Alpha  occ. eigenvalues --  -19.72312 -10.70956 -10.65837 -10.64350  -1.16936
 Alpha  occ. eigenvalues --   -0.94597  -0.76340  -0.67626  -0.57599  -0.55973
 Alpha  occ. eigenvalues --   -0.50075  -0.46654  -0.45354  -0.35411  -0.33499
 Alpha virt. eigenvalues --   -0.01962   0.05411   0.07115   0.07637   0.09569
 Alpha virt. eigenvalues --    0.12552   0.13503   0.15319   0.17729   0.19080
 Alpha virt. eigenvalues --    0.19999   0.21978   0.24576   0.26955   0.28792

 Mulliken charges:
               1
     1  C    0.154784
     2  O   -0.375925
     3  C   -0.045681
     4  C   -0.101210
     5  H    0.111921
     6  H    0.083334
     7  H    0.098737
     8  H    0.074040
 Sum of Mulliken charges =   0.00000

 Dipole moment (field-independent basis, Debye):
    X=             -3.9047    Y=              0.6779    Z=             -0.1086  Tot=              3.9646
 Quadrupole moment (field-independent basis, Debye-Ang):
   XX=            -27.8435   YY=            -21.6110   ZZ=            -25.0423
   XY=              0.4904   XZ=              0.7877   YZ=              0.2187

 Normal termination of Gaussian 09 at Wed Aug 26 14:33:59 2020.
