 Gaussian 09, Revision D.01,
 Gaussian 09:  ES64L-G09RevD.01 24-Apr-2013

 --------------------
 #p B2PLYPD3/Def2QZVP
 --------------------

 --------
 acrolein
 --------
 Symbolic Z-matrix:
 Charge =  0 Multiplicity = 1

                         Standard orientation:
 ---------------------------------------------------------------------
 Center     Atomic      Atomic             Coordinates (Angstroms)
 Number     Number       Type             X           Y           Z
 ---------------------------------------------------------------------
      1          6           0       -0.685354    0.359535    0.040402
      2          8           0       -1.787915   -0.112199   -0.028328
      3          6           0        0.570446   -0.470267    0.006549
      4          6           0        1.767894    0.138753   -0.028327
      5          1           0        0.411522   -1.557483    0.041296
      6          1           0        1.895984    1.255873   -0.061189
      7          1           0        2.590715   -0.386661    0.066747
      8          1           0       -0.512816    1.417736    0.068031
 ---------------------------------------------------------------------

 SCF Done:  E(RB2PLYPD3) =  -191.605670632     A.U. after   13 cycles
 E2(B2PLYPD3) =    -0.2466184150D+00 E(B2PLYPD3) =    -0.19185228904654D+03

 The electronic state is 1-A.
 Alpha  occ. eigenvalues --  -19.72883 -10.71340 -10.64846 -10.64676  -1.20107
 Alpha  occ. eigenvalues --   -0.92323  -0.75799  -0.67160  -0.57090  -0.56026
 Alpha  occ. eigenvalues --   -0.51206  -0.47039  -0.46850  -0.34443  -0.33677
 Alpha virt. eigenvalues --   -0.01487   0.05816   0.07378   0.07929   0.09676
 Alpha virt. eigenvalues --    0.12625   0.14220   0.15456   0.17356   0.19446
 Alpha virt. eigenvalues --    0.19973   0.22299   0.25206   0.26673   0.28433

 Mulliken charges:
               1
     1  C    0.162389
     2  O   -0.342592
     3  C   -0.056313
     4  C   -0.133185
     5  H    0.104557
     6  H    0.079994
     7  H    0.105299
     8  H    0.079852
 Sum of Mulliken charges =   0.00000

 Dipole moment (field-independent basis, Debye):
    X=              3.3335    Y=              0.7862    Z=              0.1802  Tot=              3.4297
 Quadrupole moment (field-independent basis, Debye-Ang):
   XX=            -27.5078   YY=            -21.5530   ZZ=            -25.2060
   XY=             -0.7259   XZ=             -0.0436   YZ=             -0.1404

 Normal termination of Gaussian 09 at Wed Aug 26 09:08:41 2020.
