 Gaussian 09, Revision D.01,
 Gaussian 09:  ES64L-G09RevD.01 24-Apr-2013

 --------------------
 #p B2PLYPD3/Def2QZVP
 --------------------

 --------
 acrolein
 --------
 Symbolic Z-matrix:
 Charge =  0 Multiplicity = 1

                         Standard orientation:
 ---------------------------------------------------------------------
 Center     Atomic      Atomic             Coordinates (Angstroms)
 Number     Number       Type             X           Y           Z
 ---------------------------------------------------------------------
      1          6           0        0.673525    0.344194   -0.016699
      2          8           0        1.784681   -0.116856    0.012484
      3          6           0       -0.565846   -0.452392   -0.000834
      4          6           0       -1.752929    0.141415   -0.003356
      5          1           0       -0.471450   -1.515484   -0.013164
      6          1           0       -1.830167    1.228087    0.062917
      7          1           0       -2.615378   -0.396384    0.008804
      8          1           0        0.511042    1.419336   -0.033105
 ---------------------------------------------------------------------

 SCF Done:  E(RB2PLYPD3) =  -191.614739966     A.U. after   12 cycles
 E2(B2PLYPD3) =    -0.2461065646D+00 E(B2PLYPD3) =    -0.19186084653018D+03

 The electronic state is 1-A.
 Alpha  occ. eigenvalues --  -19.72766 -10.71266 -10.64644 -10.64035  -1.19920
 Alpha  occ. eigenvalues --   -0.93257  -0.75913  -0.67355  -0.57186  -0.56597
 Alpha  occ. eigenvalues --   -0.50994  -0.47254  -0.46962  -0.34767  -0.33820
 Alpha virt. eigenvalues --   -0.01542   0.05878   0.07349   0.08281   0.09753
 Alpha virt. eigenvalues --    0.12765   0.14210   0.15360   0.17555   0.19765
 Alpha virt. eigenvalues --    0.20019   0.21927   0.25493   0.26536   0.28683

 Mulliken charges:
               1
     1  C    0.154913
     2  O   -0.344929
     3  C   -0.039173
     4  C   -0.130774
     5  H    0.102736
     6  H    0.081328
     7  H    0.103603
     8  H    0.072296
 Sum of Mulliken charges =   0.00000

 Dipole moment (field-independent basis, Debye):
    X=             -3.4487    Y=              0.7355    Z=             -0.0095  Tot=              3.5263
 Quadrupole moment (field-independent basis, Debye-Ang):
   XX=            -27.4039   YY=            -21.7210   ZZ=            -25.0738
   XY=              0.9417   XZ=             -0.1737   YZ=              0.0823

 Normal termination of Gaussian 09 at Wed Aug 26 15:04:12 2020.
