 Gaussian 09, Revision D.01,
 Gaussian 09:  ES64L-G09RevD.01 24-Apr-2013

 --------------------
 #p B2PLYPD3/Def2QZVP
 --------------------

 --------
 acrolein
 --------
 Symbolic Z-matrix:
 Charge =  0 Multiplicity = 1

                         Standard orientation:
 ---------------------------------------------------------------------
 Center     Atomic      Atomic             Coordinates (Angstroms)
 Number     Number       Type             X           Y           Z
 ---------------------------------------------------------------------
      1          6           0        0.659120   -0.337179    0.045576
      2          8           0        1.785486    0.094404   -0.054027
      3          6           0       -0.608467    0.499936   -0.002783
      4          6           0       -1.733782   -0.180007   -0.002956
      5          1           0       -0.416326    1.593944    0.180581
      6          1           0       -1.873880   -1.251729   -0.158238
      7          1           0       -2.531594    0.350838   -0.069581
      8          1           0        0.636687   -1.344791    0.240434
 ---------------------------------------------------------------------

 SCF Done:  E(RB2PLYPD3) =  -191.588077253     A.U. after   13 cycles
 E2(B2PLYPD3) =    -0.2462407327D+00 E(B2PLYPD3) =    -0.19183431798529D+03

 The electronic state is 1-A.
 Alpha  occ. eigenvalues --  -19.72234 -10.70473 -10.65203 -10.63692  -1.19217
 Alpha  occ. eigenvalues --   -0.93321  -0.75660  -0.67699  -0.57287  -0.56711
 Alpha  occ. eigenvalues --   -0.50772  -0.47222  -0.45915  -0.35114  -0.33115
 Alpha virt. eigenvalues --   -0.00922   0.05998   0.06936   0.07640   0.09584
 Alpha virt. eigenvalues --    0.12947   0.14131   0.15069   0.17374   0.19470
 Alpha virt. eigenvalues --    0.20206   0.22351   0.24293   0.26616   0.28375

 Mulliken charges:
               1
     1  C    0.152285
     2  O   -0.350463
     3  C   -0.059801
     4  C   -0.122582
     5  H    0.111076
     6  H    0.088336
     7  H    0.097905
     8  H    0.083244
 Sum of Mulliken charges =   0.00000

 Dipole moment (field-independent basis, Debye):
    X=             -3.4125    Y=             -0.7504    Z=              0.2371  Tot=              3.5020
 Quadrupole moment (field-independent basis, Debye-Ang):
   XX=            -27.8613   YY=            -21.2802   ZZ=            -24.9846
   XY=             -0.6438   XZ=              0.6751   YZ=              0.3742

 Normal termination of Gaussian 09 at Wed Aug 26 14:13:45 2020.
