 Gaussian 09, Revision D.01,
 Gaussian 09:  ES64L-G09RevD.01 24-Apr-2013

 --------------------
 #p B2PLYPD3/Def2QZVP
 --------------------

 --------
 acrolein
 --------
 Symbolic Z-matrix:
 Charge =  0 Multiplicity = 1

                         Standard orientation:
 ---------------------------------------------------------------------
 Center     Atomic      Atomic             Coordinates (Angstroms)
 Number     Number       Type             X           Y           Z
 ---------------------------------------------------------------------
      1          6           0        0.652511    0.333137    0.033501
      2          8           0        1.774516   -0.130013   -0.040303
      3          6           0       -0.520002   -0.405640    0.088048
      4          6           0       -1.745258    0.125252   -0.046938
      5          1           0       -0.354592   -1.470804   -0.065058
      6          1           0       -1.809485    1.179139   -0.002307
      7          1           0       -2.861658   -0.500532   -0.067177
      8          1           0        0.506100    1.515811    0.009298
 ---------------------------------------------------------------------

 SCF Done:  E(RB2PLYPD3) =  -191.583290852     A.U. after   13 cycles
 E2(B2PLYPD3) =    -0.2499353632D+00 E(B2PLYPD3) =    -0.19183322621559D+03

 The electronic state is 1-A.
 Alpha  occ. eigenvalues --  -19.72766 -10.71743 -10.68014 -10.64316  -1.19321
 Alpha  occ. eigenvalues --   -0.94032  -0.75981  -0.66052  -0.56652  -0.55254
 Alpha  occ. eigenvalues --   -0.49191  -0.47341  -0.45497  -0.34888  -0.33750
 Alpha virt. eigenvalues --   -0.02898   0.04789   0.06642   0.08664   0.09813
 Alpha virt. eigenvalues --    0.11686   0.13398   0.15003   0.17672   0.19607
 Alpha virt. eigenvalues --    0.20064   0.20399   0.24563   0.26467   0.28454

 Mulliken charges:
               1
     1  C    0.156290
     2  O   -0.352096
     3  C   -0.018632
     4  C   -0.116224
     5  H    0.106054
     6  H    0.090522
     7  H    0.100185
     8  H    0.033901
 Sum of Mulliken charges =   0.00000

 Dipole moment (field-independent basis, Debye):
    X=             -3.7232    Y=              0.6551    Z=              0.0060  Tot=              3.7804
 Quadrupole moment (field-independent basis, Debye-Ang):
   XX=            -26.8334   YY=            -22.3764   ZZ=            -25.3494
   XY=              0.9135   XZ=              0.3916   YZ=              0.1714

 Normal termination of Gaussian 09 at Wed Aug 26 13:55:21 2020.
