 Gaussian 09, Revision D.01,
 Gaussian 09:  ES64L-G09RevD.01 24-Apr-2013

 --------------------
 #p B2PLYPD3/Def2QZVP
 --------------------

 --------
 acrolein
 --------
 Symbolic Z-matrix:
 Charge =  0 Multiplicity = 1

                         Standard orientation:
 ---------------------------------------------------------------------
 Center     Atomic      Atomic             Coordinates (Angstroms)
 Number     Number       Type             X           Y           Z
 ---------------------------------------------------------------------
      1          6           0       -0.672236    0.345210    0.025845
      2          8           0       -1.788636   -0.114870   -0.017261
      3          6           0        0.563123   -0.469701    0.023239
      4          6           0        1.747868    0.151484   -0.014528
      5          1           0        0.453680   -1.531314   -0.011411
      6          1           0        1.851179    1.244107    0.018303
      7          1           0        2.678427   -0.418245   -0.042757
      8          1           0       -0.506726    1.462456   -0.033386
 ---------------------------------------------------------------------

 SCF Done:  E(RB2PLYPD3) =  -191.615588664     A.U. after   12 cycles
 E2(B2PLYPD3) =    -0.2473969278D+00 E(B2PLYPD3) =    -0.19186298559212D+03

 The electronic state is 1-A.
 Alpha  occ. eigenvalues --  -19.72821 -10.71808 -10.65773 -10.64508  -1.19652
 Alpha  occ. eigenvalues --   -0.92772  -0.74922  -0.66847  -0.56310  -0.56201
 Alpha  occ. eigenvalues --   -0.50458  -0.47117  -0.46792  -0.34650  -0.33682
 Alpha virt. eigenvalues --   -0.01621   0.05718   0.07129   0.07971   0.09699
 Alpha virt. eigenvalues --    0.12512   0.13966   0.15336   0.17521   0.19712
 Alpha virt. eigenvalues --    0.20013   0.21432   0.25200   0.26531   0.28631

 Mulliken charges:
               1
     1  C    0.157525
     2  O   -0.345439
     3  C   -0.044899
     4  C   -0.128761
     5  H    0.109850
     6  H    0.087584
     7  H    0.098331
     8  H    0.065809
 Sum of Mulliken charges =   0.00000

 Dipole moment (field-independent basis, Debye):
    X=              3.4704    Y=              0.7069    Z=              0.0239  Tot=              3.5418
 Quadrupole moment (field-independent basis, Debye-Ang):
   XX=            -27.5034   YY=            -21.6811   ZZ=            -25.2803
   XY=             -0.8069   XZ=             -0.1587   YZ=              0.0581

 Normal termination of Gaussian 09 at Wed Aug 26 15:51:05 2020.
