 Gaussian 09, Revision D.01,
 Gaussian 09:  ES64L-G09RevD.01 24-Apr-2013

 --------------------
 #p B2PLYPD3/Def2QZVP
 --------------------

 --------
 acrolein
 --------
 Symbolic Z-matrix:
 Charge =  0 Multiplicity = 1

                         Standard orientation:
 ---------------------------------------------------------------------
 Center     Atomic      Atomic             Coordinates (Angstroms)
 Number     Number       Type             X           Y           Z
 ---------------------------------------------------------------------
      1          6           0        0.671717    0.326677   -0.038202
      2          8           0        1.791956   -0.101129    0.064249
      3          6           0       -0.535825   -0.428175   -0.105464
      4          6           0       -1.770975    0.144493    0.068495
      5          1           0       -0.435770   -1.561160   -0.071392
      6          1           0       -1.879175    1.240972   -0.089325
      7          1           0       -2.767904   -0.438341    0.189985
      8          1           0        0.557703    1.309591   -0.092236
 ---------------------------------------------------------------------

 SCF Done:  E(RB2PLYPD3) =  -191.593771989     A.U. after   14 cycles
 E2(B2PLYPD3) =    -0.2480399452D+00 E(B2PLYPD3) =    -0.19184181193381D+03

 The electronic state is 1-A.
 Alpha  occ. eigenvalues --  -19.72259 -10.69801 -10.67678 -10.65307  -1.19700
 Alpha  occ. eigenvalues --   -0.92595  -0.76285  -0.67819  -0.56986  -0.55475
 Alpha  occ. eigenvalues --   -0.50277  -0.47130  -0.45623  -0.34121  -0.33904
 Alpha virt. eigenvalues --   -0.02677   0.05351   0.07023   0.08507   0.09534
 Alpha virt. eigenvalues --    0.12291   0.14121   0.15286   0.17563   0.19775
 Alpha virt. eigenvalues --    0.19824   0.20958   0.24046   0.26983   0.28527

 Mulliken charges:
               1
     1  C    0.162521
     2  O   -0.353287
     3  C   -0.033474
     4  C   -0.127638
     5  H    0.096777
     6  H    0.084533
     7  H    0.101612
     8  H    0.068958
 Sum of Mulliken charges =   0.00000

 Dipole moment (field-independent basis, Debye):
    X=             -3.6752    Y=              0.7802    Z=             -0.1876  Tot=              3.7618
 Quadrupole moment (field-independent basis, Debye-Ang):
   XX=            -27.1230   YY=            -21.9290   ZZ=            -25.2641
   XY=              0.9103   XZ=             -0.6610   YZ=             -0.2165

 Normal termination of Gaussian 09 at Wed Aug 26 14:28:14 2020.
