 Gaussian 09, Revision D.01,
 Gaussian 09:  ES64L-G09RevD.01 24-Apr-2013

 --------------------
 #p B2PLYPD3/Def2QZVP
 --------------------

 --------
 acrolein
 --------
 Symbolic Z-matrix:
 Charge =  0 Multiplicity = 1

                         Standard orientation:
 ---------------------------------------------------------------------
 Center     Atomic      Atomic             Coordinates (Angstroms)
 Number     Number       Type             X           Y           Z
 ---------------------------------------------------------------------
      1          6           0       -0.670392    0.349357   -0.051372
      2          8           0       -1.797040   -0.122954    0.041465
      3          6           0        0.548485   -0.423989   -0.047436
      4          6           0        1.774832    0.122450   -0.000446
      5          1           0        0.471440   -1.523538   -0.005458
      6          1           0        1.879331    1.236419    0.045725
      7          1           0        2.569801   -0.469088    0.188088
      8          1           0       -0.461802    1.452931    0.035447
 ---------------------------------------------------------------------

 SCF Done:  E(RB2PLYPD3) =  -191.606552810     A.U. after   13 cycles
 E2(B2PLYPD3) =    -0.2486116546D+00 E(B2PLYPD3) =    -0.19185516446483D+03

 The electronic state is 1-A.
 Alpha  occ. eigenvalues --  -19.73058 -10.71937 -10.65445 -10.64618  -1.18785
 Alpha  occ. eigenvalues --   -0.93324  -0.76714  -0.66269  -0.57206  -0.55962
 Alpha  occ. eigenvalues --   -0.50798  -0.46605  -0.46408  -0.34574  -0.34072
 Alpha virt. eigenvalues --   -0.02579   0.05744   0.06949   0.08241   0.09763
 Alpha virt. eigenvalues --    0.12585   0.13953   0.15299   0.17445   0.19396
 Alpha virt. eigenvalues --    0.19777   0.22285   0.24891   0.26737   0.28411

 Mulliken charges:
               1
     1  C    0.161778
     2  O   -0.352759
     3  C   -0.028642
     4  C   -0.126367
     5  H    0.095905
     6  H    0.079185
     7  H    0.108504
     8  H    0.062396
 Sum of Mulliken charges =   0.00000

 Dipole moment (field-independent basis, Debye):
    X=              3.5985    Y=              0.7149    Z=              0.0631  Tot=              3.6694
 Quadrupole moment (field-independent basis, Debye-Ang):
   XX=            -27.6114   YY=            -21.8290   ZZ=            -25.1956
   XY=             -0.9850   XZ=              0.7374   YZ=             -0.0635

 Normal termination of Gaussian 09 at Wed Aug 26 12:29:40 2020.
