 Gaussian 09, Revision D.01,
 Gaussian 09:  ES64L-G09RevD.01 24-Apr-2013

 --------------------
 #p B2PLYPD3/Def2QZVP
 --------------------

 --------
 acrolein
 --------
 Symbolic Z-matrix:
 Charge =  0 Multiplicity = 1

                         Standard orientation:
 ---------------------------------------------------------------------
 Center     Atomic      Atomic             Coordinates (Angstroms)
 Number     Number       Type             X           Y           Z
 ---------------------------------------------------------------------
      1          6           0       -0.626648   -0.337416    0.070651
      2          8           0       -1.809784    0.091088   -0.042718
      3          6           0        0.612382    0.481790    0.037818
      4          6           0        1.736411   -0.166820   -0.028992
      5          1           0        0.385991    1.668592    0.001717
      6          1           0        1.864606   -1.290498   -0.002012
      7          1           0        2.451518    0.411846   -0.086999
      8          1           0       -0.556717   -1.383968   -0.047826
 ---------------------------------------------------------------------

 SCF Done:  E(RB2PLYPD3) =  -191.565539229     A.U. after   14 cycles
 E2(B2PLYPD3) =    -0.2496000320D+00 E(B2PLYPD3) =    -0.19181513926118D+03

 The electronic state is 1-A.
 Alpha  occ. eigenvalues --  -19.72465 -10.71351 -10.65826 -10.63974  -1.16161
 Alpha  occ. eigenvalues --   -0.94637  -0.76808  -0.66316  -0.57717  -0.56086
 Alpha  occ. eigenvalues --   -0.49318  -0.46530  -0.44996  -0.35305  -0.33483
 Alpha virt. eigenvalues --   -0.01875   0.05614   0.06571   0.07420   0.09569
 Alpha virt. eigenvalues --    0.12459   0.13967   0.15049   0.16763   0.19441
 Alpha virt. eigenvalues --    0.20088   0.22725   0.24842   0.26503   0.28517

 Mulliken charges:
               1
     1  C    0.159192
     2  O   -0.380733
     3  C   -0.042990
     4  C   -0.136254
     5  H    0.102281
     6  H    0.102782
     7  H    0.114465
     8  H    0.081257
 Sum of Mulliken charges =   0.00000

 Dipole moment (field-independent basis, Debye):
    X=              3.7706    Y=             -0.7491    Z=              0.0802  Tot=              3.8451
 Quadrupole moment (field-independent basis, Debye-Ang):
   XX=            -28.4246   YY=            -21.0608   ZZ=            -25.1852
   XY=              0.5619   XZ=             -0.3693   YZ=             -0.0366

 Normal termination of Gaussian 09 at Wed Aug 26 12:46:56 2020.
