 Gaussian 09, Revision D.01,
 Gaussian 09:  ES64L-G09RevD.01 24-Apr-2013

 --------------------
 #p B2PLYPD3/Def2QZVP
 --------------------

 --------
 acrolein
 --------
 Symbolic Z-matrix:
 Charge =  0 Multiplicity = 1

                         Standard orientation:
 ---------------------------------------------------------------------
 Center     Atomic      Atomic             Coordinates (Angstroms)
 Number     Number       Type             X           Y           Z
 ---------------------------------------------------------------------
      1          6           0        0.682546    0.376240    0.027599
      2          8           0        1.803865   -0.141683   -0.051342
      3          6           0       -0.542859   -0.426028    0.032311
      4          6           0       -1.741640    0.107861   -0.064121
      5          1           0       -0.540330   -1.462970    0.171647
      6          1           0       -1.940459    1.249379   -0.133455
      7          1           0       -2.741869   -0.468725    0.083818
      8          1           0        0.403451    1.467344    0.313988
 ---------------------------------------------------------------------

 SCF Done:  E(RB2PLYPD3) =  -191.594157448     A.U. after   13 cycles
 E2(B2PLYPD3) =    -0.2500367650D+00 E(B2PLYPD3) =    -0.19184419421253D+03

 The electronic state is 1-A.
 Alpha  occ. eigenvalues --  -19.73628 -10.73088 -10.66646 -10.63865  -1.18438
 Alpha  occ. eigenvalues --   -0.93351  -0.74981  -0.66460  -0.56120  -0.55475
 Alpha  occ. eigenvalues --   -0.50799  -0.46040  -0.44844  -0.35010  -0.34240
 Alpha virt. eigenvalues --   -0.02254   0.05354   0.06506   0.07929   0.09480
 Alpha virt. eigenvalues --    0.12240   0.13723   0.15311   0.17980   0.18424
 Alpha virt. eigenvalues --    0.20020   0.21121   0.24764   0.26882   0.28318

 Mulliken charges:
               1
     1  C    0.161513
     2  O   -0.348267
     3  C   -0.036372
     4  C   -0.113991
     5  H    0.107541
     6  H    0.064142
     7  H    0.088729
     8  H    0.076706
 Sum of Mulliken charges =   0.00000

 Dipole moment (field-independent basis, Debye):
    X=             -3.5243    Y=              0.7953    Z=              0.3774  Tot=              3.6326
 Quadrupole moment (field-independent basis, Debye-Ang):
   XX=            -27.5284   YY=            -22.0546   ZZ=            -25.3015
   XY=              0.9363   XZ=              0.0948   YZ=             -0.2521

 Normal termination of Gaussian 09 at Wed Aug 26 12:41:39 2020.
