 Gaussian 09, Revision D.01,
 Gaussian 09:  ES64L-G09RevD.01 24-Apr-2013

 --------------------
 #p B2PLYPD3/Def2QZVP
 --------------------

 --------
 acrolein
 --------
 Symbolic Z-matrix:
 Charge =  0 Multiplicity = 1

                         Standard orientation:
 ---------------------------------------------------------------------
 Center     Atomic      Atomic             Coordinates (Angstroms)
 Number     Number       Type             X           Y           Z
 ---------------------------------------------------------------------
      1          6           0        0.660511    0.339528    0.004827
      2          8           0        1.790182   -0.103675   -0.021806
      3          6           0       -0.577058   -0.465346    0.016062
      4          6           0       -1.744633    0.158521   -0.008832
      5          1           0       -0.410500   -1.616378    0.068329
      6          1           0       -1.838710    1.282435   -0.050873
      7          1           0       -2.644926   -0.427001   -0.045573
      8          1           0        0.539757    1.394123    0.130228
 ---------------------------------------------------------------------

 SCF Done:  E(RB2PLYPD3) =  -191.608803254     A.U. after   12 cycles
 E2(B2PLYPD3) =    -0.2475232809D+00 E(B2PLYPD3) =    -0.19185632653459D+03

 The electronic state is 1-A.
 Alpha  occ. eigenvalues --  -19.72582 -10.71075 -10.65801 -10.65241  -1.19163
 Alpha  occ. eigenvalues --   -0.93019  -0.75251  -0.66429  -0.56336  -0.56098
 Alpha  occ. eigenvalues --   -0.50349  -0.46622  -0.46006  -0.34935  -0.33642
 Alpha virt. eigenvalues --   -0.01541   0.05686   0.06709   0.08062   0.09649
 Alpha virt. eigenvalues --    0.12508   0.14003   0.15245   0.17091   0.19342
 Alpha virt. eigenvalues --    0.20060   0.21651   0.25268   0.26750   0.28670

 Mulliken charges:
               1
     1  C    0.161049
     2  O   -0.353014
     3  C   -0.045288
     4  C   -0.128166
     5  H    0.100551
     6  H    0.088183
     7  H    0.104027
     8  H    0.072658
 Sum of Mulliken charges =   0.00000

 Dipole moment (field-independent basis, Debye):
    X=             -3.5033    Y=              0.7407    Z=              0.0788  Tot=              3.5816
 Quadrupole moment (field-independent basis, Debye-Ang):
   XX=            -27.7742   YY=            -21.5108   ZZ=            -25.2828
   XY=              0.7691   XZ=              0.2941   YZ=             -0.0854

 Normal termination of Gaussian 09 at Wed Aug 26 09:12:18 2020.
