 Gaussian 09, Revision D.01,
 Gaussian 09:  ES64L-G09RevD.01 24-Apr-2013

 --------------------
 #p B2PLYPD3/Def2QZVP
 --------------------

 --------
 acrolein
 --------
 Symbolic Z-matrix:
 Charge =  0 Multiplicity = 1

                         Standard orientation:
 ---------------------------------------------------------------------
 Center     Atomic      Atomic             Coordinates (Angstroms)
 Number     Number       Type             X           Y           Z
 ---------------------------------------------------------------------
      1          6           0        0.670909    0.351447    0.058340
      2          8           0        1.791688   -0.133974   -0.039661
      3          6           0       -0.547012   -0.418839    0.019686
      4          6           0       -1.752189    0.131028   -0.029862
      5          1           0       -0.430745   -1.462594    0.048337
      6          1           0       -1.828425    1.193521   -0.054472
      7          1           0       -2.791854   -0.485912    0.003433
      8          1           0        0.487277    1.444958    0.031003
 ---------------------------------------------------------------------

 SCF Done:  E(RB2PLYPD3) =  -191.603597983     A.U. after   13 cycles
 E2(B2PLYPD3) =    -0.2483990735D+00 E(B2PLYPD3) =    -0.19185199705648D+03

 The electronic state is 1-A.
 Alpha  occ. eigenvalues --  -19.73007 -10.71730 -10.66634 -10.63823  -1.18804
 Alpha  occ. eigenvalues --   -0.93566  -0.75525  -0.67453  -0.56683  -0.55564
 Alpha  occ. eigenvalues --   -0.50214  -0.46624  -0.46181  -0.34872  -0.34048
 Alpha virt. eigenvalues --   -0.02276   0.05315   0.07076   0.08254   0.09754
 Alpha virt. eigenvalues --    0.12216   0.13744   0.15325   0.17899   0.19734
 Alpha virt. eigenvalues --    0.19831   0.20958   0.25644   0.26261   0.28905

 Mulliken charges:
               1
     1  C    0.155063
     2  O   -0.356194
     3  C   -0.024200
     4  C   -0.130474
     5  H    0.107088
     6  H    0.084674
     7  H    0.097605
     8  H    0.066437
 Sum of Mulliken charges =   0.00000

 Dipole moment (field-independent basis, Debye):
    X=             -3.5725    Y=              0.7953    Z=              0.1664  Tot=              3.6638
 Quadrupole moment (field-independent basis, Debye-Ang):
   XX=            -27.3506   YY=            -21.9755   ZZ=            -25.2425
   XY=              1.0177   XZ=              0.2168   YZ=             -0.1169

 Normal termination of Gaussian 09 at Wed Aug 26 10:15:42 2020.
