 Gaussian 09, Revision D.01,
 Gaussian 09:  ES64L-G09RevD.01 24-Apr-2013

 --------------------
 #p B2PLYPD3/Def2QZVP
 --------------------

 --------
 acrolein
 --------
 Symbolic Z-matrix:
 Charge =  0 Multiplicity = 1

                         Standard orientation:
 ---------------------------------------------------------------------
 Center     Atomic      Atomic             Coordinates (Angstroms)
 Number     Number       Type             X           Y           Z
 ---------------------------------------------------------------------
      1          6           0       -0.665429    0.354378   -0.020032
      2          8           0       -1.786789   -0.129880    0.022048
      3          6           0        0.558669   -0.436015   -0.021176
      4          6           0        1.747772    0.138276    0.019876
      5          1           0        0.423371   -1.539357   -0.062796
      6          1           0        1.820886    1.170352   -0.042781
      7          1           0        2.705867   -0.428159    0.071988
      8          1           0       -0.501887    1.496361   -0.014809
 ---------------------------------------------------------------------

 SCF Done:  E(RB2PLYPD3) =  -191.611516273     A.U. after   13 cycles
 E2(B2PLYPD3) =    -0.2479925847D+00 E(B2PLYPD3) =    -0.19185950885722D+03

 The electronic state is 1-A.
 Alpha  occ. eigenvalues --  -19.72979 -10.72170 -10.65274 -10.64565  -1.18945
 Alpha  occ. eigenvalues --   -0.93495  -0.75566  -0.66423  -0.56656  -0.56197
 Alpha  occ. eigenvalues --   -0.50293  -0.46922  -0.46288  -0.34883  -0.33907
 Alpha virt. eigenvalues --   -0.01927   0.05715   0.06864   0.08186   0.09804
 Alpha virt. eigenvalues --    0.12471   0.13904   0.15287   0.17106   0.19878
 Alpha virt. eigenvalues --    0.20246   0.21558   0.25480   0.26325   0.28838

 Mulliken charges:
               1
     1  C    0.156279
     2  O   -0.352125
     3  C   -0.027865
     4  C   -0.128924
     5  H    0.102570
     6  H    0.087232
     7  H    0.101627
     8  H    0.061206
 Sum of Mulliken charges =   0.00000

 Dipole moment (field-independent basis, Debye):
    X=              3.5510    Y=              0.7598    Z=             -0.1059  Tot=              3.6329
 Quadrupole moment (field-independent basis, Debye-Ang):
   XX=            -27.3688   YY=            -21.8707   ZZ=            -25.2287
   XY=             -0.9111   XZ=              0.1806   YZ=             -0.0153

 Normal termination of Gaussian 09 at Wed Aug 26 16:15:53 2020.
