 Gaussian 09, Revision D.01,
 Gaussian 09:  ES64L-G09RevD.01 24-Apr-2013

 --------------------
 #p B2PLYPD3/Def2QZVP
 --------------------

 --------
 acrolein
 --------
 Symbolic Z-matrix:
 Charge =  0 Multiplicity = 1

                         Standard orientation:
 ---------------------------------------------------------------------
 Center     Atomic      Atomic             Coordinates (Angstroms)
 Number     Number       Type             X           Y           Z
 ---------------------------------------------------------------------
      1          6           0        0.673187    0.354063    0.011639
      2          8           0        1.791826   -0.127771   -0.026746
      3          6           0       -0.575289   -0.428076    0.042786
      4          6           0       -1.753434    0.143257   -0.034889
      5          1           0       -0.404127   -1.561920    0.046601
      6          1           0       -1.822347    1.163065    0.022560
      7          1           0       -2.695987   -0.433721   -0.050538
      8          1           0        0.521069    1.439281    0.078129
 ---------------------------------------------------------------------

 SCF Done:  E(RB2PLYPD3) =  -191.610201035     A.U. after   13 cycles
 E2(B2PLYPD3) =    -0.2473007474D+00 E(B2PLYPD3) =    -0.19185750178195D+03

 The electronic state is 1-A.
 Alpha  occ. eigenvalues --  -19.73001 -10.71723 -10.64858 -10.64698  -1.19135
 Alpha  occ. eigenvalues --   -0.93502  -0.75730  -0.66724  -0.57001  -0.56248
 Alpha  occ. eigenvalues --   -0.50694  -0.46725  -0.46000  -0.35088  -0.33931
 Alpha virt. eigenvalues --   -0.01720   0.05784   0.06932   0.08228   0.09807
 Alpha virt. eigenvalues --    0.12593   0.13945   0.15294   0.17044   0.19849
 Alpha virt. eigenvalues --    0.20191   0.21741   0.25422   0.26520   0.28618

 Mulliken charges:
               1
     1  C    0.159155
     2  O   -0.352064
     3  C   -0.031778
     4  C   -0.130739
     5  H    0.096449
     6  H    0.086566
     7  H    0.102888
     8  H    0.069523
 Sum of Mulliken charges =   0.00000

 Dipole moment (field-independent basis, Debye):
    X=             -3.4801    Y=              0.8285    Z=              0.1149  Tot=              3.5792
 Quadrupole moment (field-independent basis, Debye-Ang):
   XX=            -27.4338   YY=            -21.8418   ZZ=            -25.1698
   XY=              0.9023   XZ=              0.2038   YZ=              0.0506

 Normal termination of Gaussian 09 at Wed Aug 26 09:30:34 2020.
