 Gaussian 09, Revision D.01,
 Gaussian 09:  ES64L-G09RevD.01 24-Apr-2013

 --------------------
 #p B2PLYPD3/Def2QZVP
 --------------------

 --------
 acrolein
 --------
 Symbolic Z-matrix:
 Charge =  0 Multiplicity = 1

                         Standard orientation:
 ---------------------------------------------------------------------
 Center     Atomic      Atomic             Coordinates (Angstroms)
 Number     Number       Type             X           Y           Z
 ---------------------------------------------------------------------
      1          6           0       -0.683764    0.356475    0.040878
      2          8           0       -1.775683   -0.140680   -0.037153
      3          6           0        0.558671   -0.412363    0.000719
      4          6           0        1.759719    0.131361   -0.035701
      5          1           0        0.453335   -1.473527    0.144651
      6          1           0        1.784100    1.132347   -0.046411
      7          1           0        2.691468   -0.420263    0.036801
      8          1           0       -0.531191    1.434044    0.126802
 ---------------------------------------------------------------------

 SCF Done:  E(RB2PLYPD3) =  -191.610079035     A.U. after   12 cycles
 E2(B2PLYPD3) =    -0.2459652581D+00 E(B2PLYPD3) =    -0.19185604429358D+03

 The electronic state is 1-A.
 Alpha  occ. eigenvalues --  -19.72976 -10.71410 -10.64214 -10.63687  -1.20190
 Alpha  occ. eigenvalues --   -0.93576  -0.76077  -0.67560  -0.57369  -0.56736
 Alpha  occ. eigenvalues --   -0.51281  -0.47546  -0.46293  -0.34832  -0.34027
 Alpha virt. eigenvalues --   -0.01642   0.05910   0.07248   0.08489   0.09856
 Alpha virt. eigenvalues --    0.12702   0.14097   0.15273   0.17742   0.19753
 Alpha virt. eigenvalues --    0.20160   0.21838   0.25450   0.26689   0.29068

 Mulliken charges:
               1
     1  C    0.146101
     2  O   -0.341102
     3  C   -0.024422
     4  C   -0.135934
     5  H    0.098066
     6  H    0.080623
     7  H    0.104535
     8  H    0.072133
 Sum of Mulliken charges =   0.00000

 Dipole moment (field-independent basis, Debye):
    X=              3.3701    Y=              0.8471    Z=              0.2922  Tot=              3.4872
 Quadrupole moment (field-independent basis, Debye-Ang):
   XX=            -27.1250   YY=            -21.9920   ZZ=            -24.9837
   XY=             -1.1492   XZ=             -0.0639   YZ=             -0.2204

 Normal termination of Gaussian 09 at Wed Aug 26 09:39:16 2020.
