 Gaussian 09, Revision D.01,
 Gaussian 09:  ES64L-G09RevD.01 24-Apr-2013

 --------------------
 #p B2PLYPD3/Def2QZVP
 --------------------

 --------
 acrolein
 --------
 Symbolic Z-matrix:
 Charge =  0 Multiplicity = 1

                         Standard orientation:
 ---------------------------------------------------------------------
 Center     Atomic      Atomic             Coordinates (Angstroms)
 Number     Number       Type             X           Y           Z
 ---------------------------------------------------------------------
      1          6           0       -0.668077    0.358666   -0.019338
      2          8           0       -1.780889   -0.133269    0.011173
      3          6           0        0.557289   -0.437373   -0.002240
      4          6           0        1.744499    0.139212    0.000411
      5          1           0        0.472733   -1.492384    0.002303
      6          1           0        1.793615    1.174097    0.055040
      7          1           0        2.683964   -0.420060   -0.007817
      8          1           0       -0.505472    1.441475   -0.011906
 ---------------------------------------------------------------------

 SCF Done:  E(RB2PLYPD3) =  -191.614808443     A.U. after   12 cycles
 E2(B2PLYPD3) =    -0.2467630061D+00 E(B2PLYPD3) =    -0.19186157144925D+03

 The electronic state is 1-A.
 Alpha  occ. eigenvalues --  -19.72815 -10.71546 -10.64789 -10.63738  -1.19162
 Alpha  occ. eigenvalues --   -0.93612  -0.75677  -0.67738  -0.57048  -0.56450
 Alpha  occ. eigenvalues --   -0.50583  -0.47187  -0.46650  -0.34816  -0.33979
 Alpha virt. eigenvalues --   -0.01706   0.05797   0.07249   0.08193   0.09810
 Alpha virt. eigenvalues --    0.12676   0.14062   0.15352   0.17611   0.19907
 Alpha virt. eigenvalues --    0.20133   0.21554   0.25692   0.26383   0.28937

 Mulliken charges:
               1
     1  C    0.148587
     2  O   -0.352232
     3  C   -0.030464
     4  C   -0.132533
     5  H    0.106215
     6  H    0.082851
     7  H    0.100452
     8  H    0.077123
 Sum of Mulliken charges =   0.00000

 Dipole moment (field-independent basis, Debye):
    X=              3.4965    Y=              0.8173    Z=             -0.0092  Tot=              3.5908
 Quadrupole moment (field-independent basis, Debye-Ang):
   XX=            -27.4215   YY=            -21.7519   ZZ=            -25.0821
   XY=             -1.0930   XZ=              0.1160   YZ=              0.0619

 Normal termination of Gaussian 09 at Wed Aug 26 19:48:23 2020.
