 Gaussian 09, Revision D.01,
 Gaussian 09:  ES64L-G09RevD.01 24-Apr-2013

 --------------------
 #p B2PLYPD3/Def2QZVP
 --------------------

 --------
 acrolein
 --------
 Symbolic Z-matrix:
 Charge =  0 Multiplicity = 1

                         Standard orientation:
 ---------------------------------------------------------------------
 Center     Atomic      Atomic             Coordinates (Angstroms)
 Number     Number       Type             X           Y           Z
 ---------------------------------------------------------------------
      1          6           0        0.677055    0.328149   -0.034968
      2          8           0        1.771106   -0.099254    0.046473
      3          6           0       -0.558805   -0.489583   -0.087775
      4          6           0       -1.745079    0.167035    0.012332
      5          1           0       -0.579525   -1.479687    0.095233
      6          1           0       -1.875420    1.352291    0.091829
      7          1           0       -2.552520   -0.420984    0.163798
      8          1           0        0.599584    1.308805   -0.060176
 ---------------------------------------------------------------------

 SCF Done:  E(RB2PLYPD3) =  -191.583806114     A.U. after   13 cycles
 E2(B2PLYPD3) =    -0.2453571710D+00 E(B2PLYPD3) =    -0.19182916328457D+03

 The electronic state is 1-A.
 Alpha  occ. eigenvalues --  -19.71978 -10.69610 -10.65849 -10.63793  -1.21201
 Alpha  occ. eigenvalues --   -0.92645  -0.75517  -0.68972  -0.57939  -0.56220
 Alpha  occ. eigenvalues --   -0.50293  -0.47736  -0.47138  -0.34236  -0.33480
 Alpha virt. eigenvalues --   -0.01295   0.05657   0.07453   0.08159   0.09517
 Alpha virt. eigenvalues --    0.12634   0.14086   0.15455   0.18227   0.19326
 Alpha virt. eigenvalues --    0.19894   0.21662   0.24545   0.26621   0.28629

 Mulliken charges:
               1
     1  C    0.157336
     2  O   -0.335598
     3  C   -0.062713
     4  C   -0.124011
     5  H    0.104779
     6  H    0.083149
     7  H    0.096856
     8  H    0.080203
 Sum of Mulliken charges =   0.00000

 Dipole moment (field-independent basis, Debye):
    X=             -3.3548    Y=              0.7546    Z=              0.1575  Tot=              3.4423
 Quadrupole moment (field-independent basis, Debye-Ang):
   XX=            -27.6238   YY=            -21.3786   ZZ=            -25.0328
   XY=              1.0651   XZ=             -0.8966   YZ=             -0.1840

 Normal termination of Gaussian 09 at Wed Aug 26 14:39:49 2020.
