 Gaussian 09, Revision D.01,
 Gaussian 09:  ES64L-G09RevD.01 24-Apr-2013

 --------------------
 #p B2PLYPD3/Def2QZVP
 --------------------

 --------
 acrolein
 --------
 Symbolic Z-matrix:
 Charge =  0 Multiplicity = 1

                         Standard orientation:
 ---------------------------------------------------------------------
 Center     Atomic      Atomic             Coordinates (Angstroms)
 Number     Number       Type             X           Y           Z
 ---------------------------------------------------------------------
      1          6           0        0.664007    0.348683    0.016445
      2          8           0        1.784478   -0.128516   -0.009528
      3          6           0       -0.548857   -0.428405    0.002199
      4          6           0       -1.760128    0.136338   -0.002089
      5          1           0       -0.444995   -1.518797    0.006977
      6          1           0       -1.789506    1.183316   -0.024123
      7          1           0       -2.695139   -0.428738   -0.005825
      8          1           0        0.523685    1.452644   -0.000135
 ---------------------------------------------------------------------

 SCF Done:  E(RB2PLYPD3) =  -191.614583602     A.U. after   12 cycles
 E2(B2PLYPD3) =    -0.2475726379D+00 E(B2PLYPD3) =    -0.19186215623941D+03

 The electronic state is 1-A.
 Alpha  occ. eigenvalues --  -19.72739 -10.71524 -10.65452 -10.64361  -1.19074
 Alpha  occ. eigenvalues --   -0.93433  -0.76031  -0.66940  -0.56823  -0.56504
 Alpha  occ. eigenvalues --   -0.50459  -0.46782  -0.46701  -0.34633  -0.33970
 Alpha virt. eigenvalues --   -0.02173   0.05759   0.07041   0.08417   0.09808
 Alpha virt. eigenvalues --    0.12549   0.14006   0.15338   0.17371   0.19935
 Alpha virt. eigenvalues --    0.20024   0.21528   0.25636   0.26272   0.29134

 Mulliken charges:
               1
     1  C    0.150704
     2  O   -0.353110
     3  C   -0.024995
     4  C   -0.132895
     5  H    0.101193
     6  H    0.084862
     7  H    0.107529
     8  H    0.066713
 Sum of Mulliken charges =   0.00000

 Dipole moment (field-independent basis, Debye):
    X=             -3.5885    Y=              0.7667    Z=              0.0203  Tot=              3.6696
 Quadrupole moment (field-independent basis, Debye-Ang):
   XX=            -27.2947   YY=            -21.8624   ZZ=            -25.1876
   XY=              1.1059   XZ=              0.0880   YZ=             -0.0377

 Normal termination of Gaussian 09 at Wed Aug 26 16:00:28 2020.
