 Gaussian 09, Revision D.01,
 Gaussian 09:  ES64L-G09RevD.01 24-Apr-2013

 --------------------
 #p B2PLYPD3/Def2QZVP
 --------------------

 --------
 acrolein
 --------
 Symbolic Z-matrix:
 Charge =  0 Multiplicity = 1

                         Standard orientation:
 ---------------------------------------------------------------------
 Center     Atomic      Atomic             Coordinates (Angstroms)
 Number     Number       Type             X           Y           Z
 ---------------------------------------------------------------------
      1          6           0        0.666610    0.348968    0.013261
      2          8           0        1.792034   -0.125400   -0.007211
      3          6           0       -0.559180   -0.438891    0.001360
      4          6           0       -1.757519    0.136818   -0.013034
      5          1           0       -0.422450   -1.526955    0.013291
      6          1           0       -1.830203    1.212244    0.004328
      7          1           0       -2.689211   -0.444788    0.026436
      8          1           0        0.506121    1.481330    0.004109
 ---------------------------------------------------------------------

 SCF Done:  E(RB2PLYPD3) =  -191.614782943     A.U. after   12 cycles
 E2(B2PLYPD3) =    -0.2480755595D+00 E(B2PLYPD3) =    -0.19186285850240D+03

 The electronic state is 1-A.
 Alpha  occ. eigenvalues --  -19.72944 -10.72025 -10.65736 -10.64542  -1.18950
 Alpha  occ. eigenvalues --   -0.93260  -0.75548  -0.66410  -0.56431  -0.56219
 Alpha  occ. eigenvalues --   -0.50350  -0.46690  -0.46584  -0.34809  -0.33888
 Alpha virt. eigenvalues --   -0.02045   0.05691   0.06958   0.08237   0.09786
 Alpha virt. eigenvalues --    0.12447   0.13820   0.15322   0.17285   0.19848
 Alpha virt. eigenvalues --    0.19914   0.21542   0.25525   0.26343   0.28826

 Mulliken charges:
               1
     1  C    0.158546
     2  O   -0.352780
     3  C   -0.031858
     4  C   -0.128844
     5  H    0.103388
     6  H    0.086074
     7  H    0.104589
     8  H    0.060884
 Sum of Mulliken charges =   0.00000

 Dipole moment (field-independent basis, Debye):
    X=             -3.5649    Y=              0.7295    Z=              0.0706  Tot=              3.6395
 Quadrupole moment (field-independent basis, Debye-Ang):
   XX=            -27.4353   YY=            -21.8375   ZZ=            -25.2736
   XY=              0.9356   XZ=             -0.0529   YZ=             -0.0275

 Normal termination of Gaussian 09 at Wed Aug 26 19:36:07 2020.
