 Gaussian 09, Revision D.01,
 Gaussian 09:  ES64L-G09RevD.01 24-Apr-2013

 --------------------
 #p B2PLYPD3/Def2QZVP
 --------------------

 --------
 acrolein
 --------
 Symbolic Z-matrix:
 Charge =  0 Multiplicity = 1

                         Standard orientation:
 ---------------------------------------------------------------------
 Center     Atomic      Atomic             Coordinates (Angstroms)
 Number     Number       Type             X           Y           Z
 ---------------------------------------------------------------------
      1          6           0        0.690341    0.362895   -0.011858
      2          8           0        1.773159   -0.145020    0.017666
      3          6           0       -0.542234   -0.421293   -0.039829
      4          6           0       -1.773664    0.115570    0.006610
      5          1           0       -0.487241   -1.457442    0.046790
      6          1           0       -1.820308    1.205980    0.049864
      7          1           0       -2.644424   -0.424306    0.051835
      8          1           0        0.520040    1.492896   -0.019354
 ---------------------------------------------------------------------

 SCF Done:  E(RB2PLYPD3) =  -191.610745885     A.U. after   12 cycles
 E2(B2PLYPD3) =    -0.2466759133D+00 E(B2PLYPD3) =    -0.19185742179792D+03

 The electronic state is 1-A.
 Alpha  occ. eigenvalues --  -19.73043 -10.71913 -10.64949 -10.63723  -1.20637
 Alpha  occ. eigenvalues --   -0.92874  -0.75864  -0.66961  -0.57359  -0.56423
 Alpha  occ. eigenvalues --   -0.51355  -0.47503  -0.46523  -0.34431  -0.33990
 Alpha virt. eigenvalues --   -0.01837   0.05879   0.07326   0.08405   0.09829
 Alpha virt. eigenvalues --    0.12503   0.14005   0.15427   0.17812   0.19604
 Alpha virt. eigenvalues --    0.19910   0.21764   0.25522   0.26266   0.28914

 Mulliken charges:
               1
     1  C    0.154927
     2  O   -0.334879
     3  C   -0.037332
     4  C   -0.131235
     5  H    0.102873
     6  H    0.073064
     7  H    0.107717
     8  H    0.064865
 Sum of Mulliken charges =   0.00000

 Dipole moment (field-independent basis, Debye):
    X=             -3.3556    Y=              0.7591    Z=              0.0792  Tot=              3.4413
 Quadrupole moment (field-independent basis, Debye-Ang):
   XX=            -27.0564   YY=            -21.9814   ZZ=            -25.1429
   XY=              1.2706   XZ=             -0.3408   YZ=             -0.0678

 Normal termination of Gaussian 09 at Wed Aug 26 10:03:52 2020.
