 Gaussian 09, Revision D.01,
 Gaussian 09:  ES64L-G09RevD.01 24-Apr-2013

 --------------------
 #p B2PLYPD3/Def2QZVP
 --------------------

 --------
 acrolein
 --------
 Symbolic Z-matrix:
 Charge =  0 Multiplicity = 1

                         Standard orientation:
 ---------------------------------------------------------------------
 Center     Atomic      Atomic             Coordinates (Angstroms)
 Number     Number       Type             X           Y           Z
 ---------------------------------------------------------------------
      1          6           0       -0.666598    0.350202   -0.005174
      2          8           0       -1.788029   -0.115665    0.009902
      3          6           0        0.564014   -0.456738   -0.014771
      4          6           0        1.754399    0.153750    0.001038
      5          1           0        0.438143   -1.559696   -0.023547
      6          1           0        1.826586    1.222577   -0.020878
      7          1           0        2.664389   -0.422416    0.078308
      8          1           0       -0.535779    1.401568    0.000340
 ---------------------------------------------------------------------

 SCF Done:  E(RB2PLYPD3) =  -191.615078797     A.U. after   12 cycles
 E2(B2PLYPD3) =    -0.2470820988D+00 E(B2PLYPD3) =    -0.19186216089569D+03

 The electronic state is 1-A.
 Alpha  occ. eigenvalues --  -19.72580 -10.71048 -10.65417 -10.64749  -1.19154
 Alpha  occ. eigenvalues --   -0.92915  -0.75587  -0.67404  -0.56875  -0.56201
 Alpha  occ. eigenvalues --   -0.50355  -0.47095  -0.46489  -0.34560  -0.33821
 Alpha virt. eigenvalues --   -0.01756   0.05766   0.07125   0.08090   0.09725
 Alpha virt. eigenvalues --    0.12619   0.14084   0.15341   0.17384   0.19794
 Alpha virt. eigenvalues --    0.19999   0.21672   0.25383   0.26553   0.28840

 Mulliken charges:
               1
     1  C    0.153560
     2  O   -0.354083
     3  C   -0.038756
     4  C   -0.134965
     5  H    0.104247
     6  H    0.088220
     7  H    0.102956
     8  H    0.078821
 Sum of Mulliken charges =   0.00000

 Dipole moment (field-independent basis, Debye):
    X=              3.5099    Y=              0.8020    Z=              0.0016  Tot=              3.6003
 Quadrupole moment (field-independent basis, Debye-Ang):
   XX=            -27.6259   YY=            -21.5567   ZZ=            -25.2110
   XY=             -0.9253   XZ=              0.2006   YZ=             -0.0427

 Normal termination of Gaussian 09 at Wed Aug 26 08:38:41 2020.
