 Gaussian 09, Revision D.01,
 Gaussian 09:  ES64L-G09RevD.01 24-Apr-2013

 --------------------
 #p B2PLYPD3/Def2QZVP
 --------------------

 --------
 acrolein
 --------
 Symbolic Z-matrix:
 Charge =  0 Multiplicity = 1

                         Standard orientation:
 ---------------------------------------------------------------------
 Center     Atomic      Atomic             Coordinates (Angstroms)
 Number     Number       Type             X           Y           Z
 ---------------------------------------------------------------------
      1          6           0        0.663680    0.344784    0.031355
      2          8           0        1.803586   -0.114884   -0.013624
      3          6           0       -0.571202   -0.450354   -0.019110
      4          6           0       -1.759173    0.136909   -0.006786
      5          1           0       -0.469914   -1.562279    0.032703
      6          1           0       -1.868687    1.254996   -0.075652
      7          1           0       -2.610968   -0.401122    0.080939
      8          1           0        0.521054    1.439444    0.038246
 ---------------------------------------------------------------------

 SCF Done:  E(RB2PLYPD3) =  -191.609344628     A.U. after   13 cycles
 E2(B2PLYPD3) =    -0.2480385245D+00 E(B2PLYPD3) =    -0.19185738315258D+03

 The electronic state is 1-A.
 Alpha  occ. eigenvalues --  -19.72840 -10.71840 -10.65197 -10.64847  -1.18338
 Alpha  occ. eigenvalues --   -0.93332  -0.76081  -0.66486  -0.57121  -0.56103
 Alpha  occ. eigenvalues --   -0.50501  -0.46534  -0.46151  -0.34838  -0.33895
 Alpha virt. eigenvalues --   -0.02055   0.05728   0.06980   0.08011   0.09653
 Alpha virt. eigenvalues --    0.12529   0.14214   0.15260   0.17193   0.19575
 Alpha virt. eigenvalues --    0.20005   0.22055   0.25181   0.26447   0.28729

 Mulliken charges:
               1
     1  C    0.158614
     2  O   -0.356402
     3  C   -0.038082
     4  C   -0.124791
     5  H    0.098989
     6  H    0.081465
     7  H    0.106646
     8  H    0.073561
 Sum of Mulliken charges =   0.00000

 Dipole moment (field-independent basis, Debye):
    X=             -3.6311    Y=              0.7503    Z=              0.1175  Tot=              3.7096
 Quadrupole moment (field-independent basis, Debye-Ang):
   XX=            -27.6070   YY=            -21.6632   ZZ=            -25.2214
   XY=              0.9125   XZ=             -0.0496   YZ=             -0.1834

 Normal termination of Gaussian 09 at Wed Aug 26 08:51:54 2020.
