 Gaussian 09, Revision D.01,
 Gaussian 09:  ES64L-G09RevD.01 24-Apr-2013

 --------------------
 #p B2PLYPD3/Def2QZVP
 --------------------

 --------
 acrolein
 --------
 Symbolic Z-matrix:
 Charge =  0 Multiplicity = 1

                         Standard orientation:
 ---------------------------------------------------------------------
 Center     Atomic      Atomic             Coordinates (Angstroms)
 Number     Number       Type             X           Y           Z
 ---------------------------------------------------------------------
      1          6           0        0.674379    0.346594    0.006767
      2          8           0        1.790264   -0.124711   -0.015885
      3          6           0       -0.543225   -0.433309    0.008423
      4          6           0       -1.749179    0.136734   -0.025844
      5          1           0       -0.458703   -1.530402    0.064558
      6          1           0       -1.831290    1.227255   -0.026481
      7          1           0       -2.786486   -0.458310    0.041017
      8          1           0        0.462513    1.459033    0.111909
 ---------------------------------------------------------------------

 SCF Done:  E(RB2PLYPD3) =  -191.605973711     A.U. after   13 cycles
 E2(B2PLYPD3) =    -0.2485001276D+00 E(B2PLYPD3) =    -0.19185447383908D+03

 The electronic state is 1-A.
 Alpha  occ. eigenvalues --  -19.73044 -10.71931 -10.66894 -10.64510  -1.19632
 Alpha  occ. eigenvalues --   -0.93103  -0.75062  -0.66372  -0.56374  -0.55559
 Alpha  occ. eigenvalues --   -0.50159  -0.46997  -0.45732  -0.34781  -0.34004
 Alpha virt. eigenvalues --   -0.02077   0.05367   0.06751   0.08356   0.09669
 Alpha virt. eigenvalues --    0.12248   0.13852   0.15319   0.17532   0.19497
 Alpha virt. eigenvalues --    0.19983   0.20917   0.25445   0.26405   0.28672

 Mulliken charges:
               1
     1  C    0.156302
     2  O   -0.345364
     3  C   -0.027756
     4  C   -0.126423
     5  H    0.102816
     6  H    0.081923
     7  H    0.097444
     8  H    0.061058
 Sum of Mulliken charges =   0.00000

 Dipole moment (field-independent basis, Debye):
    X=             -3.5278    Y=              0.7279    Z=              0.1471  Tot=              3.6051
 Quadrupole moment (field-independent basis, Debye-Ang):
   XX=            -27.3089   YY=            -21.9978   ZZ=            -25.3535
   XY=              0.9187   XZ=             -0.0248   YZ=             -0.0961

 Normal termination of Gaussian 09 at Wed Aug 26 08:39:01 2020.
