 Gaussian 09, Revision D.01,
 Gaussian 09:  ES64L-G09RevD.01 24-Apr-2013

 --------------------
 #p B2PLYPD3/Def2QZVP
 --------------------

 --------
 acrolein
 --------
 Symbolic Z-matrix:
 Charge =  0 Multiplicity = 1

                         Standard orientation:
 ---------------------------------------------------------------------
 Center     Atomic      Atomic             Coordinates (Angstroms)
 Number     Number       Type             X           Y           Z
 ---------------------------------------------------------------------
      1          6           0       -0.678000    0.350750    0.027250
      2          8           0       -1.774839   -0.127983   -0.018615
      3          6           0        0.547859   -0.436163    0.014324
      4          6           0        1.757413    0.135941   -0.015179
      5          1           0        0.449759   -1.518983    0.011801
      6          1           0        1.821138    1.225133   -0.009735
      7          1           0        2.689974   -0.436771   -0.010608
      8          1           0       -0.525798    1.451320   -0.000910
 ---------------------------------------------------------------------

 SCF Done:  E(RB2PLYPD3) =  -191.616586532     A.U. after   12 cycles
 E2(B2PLYPD3) =    -0.2467380174D+00 E(B2PLYPD3) =    -0.19186332454918D+03

 The electronic state is 1-A.
 Alpha  occ. eigenvalues --  -19.72772 -10.71371 -10.65696 -10.64254  -1.20360
 Alpha  occ. eigenvalues --   -0.92848  -0.75376  -0.66788  -0.56587  -0.56414
 Alpha  occ. eigenvalues --   -0.50703  -0.47296  -0.46571  -0.34583  -0.33858
 Alpha virt. eigenvalues --   -0.01719   0.05760   0.07129   0.08428   0.09776
 Alpha virt. eigenvalues --    0.12482   0.14024   0.15410   0.17549   0.19729
 Alpha virt. eigenvalues --    0.19922   0.21476   0.25629   0.26371   0.28907

 Mulliken charges:
               1
     1  C    0.155256
     2  O   -0.340600
     3  C   -0.036623
     4  C   -0.133146
     5  H    0.102703
     6  H    0.081704
     7  H    0.104942
     8  H    0.065762
 Sum of Mulliken charges =   0.00000

 Dipole moment (field-independent basis, Debye):
    X=              3.4100    Y=              0.7480    Z=              0.0646  Tot=              3.4917
 Quadrupole moment (field-independent basis, Debye-Ang):
   XX=            -27.2393   YY=            -21.8402   ZZ=            -25.2182
   XY=             -1.0656   XZ=             -0.1193   YZ=             -0.0176

 Normal termination of Gaussian 09 at Wed Aug 26 19:37:23 2020.
