 Gaussian 09, Revision D.01,
 Gaussian 09:  ES64L-G09RevD.01 24-Apr-2013

 --------------------
 #p B2PLYPD3/Def2QZVP
 --------------------

 --------
 acrolein
 --------
 Symbolic Z-matrix:
 Charge =  0 Multiplicity = 1

                         Standard orientation:
 ---------------------------------------------------------------------
 Center     Atomic      Atomic             Coordinates (Angstroms)
 Number     Number       Type             X           Y           Z
 ---------------------------------------------------------------------
      1          6           0        0.667502    0.348272    0.013097
      2          8           0        1.791249   -0.113537   -0.022458
      3          6           0       -0.571629   -0.460860    0.027908
      4          6           0       -1.747813    0.141380   -0.009800
      5          1           0       -0.454137   -1.567935    0.023198
      6          1           0       -1.865611    1.272266   -0.039834
      7          1           0       -2.628129   -0.395736   -0.061353
      8          1           0        0.529521    1.426951    0.070422
 ---------------------------------------------------------------------

 SCF Done:  E(RB2PLYPD3) =  -191.612445588     A.U. after   12 cycles
 E2(B2PLYPD3) =    -0.2471786386D+00 E(B2PLYPD3) =    -0.19185962422615D+03

 The electronic state is 1-A.
 Alpha  occ. eigenvalues --  -19.72731 -10.71488 -10.65296 -10.64723  -1.19155
 Alpha  occ. eigenvalues --   -0.93084  -0.75511  -0.66695  -0.56855  -0.56111
 Alpha  occ. eigenvalues --   -0.50661  -0.46565  -0.46339  -0.34891  -0.33803
 Alpha virt. eigenvalues --   -0.01550   0.05711   0.07058   0.08074   0.09636
 Alpha virt. eigenvalues --    0.12517   0.14209   0.15333   0.17275   0.19523
 Alpha virt. eigenvalues --    0.19996   0.21837   0.25430   0.26456   0.28661

 Mulliken charges:
               1
     1  C    0.158888
     2  O   -0.351037
     3  C   -0.045670
     4  C   -0.124308
     5  H    0.102789
     6  H    0.079501
     7  H    0.103594
     8  H    0.076242
 Sum of Mulliken charges =   0.00000

 Dipole moment (field-independent basis, Debye):
    X=             -3.5091    Y=              0.7511    Z=              0.0233  Tot=              3.5887
 Quadrupole moment (field-independent basis, Debye-Ang):
   XX=            -27.5670   YY=            -21.5986   ZZ=            -25.2207
   XY=              0.8675   XZ=              0.3266   YZ=             -0.0064

 Normal termination of Gaussian 09 at Wed Aug 26 18:40:59 2020.
