 Gaussian 09, Revision D.01,
 Gaussian 09:  ES64L-G09RevD.01 24-Apr-2013

 --------------------
 #p B2PLYPD3/Def2QZVP
 --------------------

 --------
 acrolein
 --------
 Symbolic Z-matrix:
 Charge =  0 Multiplicity = 1

                         Standard orientation:
 ---------------------------------------------------------------------
 Center     Atomic      Atomic             Coordinates (Angstroms)
 Number     Number       Type             X           Y           Z
 ---------------------------------------------------------------------
      1          6           0       -0.691105    0.363499    0.033755
      2          8           0       -1.741793   -0.164476   -0.047931
      3          6           0        0.550034   -0.405353    0.012445
      4          6           0        1.747011    0.137463   -0.050277
      5          1           0        0.499939   -1.411965    0.226483
      6          1           0        1.748009    1.062869   -0.048876
      7          1           0        2.658605   -0.421381    0.021495
      8          1           0       -0.607846    1.512630    0.208803
 ---------------------------------------------------------------------

 SCF Done:  E(RB2PLYPD3) =  -191.586435276     A.U. after   12 cycles
 E2(B2PLYPD3) =    -0.2447060637D+00 E(B2PLYPD3) =    -0.19183114133928D+03

 The electronic state is 1-A.
 Alpha  occ. eigenvalues --  -19.72935 -10.71726 -10.62972 -10.62720  -1.21791
 Alpha  occ. eigenvalues --   -0.93972  -0.75920  -0.67626  -0.58288  -0.56723
 Alpha  occ. eigenvalues --   -0.51369  -0.48877  -0.46784  -0.34780  -0.33715
 Alpha virt. eigenvalues --   -0.01076   0.06114   0.07050   0.08607   0.09975
 Alpha virt. eigenvalues --    0.12678   0.14058   0.15186   0.17921   0.19645
 Alpha virt. eigenvalues --    0.20591   0.21958   0.25328   0.26763   0.29177

 Mulliken charges:
               1
     1  C    0.139313
     2  O   -0.320930
     3  C   -0.025840
     4  C   -0.145100
     5  H    0.101062
     6  H    0.089908
     7  H    0.100899
     8  H    0.060686
 Sum of Mulliken charges =   0.00000

 Dipole moment (field-independent basis, Debye):
    X=              3.1422    Y=              0.8096    Z=              0.3762  Tot=              3.2665
 Quadrupole moment (field-independent basis, Debye-Ang):
   XX=            -26.8187   YY=            -22.0878   ZZ=            -24.8030
   XY=             -1.3950   XZ=             -0.0996   YZ=             -0.2919

 Normal termination of Gaussian 09 at Wed Aug 26 14:10:22 2020.
