 Gaussian 09, Revision D.01,
 Gaussian 09:  ES64L-G09RevD.01 24-Apr-2013

 --------------------
 #p B2PLYPD3/Def2QZVP
 --------------------

 --------
 acrolein
 --------
 Symbolic Z-matrix:
 Charge =  0 Multiplicity = 1

                         Standard orientation:
 ---------------------------------------------------------------------
 Center     Atomic      Atomic             Coordinates (Angstroms)
 Number     Number       Type             X           Y           Z
 ---------------------------------------------------------------------
      1          6           0       -0.662871    0.320987    0.026254
      2          8           0       -1.789367   -0.092035   -0.036934
      3          6           0        0.556391   -0.470929    0.020282
      4          6           0        1.752388    0.150853   -0.039408
      5          1           0        0.411101   -1.596977    0.101244
      6          1           0        1.891838    1.300025   -0.045674
      7          1           0        2.700947   -0.391288    0.024010
      8          1           0       -0.564396    1.419057    0.173127
 ---------------------------------------------------------------------

 SCF Done:  E(RB2PLYPD3) =  -191.607610757     A.U. after   13 cycles
 E2(B2PLYPD3) =    -0.2478331864D+00 E(B2PLYPD3) =    -0.19185544394323D+03

 The electronic state is 1-A.
 Alpha  occ. eigenvalues --  -19.72466 -10.71131 -10.66894 -10.65492  -1.19900
 Alpha  occ. eigenvalues --   -0.92569  -0.75182  -0.65956  -0.56620  -0.55651
 Alpha  occ. eigenvalues --   -0.50385  -0.46899  -0.45965  -0.34621  -0.33488
 Alpha virt. eigenvalues --   -0.01956   0.05560   0.06690   0.08440   0.09554
 Alpha virt. eigenvalues --    0.12260   0.14223   0.15297   0.17210   0.19166
 Alpha virt. eigenvalues --    0.20038   0.21362   0.25077   0.26499   0.28778

 Mulliken charges:
               1
     1  C    0.157791
     2  O   -0.343562
     3  C   -0.042470
     4  C   -0.121031
     5  H    0.103240
     6  H    0.084915
     7  H    0.101214
     8  H    0.059903
 Sum of Mulliken charges =   0.00000

 Dipole moment (field-independent basis, Debye):
    X=              3.5562    Y=              0.6307    Z=              0.2382  Tot=              3.6195
 Quadrupole moment (field-independent basis, Debye-Ang):
   XX=            -27.3240   YY=            -21.7621   ZZ=            -25.3746
   XY=             -0.6050   XZ=             -0.1653   YZ=             -0.1597

 Normal termination of Gaussian 09 at Wed Aug 26 08:49:04 2020.
