 Gaussian 09, Revision D.01,
 Gaussian 09:  ES64L-G09RevD.01 24-Apr-2013

 --------------------
 #p B2PLYPD3/Def2QZVP
 --------------------

 --------
 acrolein
 --------
 Symbolic Z-matrix:
 Charge =  0 Multiplicity = 1

                         Standard orientation:
 ---------------------------------------------------------------------
 Center     Atomic      Atomic             Coordinates (Angstroms)
 Number     Number       Type             X           Y           Z
 ---------------------------------------------------------------------
      1          6           0        0.643599    0.349225    0.062026
      2          8           0        1.796071   -0.095918   -0.063797
      3          6           0       -0.607611   -0.484430    0.104738
      4          6           0       -1.728486    0.143337   -0.053059
      5          1           0       -0.367347   -1.639907   -0.056292
      6          1           0       -1.930066    1.320552   -0.055938
      7          1           0       -2.496306   -0.355707   -0.134787
      8          1           0        0.580139    1.393613    0.075165
 ---------------------------------------------------------------------

 SCF Done:  E(RB2PLYPD3) =  -191.566080416     A.U. after   13 cycles
 E2(B2PLYPD3) =    -0.2484401265D+00 E(B2PLYPD3) =    -0.19181452054262D+03

 The electronic state is 1-A.
 Alpha  occ. eigenvalues --  -19.72458 -10.71245 -10.65604 -10.64339  -1.17410
 Alpha  occ. eigenvalues --   -0.94030  -0.76419  -0.66722  -0.57647  -0.55575
 Alpha  occ. eigenvalues --   -0.50150  -0.45728  -0.45326  -0.35469  -0.33519
 Alpha virt. eigenvalues --   -0.01330   0.05404   0.06821   0.07415   0.09483
 Alpha virt. eigenvalues --    0.12359   0.13678   0.15433   0.17006   0.19169
 Alpha virt. eigenvalues --    0.19985   0.22584   0.24538   0.26571   0.28472

 Mulliken charges:
               1
     1  C    0.161212
     2  O   -0.370225
     3  C   -0.056250
     4  C   -0.120793
     5  H    0.106421
     6  H    0.082370
     7  H    0.113336
     8  H    0.083929
 Sum of Mulliken charges =   0.00000

 Dipole moment (field-independent basis, Debye):
    X=             -3.6431    Y=              0.7859    Z=              0.0283  Tot=              3.7271
 Quadrupole moment (field-independent basis, Debye-Ang):
   XX=            -27.8883   YY=            -21.2905   ZZ=            -25.1689
   XY=              0.5382   XZ=              0.7732   YZ=              0.1856

 Normal termination of Gaussian 09 at Wed Aug 26 14:55:28 2020.
