 Gaussian 09, Revision D.01,
 Gaussian 09:  ES64L-G09RevD.01 24-Apr-2013

 --------------------
 #p B2PLYPD3/Def2QZVP
 --------------------

 --------
 acrolein
 --------
 Symbolic Z-matrix:
 Charge =  0 Multiplicity = 1

                         Standard orientation:
 ---------------------------------------------------------------------
 Center     Atomic      Atomic             Coordinates (Angstroms)
 Number     Number       Type             X           Y           Z
 ---------------------------------------------------------------------
      1          6           0        0.666866    0.337304    0.032018
      2          8           0        1.819941   -0.098480   -0.039521
      3          6           0       -0.551187   -0.470776   -0.011029
      4          6           0       -1.780050    0.158052    0.002860
      5          1           0       -0.418396   -1.552555    0.203025
      6          1           0       -1.852616    1.244716   -0.082603
      7          1           0       -2.713785   -0.474054   -0.112502
      8          1           0        0.411495    1.422257    0.165155
 ---------------------------------------------------------------------

 SCF Done:  E(RB2PLYPD3) =  -191.603439634     A.U. after   13 cycles
 E2(B2PLYPD3) =    -0.2506518717D+00 E(B2PLYPD3) =    -0.19185409150532D+03

 The electronic state is 1-A.
 Alpha  occ. eigenvalues --  -19.73057 -10.72108 -10.67281 -10.65606  -1.18118
 Alpha  occ. eigenvalues --   -0.92351  -0.75562  -0.66454  -0.55695  -0.55545
 Alpha  occ. eigenvalues --   -0.49772  -0.47550  -0.45576  -0.34430  -0.33603
 Alpha virt. eigenvalues --   -0.02906   0.05500   0.06634   0.07586   0.09607
 Alpha virt. eigenvalues --    0.12436   0.13388   0.14875   0.17722   0.19433
 Alpha virt. eigenvalues --    0.19875   0.21356   0.24175   0.27044   0.28599

 Mulliken charges:
               1
     1  C    0.156428
     2  O   -0.357911
     3  C   -0.033833
     4  C   -0.130674
     5  H    0.107510
     6  H    0.089542
     7  H    0.102874
     8  H    0.066064
 Sum of Mulliken charges =   0.00000

 Dipole moment (field-independent basis, Debye):
    X=             -3.7138    Y=              0.6860    Z=              0.1994  Tot=              3.7819
 Quadrupole moment (field-independent basis, Debye-Ang):
   XX=            -27.8128   YY=            -21.8102   ZZ=            -25.4663
   XY=              0.6224   XZ=              0.4963   YZ=             -0.2823

 Normal termination of Gaussian 09 at Wed Aug 26 10:39:55 2020.
