 Gaussian 09, Revision D.01,
 Gaussian 09:  ES64L-G09RevD.01 24-Apr-2013

 --------------------
 #p B2PLYPD3/Def2QZVP
 --------------------

 --------
 acrolein
 --------
 Symbolic Z-matrix:
 Charge =  0 Multiplicity = 1

                         Standard orientation:
 ---------------------------------------------------------------------
 Center     Atomic      Atomic             Coordinates (Angstroms)
 Number     Number       Type             X           Y           Z
 ---------------------------------------------------------------------
      1          6           0        0.663040    0.334853    0.051358
      2          8           0        1.812882   -0.084911   -0.054353
      3          6           0       -0.584258   -0.475167    0.104169
      4          6           0       -1.768221    0.127472   -0.054591
      5          1           0       -0.388850   -1.525111   -0.069720
      6          1           0       -1.967377    1.393487    0.002295
      7          1           0       -2.544262   -0.409393   -0.130777
      8          1           0        0.534072    1.297356    0.027413
 ---------------------------------------------------------------------

 SCF Done:  E(RB2PLYPD3) =  -191.563838103     A.U. after   13 cycles
 E2(B2PLYPD3) =    -0.2482636070D+00 E(B2PLYPD3) =    -0.19181210171010D+03

 The electronic state is 1-A.
 Alpha  occ. eigenvalues --  -19.72559 -10.70270 -10.66311 -10.64920  -1.18250
 Alpha  occ. eigenvalues --   -0.93181  -0.77193  -0.68419  -0.57673  -0.55143
 Alpha  occ. eigenvalues --   -0.50863  -0.46107  -0.45616  -0.34888  -0.33777
 Alpha virt. eigenvalues --   -0.02061   0.05020   0.07289   0.07599   0.09468
 Alpha virt. eigenvalues --    0.12158   0.13648   0.15415   0.17941   0.18579
 Alpha virt. eigenvalues --    0.19930   0.22306   0.23956   0.27431   0.28339

 Mulliken charges:
               1
     1  C    0.173189
     2  O   -0.366874
     3  C   -0.060471
     4  C   -0.128244
     5  H    0.107424
     6  H    0.079111
     7  H    0.113995
     8  H    0.081871
 Sum of Mulliken charges =   0.00000

 Dipole moment (field-independent basis, Debye):
    X=             -3.6532    Y=              0.7325    Z=              0.0071  Tot=              3.7259
 Quadrupole moment (field-independent basis, Debye-Ang):
   XX=            -27.8011   YY=            -21.5100   ZZ=            -25.1854
   XY=              0.6141   XZ=              0.6558   YZ=              0.2692

 Normal termination of Gaussian 09 at Wed Aug 26 11:29:58 2020.
