 Gaussian 09, Revision D.01,
 Gaussian 09:  ES64L-G09RevD.01 24-Apr-2013

 --------------------
 #p B2PLYPD3/Def2QZVP
 --------------------

 --------
 acrolein
 --------
 Symbolic Z-matrix:
 Charge =  0 Multiplicity = 1

                         Standard orientation:
 ---------------------------------------------------------------------
 Center     Atomic      Atomic             Coordinates (Angstroms)
 Number     Number       Type             X           Y           Z
 ---------------------------------------------------------------------
      1          6           0        0.657833   -0.305674    0.028152
      2          8           0        1.798556    0.074599   -0.029667
      3          6           0       -0.561319    0.465371    0.000312
      4          6           0       -1.749760   -0.168404   -0.041020
      5          1           0       -0.388113    1.643605    0.157186
      6          1           0       -1.853607   -1.322297    0.076418
      7          1           0       -2.731994    0.446009   -0.015104
      8          1           0        0.504748   -1.311868    0.094178
 ---------------------------------------------------------------------

 SCF Done:  E(RB2PLYPD3) =  -191.590884289     A.U. after   13 cycles
 E2(B2PLYPD3) =    -0.2483498704D+00 E(B2PLYPD3) =    -0.19183923415912D+03

 The electronic state is 1-A.
 Alpha  occ. eigenvalues --  -19.72388 -10.70082 -10.67775 -10.65833  -1.19645
 Alpha  occ. eigenvalues --   -0.92876  -0.75528  -0.66585  -0.56342  -0.55204
 Alpha  occ. eigenvalues --   -0.50083  -0.47034  -0.45184  -0.34717  -0.33603
 Alpha virt. eigenvalues --   -0.02188   0.05307   0.06187   0.08605   0.09511
 Alpha virt. eigenvalues --    0.12342   0.13811   0.15173   0.17224   0.19286
 Alpha virt. eigenvalues --    0.19966   0.21064   0.24936   0.27166   0.28618

 Mulliken charges:
               1
     1  C    0.163358
     2  O   -0.351196
     3  C   -0.028922
     4  C   -0.126658
     5  H    0.092935
     6  H    0.090126
     7  H    0.101044
     8  H    0.059312
 Sum of Mulliken charges =   0.00000

 Dipole moment (field-independent basis, Debye):
    X=             -3.6195    Y=             -0.6702    Z=              0.3236  Tot=              3.6952
 Quadrupole moment (field-independent basis, Debye-Ang):
   XX=            -27.6601   YY=            -21.7246   ZZ=            -25.3653
   XY=             -0.5135   XZ=             -0.0119   YZ=              0.1007

 Normal termination of Gaussian 09 at Wed Aug 26 12:51:11 2020.
