 Gaussian 09, Revision D.01,
 Gaussian 09:  ES64L-G09RevD.01 24-Apr-2013

 --------------------
 #p B2PLYPD3/Def2QZVP
 --------------------

 --------
 acrolein
 --------
 Symbolic Z-matrix:
 Charge =  0 Multiplicity = 1

                         Standard orientation:
 ---------------------------------------------------------------------
 Center     Atomic      Atomic             Coordinates (Angstroms)
 Number     Number       Type             X           Y           Z
 ---------------------------------------------------------------------
      1          6           0        0.662885    0.343376    0.012279
      2          8           0        1.798587   -0.109567   -0.021523
      3          6           0       -0.564521   -0.460082    0.009565
      4          6           0       -1.750289    0.149332   -0.007857
      5          1           0       -0.444787   -1.572617    0.063593
      6          1           0       -1.841976    1.259654   -0.065168
      7          1           0       -2.680291   -0.427300   -0.023650
      8          1           0        0.489907    1.421045    0.113490
 ---------------------------------------------------------------------

 SCF Done:  E(RB2PLYPD3) =  -191.613685950     A.U. after   12 cycles
 E2(B2PLYPD3) =    -0.2481935505D+00 E(B2PLYPD3) =    -0.19186187950074D+03

 The electronic state is 1-A.
 Alpha  occ. eigenvalues --  -19.72793 -10.71610 -10.66093 -10.64933  -1.18705
 Alpha  occ. eigenvalues --   -0.93032  -0.75376  -0.66583  -0.56286  -0.56015
 Alpha  occ. eigenvalues --   -0.50298  -0.46615  -0.46190  -0.34760  -0.33860
 Alpha virt. eigenvalues --   -0.01929   0.05630   0.06865   0.08006   0.09660
 Alpha virt. eigenvalues --    0.12518   0.13980   0.15247   0.17302   0.19458
 Alpha virt. eigenvalues --    0.20088   0.21475   0.25188   0.26687   0.28685

 Mulliken charges:
               1
     1  C    0.157638
     2  O   -0.355488
     3  C   -0.037897
     4  C   -0.128213
     5  H    0.103251
     6  H    0.085121
     7  H    0.102658
     8  H    0.072930
 Sum of Mulliken charges =   0.00000

 Dipole moment (field-independent basis, Debye):
    X=             -3.5937    Y=              0.7347    Z=              0.0842  Tot=              3.6690
 Quadrupole moment (field-independent basis, Debye-Ang):
   XX=            -27.6720   YY=            -21.6481   ZZ=            -25.3113
   XY=              0.8127   XZ=              0.2444   YZ=             -0.1127

 Normal termination of Gaussian 09 at Wed Aug 26 09:31:07 2020.
