 Gaussian 09, Revision D.01,
 Gaussian 09:  ES64L-G09RevD.01 24-Apr-2013

 --------------------
 #p B2PLYPD3/Def2QZVP
 --------------------

 --------
 acrolein
 --------
 Symbolic Z-matrix:
 Charge =  0 Multiplicity = 1

                         Standard orientation:
 ---------------------------------------------------------------------
 Center     Atomic      Atomic             Coordinates (Angstroms)
 Number     Number       Type             X           Y           Z
 ---------------------------------------------------------------------
      1          6           0        0.679425    0.356066   -0.009353
      2          8           0        1.785162   -0.130564    0.012000
      3          6           0       -0.549412   -0.449466   -0.023484
      4          6           0       -1.752135    0.138053    0.003337
      5          1           0       -0.495617   -1.484389    0.027873
      6          1           0       -1.849562    1.209736    0.036499
      7          1           0       -2.702124   -0.424972    0.032036
      8          1           0        0.498736    1.476217   -0.015409
 ---------------------------------------------------------------------

 SCF Done:  E(RB2PLYPD3) =  -191.614159754     A.U. after   13 cycles
 E2(B2PLYPD3) =    -0.2472470009D+00 E(B2PLYPD3) =    -0.19186140675443D+03

 The electronic state is 1-A.
 Alpha  occ. eigenvalues --  -19.72931 -10.71965 -10.65601 -10.63957  -1.19767
 Alpha  occ. eigenvalues --   -0.92918  -0.75133  -0.67331  -0.56541  -0.56297
 Alpha  occ. eigenvalues --   -0.50502  -0.47177  -0.46856  -0.34553  -0.33906
 Alpha virt. eigenvalues --   -0.01749   0.05712   0.07238   0.08116   0.09704
 Alpha virt. eigenvalues --    0.12518   0.13952   0.15386   0.17817   0.19807
 Alpha virt. eigenvalues --    0.19968   0.21279   0.25491   0.26266   0.28713

 Mulliken charges:
               1
     1  C    0.153247
     2  O   -0.343580
     3  C   -0.040200
     4  C   -0.128233
     5  H    0.109691
     6  H    0.081292
     7  H    0.096954
     8  H    0.070829
 Sum of Mulliken charges =   0.00000

 Dipole moment (field-independent basis, Debye):
    X=             -3.4629    Y=              0.7642    Z=              0.0443  Tot=              3.5465
 Quadrupole moment (field-independent basis, Debye-Ang):
   XX=            -27.3081   YY=            -21.8082   ZZ=            -25.2254
   XY=              0.9997   XZ=             -0.2204   YZ=             -0.0322

 Normal termination of Gaussian 09 at Wed Aug 26 09:22:50 2020.
