 Gaussian 09, Revision D.01,
 Gaussian 09:  ES64L-G09RevD.01 24-Apr-2013

 --------------------
 #p B2PLYPD3/Def2QZVP
 --------------------

 --------
 acrolein
 --------
 Symbolic Z-matrix:
 Charge =  0 Multiplicity = 1

                         Standard orientation:
 ---------------------------------------------------------------------
 Center     Atomic      Atomic             Coordinates (Angstroms)
 Number     Number       Type             X           Y           Z
 ---------------------------------------------------------------------
      1          6           0        0.661936    0.337848    0.018915
      2          8           0        1.791886   -0.107973   -0.016888
      3          6           0       -0.561548   -0.450463    0.000211
      4          6           0       -1.752799    0.151155   -0.020000
      5          1           0       -0.451273   -1.567763    0.063998
      6          1           0       -1.826488    1.226739   -0.008515
      7          1           0       -2.650692   -0.416860    0.022933
      8          1           0        0.507831    1.390421    0.061937
 ---------------------------------------------------------------------

 SCF Done:  E(RB2PLYPD3) =  -191.614423183     A.U. after   12 cycles
 E2(B2PLYPD3) =    -0.2471603325D+00 E(B2PLYPD3) =    -0.19186158351523D+03

 The electronic state is 1-A.
 Alpha  occ. eigenvalues --  -19.72616 -10.71003 -10.65408 -10.64758  -1.19097
 Alpha  occ. eigenvalues --   -0.93272  -0.76056  -0.67101  -0.56786  -0.56506
 Alpha  occ. eigenvalues --   -0.50480  -0.46977  -0.46425  -0.34697  -0.33875
 Alpha virt. eigenvalues --   -0.01946   0.05777   0.06988   0.08322   0.09713
 Alpha virt. eigenvalues --    0.12706   0.14139   0.15281   0.17334   0.19780
 Alpha virt. eigenvalues --    0.20025   0.21757   0.25397   0.26623   0.28777

 Mulliken charges:
               1
     1  C    0.153047
     2  O   -0.353886
     3  C   -0.029717
     4  C   -0.132630
     5  H    0.098342
     6  H    0.086493
     7  H    0.105096
     8  H    0.073254
 Sum of Mulliken charges =   0.00000

 Dipole moment (field-independent basis, Debye):
    X=             -3.5877    Y=              0.7540    Z=              0.1521  Tot=              3.6693
 Quadrupole moment (field-independent basis, Debye-Ang):
   XX=            -27.5518   YY=            -21.6707   ZZ=            -25.1766
   XY=              0.8628   XZ=              0.0022   YZ=             -0.0934

 Normal termination of Gaussian 09 at Wed Aug 26 12:08:40 2020.
