 Gaussian 09, Revision D.01,
 Gaussian 09:  ES64L-G09RevD.01 24-Apr-2013

 --------------------
 #p B2PLYPD3/Def2QZVP
 --------------------

 --------
 acrolein
 --------
 Symbolic Z-matrix:
 Charge =  0 Multiplicity = 1

                         Standard orientation:
 ---------------------------------------------------------------------
 Center     Atomic      Atomic             Coordinates (Angstroms)
 Number     Number       Type             X           Y           Z
 ---------------------------------------------------------------------
      1          6           0       -0.669036    0.339503   -0.014684
      2          8           0       -1.796929   -0.114765    0.007477
      3          6           0        0.571943   -0.459780   -0.005723
      4          6           0        1.751955    0.154122   -0.005942
      5          1           0        0.456965   -1.551287    0.018776
      6          1           0        1.837943    1.218408    0.031035
      7          1           0        2.667516   -0.414244    0.028281
      8          1           0       -0.516160    1.462170    0.020183
 ---------------------------------------------------------------------

 SCF Done:  E(RB2PLYPD3) =  -191.615694801     A.U. after   12 cycles
 E2(B2PLYPD3) =    -0.2475584969D+00 E(B2PLYPD3) =    -0.19186325329830D+03

 The electronic state is 1-A.
 Alpha  occ. eigenvalues --  -19.72874 -10.71937 -10.65325 -10.64743  -1.19180
 Alpha  occ. eigenvalues --   -0.93124  -0.75342  -0.66590  -0.56434  -0.56414
 Alpha  occ. eigenvalues --   -0.50365  -0.47150  -0.46557  -0.34826  -0.33729
 Alpha virt. eigenvalues --   -0.01769   0.05778   0.06990   0.08108   0.09721
 Alpha virt. eigenvalues --    0.12597   0.13994   0.15309   0.17253   0.19923
 Alpha virt. eigenvalues --    0.19984   0.21631   0.25368   0.26366   0.28623

 Mulliken charges:
               1
     1  C    0.156915
     2  O   -0.349139
     3  C   -0.036714
     4  C   -0.128558
     5  H    0.104038
     6  H    0.089009
     7  H    0.101087
     8  H    0.063361
 Sum of Mulliken charges =   0.00000

 Dipole moment (field-independent basis, Debye):
    X=              3.5365    Y=              0.7068    Z=              0.0415  Tot=              3.6067
 Quadrupole moment (field-independent basis, Debye-Ang):
   XX=            -27.5289   YY=            -21.7237   ZZ=            -25.2500
   XY=             -0.8325   XZ=              0.1625   YZ=              0.0052

 Normal termination of Gaussian 09 at Wed Aug 26 16:34:45 2020.
