 Gaussian 09, Revision D.01,
 Gaussian 09:  ES64L-G09RevD.01 24-Apr-2013

 --------------------
 #p B2PLYPD3/Def2QZVP
 --------------------

 --------
 acrolein
 --------
 Symbolic Z-matrix:
 Charge =  0 Multiplicity = 1

                         Standard orientation:
 ---------------------------------------------------------------------
 Center     Atomic      Atomic             Coordinates (Angstroms)
 Number     Number       Type             X           Y           Z
 ---------------------------------------------------------------------
      1          6           0        0.668165    0.335554   -0.012578
      2          8           0        1.785412   -0.101177    0.006250
      3          6           0       -0.574306   -0.472654   -0.002739
      4          6           0       -1.741615    0.152897   -0.016185
      5          1           0       -0.478309   -1.540034    0.007077
      6          1           0       -1.845632    1.245418    0.021132
      7          1           0       -2.578571   -0.363290    0.074918
      8          1           0        0.505745    1.372538    0.035890
 ---------------------------------------------------------------------

 SCF Done:  E(RB2PLYPD3) =  -191.608510504     A.U. after   12 cycles
 E2(B2PLYPD3) =    -0.2455783087D+00 E(B2PLYPD3) =    -0.19185408881311D+03

 The electronic state is 1-A.
 Alpha  occ. eigenvalues --  -19.72588 -10.70748 -10.64306 -10.64122  -1.20000
 Alpha  occ. eigenvalues --   -0.93370  -0.76129  -0.67817  -0.57257  -0.56772
 Alpha  occ. eigenvalues --   -0.51043  -0.47505  -0.46921  -0.34839  -0.33688
 Alpha virt. eigenvalues --   -0.01337   0.05893   0.07396   0.08227   0.09699
 Alpha virt. eigenvalues --    0.12913   0.14408   0.15346   0.17566   0.19750
 Alpha virt. eigenvalues --    0.20009   0.22140   0.25382   0.26752   0.28429

 Mulliken charges:
               1
     1  C    0.154719
     2  O   -0.345628
     3  C   -0.043094
     4  C   -0.127297
     5  H    0.103160
     6  H    0.080791
     7  H    0.100494
     8  H    0.076854
 Sum of Mulliken charges =   0.00000

 Dipole moment (field-independent basis, Debye):
    X=             -3.4525    Y=              0.7184    Z=              0.0746  Tot=              3.5272
 Quadrupole moment (field-independent basis, Debye-Ang):
   XX=            -27.5193   YY=            -21.5804   ZZ=            -24.9976
   XY=              0.7574   XZ=             -0.2505   YZ=             -0.0056

 Normal termination of Gaussian 09 at Wed Aug 26 08:47:31 2020.
