 Gaussian 09, Revision D.01,
 Gaussian 09:  ES64L-G09RevD.01 24-Apr-2013

 --------------------
 #p B2PLYPD3/Def2QZVP
 --------------------

 --------
 acrolein
 --------
 Symbolic Z-matrix:
 Charge =  0 Multiplicity = 1

                         Standard orientation:
 ---------------------------------------------------------------------
 Center     Atomic      Atomic             Coordinates (Angstroms)
 Number     Number       Type             X           Y           Z
 ---------------------------------------------------------------------
      1          6           0       -0.678463    0.370922   -0.014452
      2          8           0       -1.787227   -0.136919    0.026704
      3          6           0        0.556638   -0.450385   -0.059996
      4          6           0        1.768542    0.121300    0.008945
      5          1           0        0.412076   -1.487192    0.040602
      6          1           0        1.853282    1.257301    0.033003
      7          1           0        2.666908   -0.438445    0.127290
      8          1           0       -0.514751    1.512666   -0.021503
 ---------------------------------------------------------------------

 SCF Done:  E(RB2PLYPD3) =  -191.610384680     A.U. after   12 cycles
 E2(B2PLYPD3) =    -0.2484312777D+00 E(B2PLYPD3) =    -0.19185881595768D+03

 The electronic state is 1-A.
 Alpha  occ. eigenvalues --  -19.73069 -10.72402 -10.65982 -10.64367  -1.19138
 Alpha  occ. eigenvalues --   -0.92544  -0.75037  -0.66602  -0.56685  -0.55533
 Alpha  occ. eigenvalues --   -0.50636  -0.46740  -0.46422  -0.34496  -0.33913
 Alpha virt. eigenvalues --   -0.01901   0.05608   0.07200   0.07777   0.09751
 Alpha virt. eigenvalues --    0.12235   0.13686   0.15338   0.17633   0.19416
 Alpha virt. eigenvalues --    0.19838   0.21623   0.24997   0.26455   0.28869

 Mulliken charges:
               1
     1  C    0.162863
     2  O   -0.349898
     3  C   -0.050923
     4  C   -0.123879
     5  H    0.111896
     6  H    0.076960
     7  H    0.104421
     8  H    0.068561
 Sum of Mulliken charges =   0.00000

 Dipole moment (field-independent basis, Debye):
    X=              3.4438    Y=              0.7799    Z=              0.1010  Tot=              3.5325
 Quadrupole moment (field-independent basis, Debye-Ang):
   XX=            -27.4792   YY=            -21.7568   ZZ=            -25.3417
   XY=             -1.0273   XZ=              0.5451   YZ=             -0.1333

 Normal termination of Gaussian 09 at Wed Aug 26 09:07:53 2020.
