 Gaussian 09, Revision D.01,
 Gaussian 09:  ES64L-G09RevD.01 24-Apr-2013

 --------------------
 #p B2PLYPD3/Def2QZVP
 --------------------

 --------
 acrolein
 --------
 Symbolic Z-matrix:
 Charge =  0 Multiplicity = 1

                         Standard orientation:
 ---------------------------------------------------------------------
 Center     Atomic      Atomic             Coordinates (Angstroms)
 Number     Number       Type             X           Y           Z
 ---------------------------------------------------------------------
      1          6           0       -0.673908    0.347099    0.001513
      2          8           0       -1.791174   -0.113518   -0.013230
      3          6           0        0.559564   -0.461821    0.025413
      4          6           0        1.763158    0.142323   -0.021026
      5          1           0        0.440639   -1.534351    0.035196
      6          1           0        1.866091    1.238691    0.041537
      7          1           0        2.630188   -0.413397   -0.045521
      8          1           0       -0.500407    1.451592    0.039227
 ---------------------------------------------------------------------

 SCF Done:  E(RB2PLYPD3) =  -191.614297183     A.U. after   12 cycles
 E2(B2PLYPD3) =    -0.2473043234D+00 E(B2PLYPD3) =    -0.19186160150651D+03

 The electronic state is 1-A.
 Alpha  occ. eigenvalues --  -19.72829 -10.71671 -10.65367 -10.64642  -1.19628
 Alpha  occ. eigenvalues --   -0.92707  -0.75698  -0.66791  -0.56819  -0.56146
 Alpha  occ. eigenvalues --   -0.50668  -0.47427  -0.46706  -0.34461  -0.33762
 Alpha virt. eigenvalues --   -0.01857   0.05785   0.07194   0.08119   0.09717
 Alpha virt. eigenvalues --    0.12608   0.14032   0.15363   0.17415   0.19744
 Alpha virt. eigenvalues --    0.19986   0.21827   0.25231   0.26456   0.28550

 Mulliken charges:
               1
     1  C    0.159394
     2  O   -0.346565
     3  C   -0.044096
     4  C   -0.131302
     5  H    0.105686
     6  H    0.085475
     7  H    0.104190
     8  H    0.067217
 Sum of Mulliken charges =   0.00000

 Dipole moment (field-independent basis, Debye):
    X=              3.4968    Y=              0.7100    Z=              0.0693  Tot=              3.5689
 Quadrupole moment (field-independent basis, Debye-Ang):
   XX=            -27.4419   YY=            -21.6972   ZZ=            -25.2449
   XY=             -0.8128   XZ=             -0.0997   YZ=              0.0591

 Normal termination of Gaussian 09 at Wed Aug 26 19:58:05 2020.
