 Gaussian 09, Revision D.01,
 Gaussian 09:  ES64L-G09RevD.01 24-Apr-2013

 --------------------
 #p B2PLYPD3/Def2QZVP
 --------------------

 --------
 acrolein
 --------
 Symbolic Z-matrix:
 Charge =  0 Multiplicity = 1

                         Standard orientation:
 ---------------------------------------------------------------------
 Center     Atomic      Atomic             Coordinates (Angstroms)
 Number     Number       Type             X           Y           Z
 ---------------------------------------------------------------------
      1          6           0       -0.677824    0.350026    0.017414
      2          8           0       -1.777759   -0.122803   -0.020570
      3          6           0        0.557433   -0.448417    0.022495
      4          6           0        1.749387    0.152865   -0.023181
      5          1           0        0.454694   -1.537573    0.050396
      6          1           0        1.795941    1.193205    0.041083
      7          1           0        2.730682   -0.410040   -0.050519
      8          1           0       -0.533213    1.409986    0.023233
 ---------------------------------------------------------------------

 SCF Done:  E(RB2PLYPD3) =  -191.613735033     A.U. after   12 cycles
 E2(B2PLYPD3) =    -0.2463643396D+00 E(B2PLYPD3) =    -0.19186009937230D+03

 The electronic state is 1-A.
 Alpha  occ. eigenvalues --  -19.72673 -10.71040 -10.65451 -10.64383  -1.20264
 Alpha  occ. eigenvalues --   -0.92868  -0.75228  -0.67549  -0.57124  -0.55966
 Alpha  occ. eigenvalues --   -0.50569  -0.47278  -0.46710  -0.34569  -0.33851
 Alpha virt. eigenvalues --   -0.01512   0.05755   0.07179   0.08267   0.09739
 Alpha virt. eigenvalues --    0.12579   0.14160   0.15373   0.17515   0.19901
 Alpha virt. eigenvalues --    0.20120   0.21330   0.25460   0.26466   0.28887

 Mulliken charges:
               1
     1  C    0.150329
     2  O   -0.342873
     3  C   -0.036147
     4  C   -0.135988
     5  H    0.103893
     6  H    0.086197
     7  H    0.099082
     8  H    0.075506
 Sum of Mulliken charges =   0.00000

 Dipole moment (field-independent basis, Debye):
    X=              3.3860    Y=              0.8055    Z=              0.1105  Tot=              3.4822
 Quadrupole moment (field-independent basis, Debye-Ang):
   XX=            -27.3459   YY=            -21.7500   ZZ=            -25.1756
   XY=             -1.0017   XZ=             -0.1338   YZ=              0.0266

 Normal termination of Gaussian 09 at Wed Aug 26 16:26:26 2020.
