 Gaussian 09, Revision D.01,
 Gaussian 09:  ES64L-G09RevD.01 24-Apr-2013

 --------------------
 #p B2PLYPD3/Def2QZVP
 --------------------

 --------
 acrolein
 --------
 Symbolic Z-matrix:
 Charge =  0 Multiplicity = 1

                         Standard orientation:
 ---------------------------------------------------------------------
 Center     Atomic      Atomic             Coordinates (Angstroms)
 Number     Number       Type             X           Y           Z
 ---------------------------------------------------------------------
      1          6           0        0.698044    0.364016   -0.039400
      2          8           0        1.744291   -0.161810    0.070497
      3          6           0       -0.538968   -0.405377   -0.112683
      4          6           0       -1.746136    0.130139    0.070408
      5          1           0       -0.564404   -1.424444   -0.109271
      6          1           0       -1.712171    1.168355   -0.038838
      7          1           0       -2.670047   -0.457963    0.192109
      8          1           0        0.514654    1.475863   -0.117922
 ---------------------------------------------------------------------

 SCF Done:  E(RB2PLYPD3) =  -191.601871947     A.U. after   13 cycles
 E2(B2PLYPD3) =    -0.2458323478D+00 E(B2PLYPD3) =    -0.19184770429494D+03

 The electronic state is 1-A.
 Alpha  occ. eigenvalues --  -19.73027 -10.71661 -10.64670 -10.62795  -1.21973
 Alpha  occ. eigenvalues --   -0.93322  -0.75100  -0.67594  -0.57527  -0.56422
 Alpha  occ. eigenvalues --   -0.51381  -0.48381  -0.46124  -0.34405  -0.34004
 Alpha virt. eigenvalues --   -0.01237   0.05958   0.07205   0.08500   0.09926
 Alpha virt. eigenvalues --    0.12497   0.13942   0.15283   0.18038   0.19691
 Alpha virt. eigenvalues --    0.20284   0.21195   0.24865   0.26231   0.28757

 Mulliken charges:
               1
     1  C    0.147730
     2  O   -0.320769
     3  C   -0.030230
     4  C   -0.135302
     5  H    0.096247
     6  H    0.074507
     7  H    0.103302
     8  H    0.064515
 Sum of Mulliken charges =   0.00000

 Dipole moment (field-independent basis, Debye):
    X=             -3.1579    Y=              0.7649    Z=             -0.1787  Tot=              3.2541
 Quadrupole moment (field-independent basis, Debye-Ang):
   XX=            -26.9568   YY=            -22.0886   ZZ=            -25.0129
   XY=              1.6495   XZ=             -0.7151   YZ=             -0.1528

 Normal termination of Gaussian 09 at Wed Aug 26 14:09:55 2020.
