 Gaussian 09, Revision D.01,
 Gaussian 09:  ES64L-G09RevD.01 24-Apr-2013

 --------------------
 #p B2PLYPD3/Def2QZVP
 --------------------

 --------
 acrolein
 --------
 Symbolic Z-matrix:
 Charge =  0 Multiplicity = 1

                         Standard orientation:
 ---------------------------------------------------------------------
 Center     Atomic      Atomic             Coordinates (Angstroms)
 Number     Number       Type             X           Y           Z
 ---------------------------------------------------------------------
      1          6           0       -0.655222    0.323952    0.025044
      2          8           0       -1.783942   -0.088412   -0.015262
      3          6           0        0.558052   -0.479046    0.006446
      4          6           0        1.761932    0.147834   -0.018203
      5          1           0        0.466965   -1.561207    0.094868
      6          1           0        1.836618    1.376080    0.132415
      7          1           0        2.590675   -0.366397   -0.109006
      8          1           0       -0.611302    1.302379   -0.075895
 ---------------------------------------------------------------------

 SCF Done:  E(RB2PLYPD3) =  -191.580334112     A.U. after   14 cycles
 E2(B2PLYPD3) =    -0.2469726681D+00 E(B2PLYPD3) =    -0.19182730677991D+03

 The electronic state is 1-A.
 Alpha  occ. eigenvalues --  -19.71959 -10.69575 -10.66413 -10.64927  -1.19689
 Alpha  occ. eigenvalues --   -0.92755  -0.76388  -0.68302  -0.57186  -0.56401
 Alpha  occ. eigenvalues --   -0.50435  -0.47040  -0.46121  -0.34242  -0.33550
 Alpha virt. eigenvalues --   -0.02004   0.05310   0.07168   0.08233   0.09557
 Alpha virt. eigenvalues --    0.12197   0.14156   0.15478   0.17614   0.18933
 Alpha virt. eigenvalues --    0.20218   0.21881   0.24980   0.26432   0.29436

 Mulliken charges:
               1
     1  C    0.164073
     2  O   -0.351994
     3  C   -0.050055
     4  C   -0.131544
     5  H    0.103344
     6  H    0.081215
     7  H    0.112299
     8  H    0.072661
 Sum of Mulliken charges =   0.00000

 Dipole moment (field-independent basis, Debye):
    X=              3.5702    Y=              0.6692    Z=              0.1292  Tot=              3.6347
 Quadrupole moment (field-independent basis, Debye-Ang):
   XX=            -27.6178   YY=            -21.4676   ZZ=            -25.1483
   XY=             -1.0173   XZ=             -0.0657   YZ=              0.0672

 Normal termination of Gaussian 09 at Wed Aug 26 11:31:58 2020.
