 Gaussian 09, Revision D.01,
 Gaussian 09:  ES64L-G09RevD.01 24-Apr-2013

 --------------------
 #p B2PLYPD3/Def2QZVP
 --------------------

 --------
 acrolein
 --------
 Symbolic Z-matrix:
 Charge =  0 Multiplicity = 1

                         Standard orientation:
 ---------------------------------------------------------------------
 Center     Atomic      Atomic             Coordinates (Angstroms)
 Number     Number       Type             X           Y           Z
 ---------------------------------------------------------------------
      1          6           0       -0.684197    0.314429    0.091220
      2          8           0       -1.806700   -0.083787   -0.065999
      3          6           0        0.554378   -0.448098    0.032415
      4          6           0        1.781566    0.120095   -0.066714
      5          1           0        0.338734   -1.546172    0.046978
      6          1           0        1.982843    1.267531   -0.131023
      7          1           0        2.659630   -0.404057    0.125339
      8          1           0       -0.438091    1.434436    0.145175
 ---------------------------------------------------------------------

 SCF Done:  E(RB2PLYPD3) =  -191.599773795     A.U. after   13 cycles
 E2(B2PLYPD3) =    -0.2486354525D+00 E(B2PLYPD3) =    -0.19184840924733D+03

 The electronic state is 1-A.
 Alpha  occ. eigenvalues --  -19.73307 -10.71793 -10.66704 -10.65380  -1.20321
 Alpha  occ. eigenvalues --   -0.92522  -0.76365  -0.65540  -0.57436  -0.54973
 Alpha  occ. eigenvalues --   -0.51199  -0.47168  -0.46032  -0.34591  -0.33531
 Alpha virt. eigenvalues --   -0.02776   0.05557   0.07148   0.08428   0.09695
 Alpha virt. eigenvalues --    0.12337   0.13901   0.15519   0.16971   0.19060
 Alpha virt. eigenvalues --    0.19636   0.22092   0.24935   0.26500   0.28246

 Mulliken charges:
               1
     1  C    0.171822
     2  O   -0.337985
     3  C   -0.032752
     4  C   -0.119686
     5  H    0.094269
     6  H    0.076880
     7  H    0.107127
     8  H    0.040325
 Sum of Mulliken charges =   0.00000

 Dipole moment (field-independent basis, Debye):
    X=              3.5248    Y=              0.5450    Z=              0.3216  Tot=              3.5812
 Quadrupole moment (field-independent basis, Debye-Ang):
   XX=            -27.0358   YY=            -22.2767   ZZ=            -25.3254
   XY=             -0.1986   XZ=             -0.1829   YZ=             -0.2615

 Normal termination of Gaussian 09 at Wed Aug 26 11:24:10 2020.
