 Gaussian 09, Revision D.01,
 Gaussian 09:  ES64L-G09RevD.01 24-Apr-2013

 --------------------
 #p B2PLYPD3/Def2QZVP
 --------------------

 --------
 acrolein
 --------
 Symbolic Z-matrix:
 Charge =  0 Multiplicity = 1

                         Standard orientation:
 ---------------------------------------------------------------------
 Center     Atomic      Atomic             Coordinates (Angstroms)
 Number     Number       Type             X           Y           Z
 ---------------------------------------------------------------------
      1          6           0        0.676208    0.352565   -0.002175
      2          8           0        1.781351   -0.127726    0.014381
      3          6           0       -0.557916   -0.444088   -0.029999
      4          6           0       -1.754450    0.148048    0.005657
      5          1           0       -0.430238   -1.527507   -0.004437
      6          1           0       -1.796003    1.178213    0.011216
      7          1           0       -2.713333   -0.434485    0.073811
      8          1           0        0.505716    1.466434   -0.036541
 ---------------------------------------------------------------------

 SCF Done:  E(RB2PLYPD3) =  -191.613468343     A.U. after   12 cycles
 E2(B2PLYPD3) =    -0.2471364069D+00 E(B2PLYPD3) =    -0.19186060474964D+03

 The electronic state is 1-A.
 Alpha  occ. eigenvalues --  -19.72918 -10.71757 -10.65357 -10.64406  -1.19944
 Alpha  occ. eigenvalues --   -0.93003  -0.75262  -0.66917  -0.56732  -0.56114
 Alpha  occ. eigenvalues --   -0.50478  -0.47087  -0.46990  -0.34646  -0.33834
 Alpha virt. eigenvalues --   -0.01701   0.05769   0.07067   0.08212   0.09823
 Alpha virt. eigenvalues --    0.12542   0.13860   0.15361   0.17375   0.19853
 Alpha virt. eigenvalues --    0.20161   0.21461   0.25487   0.26347   0.28830

 Mulliken charges:
               1
     1  C    0.154120
     2  O   -0.344231
     3  C   -0.033202
     4  C   -0.135792
     5  H    0.104211
     6  H    0.088751
     7  H    0.102176
     8  H    0.063968
 Sum of Mulliken charges =   0.00000

 Dipole moment (field-independent basis, Debye):
    X=             -3.4207    Y=              0.7590    Z=              0.0266  Tot=              3.5040
 Quadrupole moment (field-independent basis, Debye-Ang):
   XX=            -27.3616   YY=            -21.8300   ZZ=            -25.2254
   XY=              0.9618   XZ=             -0.2811   YZ=             -0.0535

 Normal termination of Gaussian 09 at Wed Aug 26 09:29:58 2020.
