 Gaussian 09, Revision D.01,
 Gaussian 09:  ES64L-G09RevD.01 24-Apr-2013

 --------------------
 #p B2PLYPD3/Def2QZVP
 --------------------

 --------
 acrolein
 --------
 Symbolic Z-matrix:
 Charge =  0 Multiplicity = 1

                         Standard orientation:
 ---------------------------------------------------------------------
 Center     Atomic      Atomic             Coordinates (Angstroms)
 Number     Number       Type             X           Y           Z
 ---------------------------------------------------------------------
      1          6           0       -0.673303    0.345898    0.011924
      2          8           0       -1.787745   -0.121127   -0.011771
      3          6           0        0.565636   -0.452582    0.030034
      4          6           0        1.758041    0.146116   -0.014623
      5          1           0        0.447991   -1.519504   -0.040336
      6          1           0        1.809268    1.222107    0.001379
      7          1           0        2.671041   -0.414524   -0.021444
      8          1           0       -0.528588    1.444351   -0.009445
 ---------------------------------------------------------------------

 SCF Done:  E(RB2PLYPD3) =  -191.616946735     A.U. after   12 cycles
 E2(B2PLYPD3) =    -0.2469561881D+00 E(B2PLYPD3) =    -0.19186390292294D+03

 The electronic state is 1-A.
 Alpha  occ. eigenvalues --  -19.72797 -10.71566 -10.65326 -10.64360  -1.19636
 Alpha  occ. eigenvalues --   -0.92993  -0.75403  -0.67058  -0.56674  -0.56413
 Alpha  occ. eigenvalues --   -0.50628  -0.47246  -0.46745  -0.34691  -0.33784
 Alpha virt. eigenvalues --   -0.01704   0.05814   0.07202   0.08155   0.09775
 Alpha virt. eigenvalues --    0.12587   0.13922   0.15330   0.17544   0.19854
 Alpha virt. eigenvalues --    0.19936   0.21609   0.25315   0.26497   0.28917

 Mulliken charges:
               1
     1  C    0.154458
     2  O   -0.346908
     3  C   -0.039399
     4  C   -0.131189
     5  H    0.105587
     6  H    0.085109
     7  H    0.104193
     8  H    0.068149
 Sum of Mulliken charges =   0.00000

 Dipole moment (field-independent basis, Debye):
    X=              3.4689    Y=              0.7451    Z=             -0.0200  Tot=              3.5481
 Quadrupole moment (field-independent basis, Debye-Ang):
   XX=            -27.4267   YY=            -21.7549   ZZ=            -25.1999
   XY=             -0.9799   XZ=             -0.1349   YZ=              0.0856

 Normal termination of Gaussian 09 at Wed Aug 26 15:27:52 2020.
