 Gaussian 09, Revision D.01,
 Gaussian 09:  ES64L-G09RevD.01 24-Apr-2013

 --------------------
 #p B2PLYPD3/Def2QZVP
 --------------------

 --------
 acrolein
 --------
 Symbolic Z-matrix:
 Charge =  0 Multiplicity = 1

                         Standard orientation:
 ---------------------------------------------------------------------
 Center     Atomic      Atomic             Coordinates (Angstroms)
 Number     Number       Type             X           Y           Z
 ---------------------------------------------------------------------
      1          6           0       -0.681163    0.345560   -0.003603
      2          8           0       -1.765222   -0.135209   -0.022411
      3          6           0        0.510849   -0.403098    0.066501
      4          6           0        1.787071    0.126050   -0.039718
      5          1           0        0.427065   -1.494804    0.029571
      6          1           0        1.742718    1.205934    0.131653
      7          1           0        2.824348   -0.449385   -0.123793
      8          1           0       -0.572900    1.408855    0.002778
 ---------------------------------------------------------------------

 SCF Done:  E(RB2PLYPD3) =  -191.594897616     A.U. after   13 cycles
 E2(B2PLYPD3) =    -0.2480919033D+00 E(B2PLYPD3) =    -0.19184298951905D+03

 The electronic state is 1-A.
 Alpha  occ. eigenvalues --  -19.72372 -10.70379 -10.67670 -10.64557  -1.20992
 Alpha  occ. eigenvalues --   -0.92424  -0.75718  -0.67177  -0.56703  -0.55813
 Alpha  occ. eigenvalues --   -0.50562  -0.47838  -0.45305  -0.34028  -0.33744
 Alpha virt. eigenvalues --   -0.02683   0.05336   0.07138   0.08753   0.09704
 Alpha virt. eigenvalues --    0.12091   0.14025   0.15216   0.17738   0.19619
 Alpha virt. eigenvalues --    0.20009   0.20615   0.24673   0.26499   0.29223

 Mulliken charges:
               1
     1  C    0.151234
     2  O   -0.338157
     3  C   -0.030232
     4  C   -0.136526
     5  H    0.099542
     6  H    0.079505
     7  H    0.112723
     8  H    0.061912
 Sum of Mulliken charges =   0.00000

 Dipole moment (field-independent basis, Debye):
    X=              3.5040    Y=              0.7571    Z=              0.0549  Tot=              3.5853
 Quadrupole moment (field-independent basis, Debye-Ang):
   XX=            -26.6789   YY=            -22.2024   ZZ=            -25.3029
   XY=             -1.4926   XZ=             -0.2756   YZ=              0.2501

 Normal termination of Gaussian 09 at Wed Aug 26 11:34:41 2020.
