 Gaussian 09, Revision D.01,
 Gaussian 09:  ES64L-G09RevD.01 24-Apr-2013

 --------------------
 #p B2PLYPD3/Def2QZVP
 --------------------

 --------
 acrolein
 --------
 Symbolic Z-matrix:
 Charge =  0 Multiplicity = 1

                         Standard orientation:
 ---------------------------------------------------------------------
 Center     Atomic      Atomic             Coordinates (Angstroms)
 Number     Number       Type             X           Y           Z
 ---------------------------------------------------------------------
      1          6           0        0.659183    0.330855   -0.009370
      2          8           0        1.795138   -0.100321    0.030298
      3          6           0       -0.551998   -0.459114   -0.056126
      4          6           0       -1.764663    0.155310    0.011301
      5          1           0       -0.415623   -1.601905   -0.010188
      6          1           0       -1.827950    1.241811    0.024720
      7          1           0       -2.676878   -0.426201    0.143900
      8          1           0        0.504220    1.426552   -0.075644
 ---------------------------------------------------------------------

 SCF Done:  E(RB2PLYPD3) =  -191.610494568     A.U. after   12 cycles
 E2(B2PLYPD3) =    -0.2486105033D+00 E(B2PLYPD3) =    -0.19185910507176D+03

 The electronic state is 1-A.
 Alpha  occ. eigenvalues --  -19.72600 -10.71367 -10.66478 -10.65536  -1.19060
 Alpha  occ. eigenvalues --   -0.92748  -0.75790  -0.66188  -0.56317  -0.56103
 Alpha  occ. eigenvalues --   -0.50060  -0.46823  -0.46512  -0.34368  -0.33736
 Alpha virt. eigenvalues --   -0.02404   0.05677   0.06744   0.08222   0.09681
 Alpha virt. eigenvalues --    0.12516   0.13912   0.15281   0.17114   0.19706
 Alpha virt. eigenvalues --    0.19953   0.21511   0.24955   0.26446   0.28771

 Mulliken charges:
               1
     1  C    0.157288
     2  O   -0.353274
     3  C   -0.032581
     4  C   -0.128991
     5  H    0.098967
     6  H    0.090604
     7  H    0.107201
     8  H    0.060785
 Sum of Mulliken charges =   0.00000

 Dipole moment (field-independent basis, Debye):
    X=             -3.6503    Y=              0.6847    Z=              0.0379  Tot=              3.7142
 Quadrupole moment (field-independent basis, Debye-Ang):
   XX=            -27.5301   YY=            -21.7277   ZZ=            -25.3632
   XY=              0.7515   XZ=             -0.5700   YZ=             -0.0962

 Normal termination of Gaussian 09 at Wed Aug 26 08:38:34 2020.
