 Gaussian 09, Revision D.01,
 Gaussian 09:  ES64L-G09RevD.01 24-Apr-2013

 --------------------
 #p B2PLYPD3/Def2QZVP
 --------------------

 --------
 acrolein
 --------
 Symbolic Z-matrix:
 Charge =  0 Multiplicity = 1

                         Standard orientation:
 ---------------------------------------------------------------------
 Center     Atomic      Atomic             Coordinates (Angstroms)
 Number     Number       Type             X           Y           Z
 ---------------------------------------------------------------------
      1          6           0        0.641882    0.325459    0.058371
      2          8           0        1.798186   -0.101039   -0.068737
      3          6           0       -0.591672   -0.457420    0.021948
      4          6           0       -1.750302    0.130271   -0.017513
      5          1           0       -0.469883   -1.526262    0.222515
      6          1           0       -1.833925    1.322769   -0.120275
      7          1           0       -2.413029   -0.376717   -0.171252
      8          1           0        0.531900    1.398656    0.242073
 ---------------------------------------------------------------------

 SCF Done:  E(RB2PLYPD3) =  -191.543514120     A.U. after   14 cycles
 E2(B2PLYPD3) =    -0.2479982303D+00 E(B2PLYPD3) =    -0.19179151235034D+03

 The electronic state is 1-A.
 Alpha  occ. eigenvalues --  -19.72784 -10.71585 -10.64388 -10.63705  -1.17769
 Alpha  occ. eigenvalues --   -0.95094  -0.78130  -0.66582  -0.59076  -0.55665
 Alpha  occ. eigenvalues --   -0.50624  -0.47498  -0.45216  -0.35466  -0.33684
 Alpha virt. eigenvalues --   -0.01982   0.05737   0.06972   0.07706   0.09569
 Alpha virt. eigenvalues --    0.12529   0.13887   0.14945   0.17442   0.19275
 Alpha virt. eigenvalues --    0.19823   0.22896   0.24619   0.26713   0.28420

 Mulliken charges:
               1
     1  C    0.148593
     2  O   -0.361160
     3  C   -0.019117
     4  C   -0.186652
     5  H    0.098450
     6  H    0.081707
     7  H    0.162051
     8  H    0.076127
 Sum of Mulliken charges =   0.00000

 Dipole moment (field-independent basis, Debye):
    X=             -3.6016    Y=              0.6514    Z=              0.2657  Tot=              3.6697
 Quadrupole moment (field-independent basis, Debye-Ang):
   XX=            -28.0937   YY=            -21.5522   ZZ=            -24.8911
   XY=              0.8870   XZ=              0.8142   YZ=             -0.2793

 Normal termination of Gaussian 09 at Wed Aug 26 14:09:28 2020.
