 Gaussian 09, Revision D.01,
 Gaussian 09:  ES64L-G09RevD.01 24-Apr-2013

 --------------------
 #p B2PLYPD3/Def2QZVP
 --------------------

 --------
 acrolein
 --------
 Symbolic Z-matrix:
 Charge =  0 Multiplicity = 1

                         Standard orientation:
 ---------------------------------------------------------------------
 Center     Atomic      Atomic             Coordinates (Angstroms)
 Number     Number       Type             X           Y           Z
 ---------------------------------------------------------------------
      1          6           0        0.663701    0.351335    0.041502
      2          8           0        1.791570   -0.135695   -0.023157
      3          6           0       -0.553383   -0.433660    0.001099
      4          6           0       -1.741096    0.142199   -0.026134
      5          1           0       -0.460146   -1.461797    0.028918
      6          1           0       -1.791356    1.140362   -0.062589
      7          1           0       -2.803114   -0.432225    0.079283
      8          1           0        0.506732    1.479972    0.040843
 ---------------------------------------------------------------------

 SCF Done:  E(RB2PLYPD3) =  -191.597226315     A.U. after   12 cycles
 E2(B2PLYPD3) =    -0.2482987587D+00 E(B2PLYPD3) =    -0.19184552507323D+03

 The electronic state is 1-A.
 Alpha  occ. eigenvalues --  -19.72969 -10.72142 -10.65811 -10.63754  -1.18494
 Alpha  occ. eigenvalues --   -0.93949  -0.75496  -0.67883  -0.57049  -0.55597
 Alpha  occ. eigenvalues --   -0.50092  -0.46819  -0.46402  -0.34934  -0.33975
 Alpha virt. eigenvalues --   -0.02171   0.05424   0.07054   0.08102   0.09738
 Alpha virt. eigenvalues --    0.12240   0.13912   0.15299   0.17665   0.19683
 Alpha virt. eigenvalues --    0.20319   0.21123   0.25500   0.26078   0.29081

 Mulliken charges:
               1
     1  C    0.147484
     2  O   -0.357116
     3  C   -0.022464
     4  C   -0.128866
     5  H    0.111380
     6  H    0.089730
     7  H    0.092691
     8  H    0.067161
 Sum of Mulliken charges =   0.00000

 Dipole moment (field-independent basis, Debye):
    X=             -3.5854    Y=              0.8051    Z=              0.1517  Tot=              3.6778
 Quadrupole moment (field-independent basis, Debye-Ang):
   XX=            -27.3961   YY=            -21.9326   ZZ=            -25.1771
   XY=              1.0009   XZ=             -0.0278   YZ=             -0.1430

 Normal termination of Gaussian 09 at Wed Aug 26 07:55:40 2020.
