 Gaussian 09, Revision D.01,
 Gaussian 09:  ES64L-G09RevD.01 24-Apr-2013

 --------------------
 #p B2PLYPD3/Def2QZVP
 --------------------

 --------
 acrolein
 --------
 Symbolic Z-matrix:
 Charge =  0 Multiplicity = 1

                         Standard orientation:
 ---------------------------------------------------------------------
 Center     Atomic      Atomic             Coordinates (Angstroms)
 Number     Number       Type             X           Y           Z
 ---------------------------------------------------------------------
      1          6           0       -0.676259    0.361609   -0.018036
      2          8           0       -1.782367   -0.135363    0.016280
      3          6           0        0.567915   -0.442714   -0.023073
      4          6           0        1.753806    0.138477   -0.000752
      5          1           0        0.442334   -1.502810    0.004749
      6          1           0        1.780915    1.190504    0.011270
      7          1           0        2.670782   -0.419420    0.087017
      8          1           0       -0.507868    1.470397    0.017895
 ---------------------------------------------------------------------

 SCF Done:  E(RB2PLYPD3) =  -191.615610245     A.U. after   12 cycles
 E2(B2PLYPD3) =    -0.2469524613D+00 E(B2PLYPD3) =    -0.19186256270640D+03

 The electronic state is 1-A.
 Alpha  occ. eigenvalues --  -19.73023 -10.71957 -10.64733 -10.63989  -1.19512
 Alpha  occ. eigenvalues --   -0.93265  -0.75289  -0.67158  -0.56793  -0.56362
 Alpha  occ. eigenvalues --   -0.50803  -0.47087  -0.46759  -0.34826  -0.33914
 Alpha virt. eigenvalues --   -0.01546   0.05840   0.07213   0.08078   0.09860
 Alpha virt. eigenvalues --    0.12615   0.13890   0.15372   0.17473   0.19836
 Alpha virt. eigenvalues --    0.20021   0.21700   0.25524   0.26493   0.28909

 Mulliken charges:
               1
     1  C    0.154686
     2  O   -0.347461
     3  C   -0.036346
     4  C   -0.132835
     5  H    0.105717
     6  H    0.082535
     7  H    0.103546
     8  H    0.070158
 Sum of Mulliken charges =   0.00000

 Dipole moment (field-independent basis, Debye):
    X=              3.3998    Y=              0.7921    Z=              0.0418  Tot=              3.4912
 Quadrupole moment (field-independent basis, Debye-Ang):
   XX=            -27.4617   YY=            -21.7764   ZZ=            -25.1487
   XY=             -1.0769   XZ=              0.3199   YZ=             -0.0444

 Normal termination of Gaussian 09 at Wed Aug 26 16:20:36 2020.
