 Gaussian 09, Revision D.01,
 Gaussian 09:  ES64L-G09RevD.01 24-Apr-2013

 --------------------
 #p B2PLYPD3/Def2QZVP
 --------------------

 --------
 acrolein
 --------
 Symbolic Z-matrix:
 Charge =  0 Multiplicity = 1

                         Standard orientation:
 ---------------------------------------------------------------------
 Center     Atomic      Atomic             Coordinates (Angstroms)
 Number     Number       Type             X           Y           Z
 ---------------------------------------------------------------------
      1          6           0        0.669408    0.359197    0.053252
      2          8           0        1.799514   -0.151634   -0.070963
      3          6           0       -0.563916   -0.393952    0.061333
      4          6           0       -1.754706    0.138567   -0.046251
      5          1           0       -0.553440   -1.406841    0.154928
      6          1           0       -1.692456    1.012207   -0.192390
      7          1           0       -2.700299   -0.433003   -0.064057
      8          1           0        0.445365    1.417840    0.259223
 ---------------------------------------------------------------------

 SCF Done:  E(RB2PLYPD3) =  -191.564060565     A.U. after   13 cycles
 E2(B2PLYPD3) =    -0.2480356324D+00 E(B2PLYPD3) =    -0.19181209619768D+03

 The electronic state is 1-A.
 Alpha  occ. eigenvalues --  -19.73365 -10.72297 -10.63128 -10.62855  -1.17717
 Alpha  occ. eigenvalues --   -0.95414  -0.77344  -0.69263  -0.58122  -0.56272
 Alpha  occ. eigenvalues --   -0.50989  -0.47720  -0.45656  -0.35035  -0.34373
 Alpha virt. eigenvalues --   -0.02431   0.05870   0.07096   0.08193   0.09827
 Alpha virt. eigenvalues --    0.12933   0.13767   0.15288   0.17710   0.19099
 Alpha virt. eigenvalues --    0.20825   0.21849   0.24892   0.26753   0.28955

 Mulliken charges:
               1
     1  C    0.128476
     2  O   -0.359194
     3  C    0.006257
     4  C   -0.172170
     5  H    0.097608
     6  H    0.107398
     7  H    0.109950
     8  H    0.081677
 Sum of Mulliken charges =   0.00000

 Dipole moment (field-independent basis, Debye):
    X=             -3.6402    Y=              0.8438    Z=              0.2204  Tot=              3.7432
 Quadrupole moment (field-independent basis, Debye-Ang):
   XX=            -27.3307   YY=            -22.0695   ZZ=            -24.8052
   XY=              1.4083   XZ=              0.6769   YZ=             -0.2027

 Normal termination of Gaussian 09 at Wed Aug 26 12:30:18 2020.
