 Gaussian 09, Revision D.01,
 Gaussian 09:  ES64L-G09RevD.01 24-Apr-2013

 --------------------
 #p B2PLYPD3/Def2QZVP
 --------------------

 --------
 acrolein
 --------
 Symbolic Z-matrix:
 Charge =  0 Multiplicity = 1

                         Standard orientation:
 ---------------------------------------------------------------------
 Center     Atomic      Atomic             Coordinates (Angstroms)
 Number     Number       Type             X           Y           Z
 ---------------------------------------------------------------------
      1          6           0       -0.688397    0.357661    0.030511
      2          8           0       -1.779167   -0.131986   -0.022060
      3          6           0        0.543435   -0.439457    0.007737
      4          6           0        1.767030    0.128479   -0.014716
      5          1           0        0.453771   -1.488805    0.033915
      6          1           0        1.867150    1.231248   -0.044072
      7          1           0        2.680208   -0.451843    0.010206
      8          1           0       -0.500201    1.485189    0.035245
 ---------------------------------------------------------------------

 SCF Done:  E(RB2PLYPD3) =  -191.614481355     A.U. after   13 cycles
 E2(B2PLYPD3) =    -0.2471296511D+00 E(B2PLYPD3) =    -0.19186161100606D+03

 The electronic state is 1-A.
 Alpha  occ. eigenvalues --  -19.73009 -10.71864 -10.65840 -10.64127  -1.20551
 Alpha  occ. eigenvalues --   -0.92470  -0.75229  -0.66731  -0.56538  -0.56182
 Alpha  occ. eigenvalues --   -0.50794  -0.47354  -0.46845  -0.34377  -0.33860
 Alpha virt. eigenvalues --   -0.01795   0.05729   0.07239   0.08296   0.09752
 Alpha virt. eigenvalues --    0.12429   0.13860   0.15445   0.17730   0.19565
 Alpha virt. eigenvalues --    0.19922   0.21500   0.25520   0.26333   0.28689

 Mulliken charges:
               1
     1  C    0.159614
     2  O   -0.336783
     3  C   -0.043116
     4  C   -0.133722
     5  H    0.106788
     6  H    0.080504
     7  H    0.103678
     8  H    0.063036
 Sum of Mulliken charges =   0.00000

 Dipole moment (field-independent basis, Debye):
    X=              3.3745    Y=              0.7283    Z=              0.0968  Tot=              3.4536
 Quadrupole moment (field-independent basis, Debye-Ang):
   XX=            -27.1973   YY=            -21.8728   ZZ=            -25.2770
   XY=             -1.0049   XZ=             -0.1235   YZ=             -0.0950

 Normal termination of Gaussian 09 at Wed Aug 26 10:01:31 2020.
