 Gaussian 09, Revision D.01,
 Gaussian 09:  ES64L-G09RevD.01 24-Apr-2013

 --------------------
 #p B2PLYPD3/Def2QZVP
 --------------------

 --------
 acrolein
 --------
 Symbolic Z-matrix:
 Charge =  0 Multiplicity = 1

                         Standard orientation:
 ---------------------------------------------------------------------
 Center     Atomic      Atomic             Coordinates (Angstroms)
 Number     Number       Type             X           Y           Z
 ---------------------------------------------------------------------
      1          6           0       -0.671483    0.347666   -0.015918
      2          8           0       -1.796789   -0.115871    0.018902
      3          6           0        0.564863   -0.452959   -0.019211
      4          6           0        1.756373    0.142156    0.003211
      5          1           0        0.439790   -1.558193   -0.035416
      6          1           0        1.852189    1.252131    0.002310
      7          1           0        2.684268   -0.425558    0.090076
      8          1           0       -0.500459    1.437415   -0.016675
 ---------------------------------------------------------------------

 SCF Done:  E(RB2PLYPD3) =  -191.614898985     A.U. after   12 cycles
 E2(B2PLYPD3) =    -0.2478644671D+00 E(B2PLYPD3) =    -0.19186276345230D+03

 The electronic state is 1-A.
 Alpha  occ. eigenvalues --  -19.72884 -10.71711 -10.65963 -10.64819  -1.19114
 Alpha  occ. eigenvalues --   -0.92892  -0.75309  -0.66568  -0.56412  -0.55985
 Alpha  occ. eigenvalues --   -0.50499  -0.46659  -0.46291  -0.34744  -0.33886
 Alpha virt. eigenvalues --   -0.01847   0.05647   0.06996   0.08101   0.09676
 Alpha virt. eigenvalues --    0.12457   0.13980   0.15321   0.17342   0.19611
 Alpha virt. eigenvalues --    0.19911   0.21544   0.25382   0.26528   0.28681

 Mulliken charges:
               1
     1  C    0.159456
     2  O   -0.351455
     3  C   -0.038942
     4  C   -0.128451
     5  H    0.102723
     6  H    0.082643
     7  H    0.103333
     8  H    0.070692
 Sum of Mulliken charges =   0.00000

 Dipole moment (field-independent basis, Debye):
    X=              3.5318    Y=              0.7506    Z=             -0.0171  Tot=              3.6107
 Quadrupole moment (field-independent basis, Debye-Ang):
   XX=            -27.5468   YY=            -21.7204   ZZ=            -25.3012
   XY=             -0.8532   XZ=              0.3047   YZ=             -0.0102

 Normal termination of Gaussian 09 at Wed Aug 26 15:37:48 2020.
