 Gaussian 09, Revision D.01,
 Gaussian 09:  ES64L-G09RevD.01 24-Apr-2013

 --------------------
 #p B2PLYPD3/Def2QZVP
 --------------------

 --------
 acrolein
 --------
 Symbolic Z-matrix:
 Charge =  0 Multiplicity = 1

                         Standard orientation:
 ---------------------------------------------------------------------
 Center     Atomic      Atomic             Coordinates (Angstroms)
 Number     Number       Type             X           Y           Z
 ---------------------------------------------------------------------
      1          6           0       -0.677417    0.346933    0.022745
      2          8           0       -1.792116   -0.115809   -0.022501
      3          6           0        0.566838   -0.458610    0.013183
      4          6           0        1.763335    0.141085   -0.008018
      5          1           0        0.430780   -1.573339    0.029200
      6          1           0        1.862964    1.263401   -0.066853
      7          1           0        2.643573   -0.414858   -0.016526
      8          1           0       -0.516922    1.474821    0.066731
 ---------------------------------------------------------------------

 SCF Done:  E(RB2PLYPD3) =  -191.612481314     A.U. after   12 cycles
 E2(B2PLYPD3) =    -0.2476939639D+00 E(B2PLYPD3) =    -0.19186017527754D+03

 The electronic state is 1-A.
 Alpha  occ. eigenvalues --  -19.72956 -10.71988 -10.65601 -10.65068  -1.19759
 Alpha  occ. eigenvalues --   -0.92582  -0.75286  -0.65910  -0.56742  -0.55777
 Alpha  occ. eigenvalues --   -0.50682  -0.46843  -0.46510  -0.34654  -0.33753
 Alpha virt. eigenvalues --   -0.01713   0.05729   0.06954   0.08120   0.09678
 Alpha virt. eigenvalues --    0.12444   0.13988   0.15364   0.17109   0.19533
 Alpha virt. eigenvalues --    0.20008   0.21784   0.25297   0.26394   0.28625

 Mulliken charges:
               1
     1  C    0.163033
     2  O   -0.342845
     3  C   -0.045409
     4  C   -0.128459
     5  H    0.101053
     6  H    0.083435
     7  H    0.106753
     8  H    0.062438
 Sum of Mulliken charges =   0.00000

 Dipole moment (field-independent basis, Debye):
    X=              3.4509    Y=              0.6983    Z=              0.0509  Tot=              3.5212
 Quadrupole moment (field-independent basis, Debye-Ang):
   XX=            -27.4481   YY=            -21.7262   ZZ=            -25.3392
   XY=             -0.8319   XZ=             -0.2445   YZ=             -0.0890

 Normal termination of Gaussian 09 at Wed Aug 26 11:59:01 2020.
