 Gaussian 09, Revision D.01,
 Gaussian 09:  ES64L-G09RevD.01 24-Apr-2013

 --------------------
 #p B2PLYPD3/Def2QZVP
 --------------------

 --------
 acrolein
 --------
 Symbolic Z-matrix:
 Charge =  0 Multiplicity = 1

                         Standard orientation:
 ---------------------------------------------------------------------
 Center     Atomic      Atomic             Coordinates (Angstroms)
 Number     Number       Type             X           Y           Z
 ---------------------------------------------------------------------
      1          6           0        0.671470    0.356403    0.045205
      2          8           0        1.804247   -0.145841   -0.059888
      3          6           0       -0.538877   -0.404308    0.064189
      4          6           0       -1.728960    0.122905   -0.077887
      5          1           0       -0.546361   -1.414258    0.110346
      6          1           0       -1.817793    1.141631   -0.102006
      7          1           0       -2.893490   -0.467898    0.047490
      8          1           0        0.401869    1.457253    0.234235
 ---------------------------------------------------------------------

 SCF Done:  E(RB2PLYPD3) =  -191.571724798     A.U. after   13 cycles
 E2(B2PLYPD3) =    -0.2502330465D+00 E(B2PLYPD3) =    -0.19182195784458D+03

 The electronic state is 1-A.
 Alpha  occ. eigenvalues --  -19.73512 -10.72770 -10.66738 -10.63216  -1.18041
 Alpha  occ. eigenvalues --   -0.94620  -0.75707  -0.68260  -0.56719  -0.55190
 Alpha  occ. eigenvalues --   -0.50115  -0.46129  -0.45149  -0.35224  -0.34411
 Alpha virt. eigenvalues --   -0.02679   0.04714   0.06818   0.08133   0.09536
 Alpha virt. eigenvalues --    0.12104   0.13666   0.15232   0.18092   0.18963
 Alpha virt. eigenvalues --    0.19903   0.20887   0.25191   0.25572   0.27805

 Mulliken charges:
               1
     1  C    0.143674
     2  O   -0.355878
     3  C   -0.008801
     4  C   -0.116396
     5  H    0.106568
     6  H    0.077632
     7  H    0.083461
     8  H    0.069740
 Sum of Mulliken charges =   0.00000

 Dipole moment (field-independent basis, Debye):
    X=             -3.6382    Y=              0.8343    Z=              0.3181  Tot=              3.7462
 Quadrupole moment (field-independent basis, Debye-Ang):
   XX=            -27.3780   YY=            -22.2514   ZZ=            -25.2103
   XY=              0.9847   XZ=              0.2150   YZ=             -0.1326

 Normal termination of Gaussian 09 at Wed Aug 26 12:39:32 2020.
