 Gaussian 09, Revision D.01,
 Gaussian 09:  ES64L-G09RevD.01 24-Apr-2013

 --------------------
 #p B2PLYPD3/Def2QZVP
 --------------------

 --------
 acrolein
 --------
 Symbolic Z-matrix:
 Charge =  0 Multiplicity = 1

                         Standard orientation:
 ---------------------------------------------------------------------
 Center     Atomic      Atomic             Coordinates (Angstroms)
 Number     Number       Type             X           Y           Z
 ---------------------------------------------------------------------
      1          6           0        0.685815    0.323376   -0.074161
      2          8           0        1.800405   -0.089607    0.074487
      3          6           0       -0.559985   -0.500885   -0.078804
      4          6           0       -1.771953    0.165265    0.055634
      5          1           0       -0.417909   -1.469017   -0.118578
      6          1           0       -1.823918    1.312117   -0.094568
      7          1           0       -2.758302   -0.422268    0.234638
      8          1           0        0.473631    1.369492   -0.033398
 ---------------------------------------------------------------------

 SCF Done:  E(RB2PLYPD3) =  -191.592065054     A.U. after   14 cycles
 E2(B2PLYPD3) =    -0.2484074427D+00 E(B2PLYPD3) =    -0.19184047249627D+03

 The electronic state is 1-A.
 Alpha  occ. eigenvalues --  -19.72758 -10.71061 -10.68030 -10.64450  -1.20203
 Alpha  occ. eigenvalues --   -0.91745  -0.74448  -0.68560  -0.55820  -0.55622
 Alpha  occ. eigenvalues --   -0.50719  -0.47640  -0.46710  -0.33765  -0.33572
 Alpha virt. eigenvalues --   -0.02088   0.05316   0.07235   0.07814   0.09593
 Alpha virt. eigenvalues --    0.12265   0.13578   0.15341   0.18273   0.19250
 Alpha virt. eigenvalues --    0.20080   0.20896   0.24027   0.26890   0.28867

 Mulliken charges:
               1
     1  C    0.162112
     2  O   -0.344530
     3  C   -0.050439
     4  C   -0.136152
     5  H    0.114251
     6  H    0.090857
     7  H    0.098488
     8  H    0.065414
 Sum of Mulliken charges =   0.00000

 Dipole moment (field-independent basis, Debye):
    X=             -3.4519    Y=              0.6439    Z=             -0.2380  Tot=              3.5195
 Quadrupole moment (field-independent basis, Debye-Ang):
   XX=            -27.5290   YY=            -21.7740   ZZ=            -25.3701
   XY=              0.6494   XZ=             -0.7560   YZ=             -0.1438

 Normal termination of Gaussian 09 at Wed Aug 26 10:38:34 2020.
