 Gaussian 09, Revision D.01,
 Gaussian 09:  ES64L-G09RevD.01 24-Apr-2013

 --------------------
 #p B2PLYPD3/Def2QZVP
 --------------------

 --------
 acrolein
 --------
 Symbolic Z-matrix:
 Charge =  0 Multiplicity = 1

                         Standard orientation:
 ---------------------------------------------------------------------
 Center     Atomic      Atomic             Coordinates (Angstroms)
 Number     Number       Type             X           Y           Z
 ---------------------------------------------------------------------
      1          6           0        0.669299    0.341485    0.015379
      2          8           0        1.803941   -0.106029   -0.019926
      3          6           0       -0.567555   -0.464222    0.004801
      4          6           0       -1.759032    0.150182   -0.022597
      5          1           0       -0.423721   -1.565752    0.075988
      6          1           0       -1.859804    1.231034   -0.026709
      7          1           0       -2.664064   -0.422841    0.022765
      8          1           0        0.459789    1.441124    0.101870
 ---------------------------------------------------------------------

 SCF Done:  E(RB2PLYPD3) =  -191.614208951     A.U. after   12 cycles
 E2(B2PLYPD3) =    -0.2482098352D+00 E(B2PLYPD3) =    -0.19186241878635D+03

 The electronic state is 1-A.
 Alpha  occ. eigenvalues --  -19.72994 -10.71937 -10.65699 -10.65031  -1.18963
 Alpha  occ. eigenvalues --   -0.92873  -0.75563  -0.66463  -0.56442  -0.56002
 Alpha  occ. eigenvalues --   -0.50485  -0.47074  -0.46314  -0.34666  -0.33808
 Alpha virt. eigenvalues --   -0.01994   0.05720   0.06936   0.08041   0.09699
 Alpha virt. eigenvalues --    0.12623   0.13893   0.15277   0.17224   0.19634
 Alpha virt. eigenvalues --    0.20067   0.21686   0.25138   0.26671   0.28477

 Mulliken charges:
               1
     1  C    0.160044
     2  O   -0.351982
     3  C   -0.036300
     4  C   -0.131573
     5  H    0.102971
     6  H    0.088549
     7  H    0.103148
     8  H    0.065142
 Sum of Mulliken charges =   0.00000

 Dipole moment (field-independent basis, Debye):
    X=             -3.5748    Y=              0.7023    Z=              0.1606  Tot=              3.6466
 Quadrupole moment (field-independent basis, Debye-Ang):
   XX=            -27.5933   YY=            -21.7349   ZZ=            -25.3105
   XY=              0.6451   XZ=              0.0428   YZ=             -0.1171

 Normal termination of Gaussian 09 at Wed Aug 26 15:48:40 2020.
