 Gaussian 09, Revision D.01,
 Gaussian 09:  ES64L-G09RevD.01 24-Apr-2013

 --------------------
 #p B2PLYPD3/Def2QZVP
 --------------------

 --------
 acrolein
 --------
 Symbolic Z-matrix:
 Charge =  0 Multiplicity = 1

                         Standard orientation:
 ---------------------------------------------------------------------
 Center     Atomic      Atomic             Coordinates (Angstroms)
 Number     Number       Type             X           Y           Z
 ---------------------------------------------------------------------
      1          6           0       -0.660602    0.341420    0.007667
      2          8           0       -1.791494   -0.106463   -0.022640
      3          6           0        0.562037   -0.454842    0.012558
      4          6           0        1.756100    0.131995   -0.026121
      5          1           0        0.409467   -1.542379    0.091326
      6          1           0        1.904251    1.258200   -0.032284
      7          1           0        2.575332   -0.415677    0.013636
      8          1           0       -0.502302    1.440124    0.143819
 ---------------------------------------------------------------------

 SCF Done:  E(RB2PLYPD3) =  -191.606624535     A.U. after   12 cycles
 E2(B2PLYPD3) =    -0.2474247923D+00 E(B2PLYPD3) =    -0.19185404932780D+03

 The electronic state is 1-A.
 Alpha  occ. eigenvalues --  -19.72760 -10.71522 -10.65124 -10.64653  -1.19085
 Alpha  occ. eigenvalues --   -0.93344  -0.76417  -0.66368  -0.57405  -0.55956
 Alpha  occ. eigenvalues --   -0.50737  -0.47136  -0.46272  -0.34821  -0.33721
 Alpha virt. eigenvalues --   -0.01939   0.05744   0.07017   0.08286   0.09675
 Alpha virt. eigenvalues --    0.12575   0.14098   0.15282   0.17276   0.19341
 Alpha virt. eigenvalues --    0.20089   0.22247   0.25249   0.26693   0.28461

 Mulliken charges:
               1
     1  C    0.161315
     2  O   -0.352867
     3  C   -0.042078
     4  C   -0.126126
     5  H    0.103052
     6  H    0.084393
     7  H    0.106872
     8  H    0.065439
 Sum of Mulliken charges =   0.00000

 Dipole moment (field-independent basis, Debye):
    X=              3.5831    Y=              0.6790    Z=              0.1732  Tot=              3.6510
 Quadrupole moment (field-independent basis, Debye-Ang):
   XX=            -27.4828   YY=            -21.7065   ZZ=            -25.1698
   XY=             -0.6840   XZ=             -0.0927   YZ=             -0.1164

 Normal termination of Gaussian 09 at Wed Aug 26 09:16:40 2020.
