 Gaussian 09, Revision D.01,
 Gaussian 09:  ES64L-G09RevD.01 24-Apr-2013

 --------------------
 #p B2PLYPD3/Def2QZVP
 --------------------

 --------
 acrolein
 --------
 Symbolic Z-matrix:
 Charge =  0 Multiplicity = 1

                         Standard orientation:
 ---------------------------------------------------------------------
 Center     Atomic      Atomic             Coordinates (Angstroms)
 Number     Number       Type             X           Y           Z
 ---------------------------------------------------------------------
      1          6           0        0.671993    0.334951   -0.024964
      2          8           0        1.784861   -0.111958    0.036457
      3          6           0       -0.559868   -0.460311   -0.037739
      4          6           0       -1.740239    0.151497    0.018744
      5          1           0       -0.470024   -1.547503   -0.094685
      6          1           0       -1.826806    1.219748   -0.027064
      7          1           0       -2.688723   -0.403776    0.154710
      8          1           0        0.475347    1.470371   -0.060863
 ---------------------------------------------------------------------

 SCF Done:  E(RB2PLYPD3) =  -191.614356258     A.U. after   12 cycles
 E2(B2PLYPD3) =    -0.2472153368D+00 E(B2PLYPD3) =    -0.19186157159442D+03

 The electronic state is 1-A.
 Alpha  occ. eigenvalues --  -19.72930 -10.71897 -10.65630 -10.64512  -1.20167
 Alpha  occ. eigenvalues --   -0.93123  -0.75086  -0.66434  -0.56506  -0.56177
 Alpha  occ. eigenvalues --   -0.50479  -0.47518  -0.46632  -0.34781  -0.33665
 Alpha virt. eigenvalues --   -0.01619   0.05755   0.06934   0.08278   0.09712
 Alpha virt. eigenvalues --    0.12555   0.13984   0.15288   0.17353   0.19784
 Alpha virt. eigenvalues --    0.20059   0.21456   0.25337   0.26406   0.28623

 Mulliken charges:
               1
     1  C    0.155924
     2  O   -0.339416
     3  C   -0.030946
     4  C   -0.129287
     5  H    0.103299
     6  H    0.086901
     7  H    0.099148
     8  H    0.054376
 Sum of Mulliken charges =   0.00000

 Dipole moment (field-independent basis, Debye):
    X=             -3.4728    Y=              0.6505    Z=             -0.1006  Tot=              3.5346
 Quadrupole moment (field-independent basis, Debye-Ang):
   XX=            -27.3449   YY=            -21.8908   ZZ=            -25.2144
   XY=              0.7569   XZ=             -0.4631   YZ=             -0.0107

 Normal termination of Gaussian 09 at Wed Aug 26 10:29:00 2020.
