 Gaussian 09, Revision D.01,
 Gaussian 09:  ES64L-G09RevD.01 24-Apr-2013

 --------------------
 #p B2PLYPD3/Def2QZVP
 --------------------

 --------
 acrolein
 --------
 Symbolic Z-matrix:
 Charge =  0 Multiplicity = 1

                         Standard orientation:
 ---------------------------------------------------------------------
 Center     Atomic      Atomic             Coordinates (Angstroms)
 Number     Number       Type             X           Y           Z
 ---------------------------------------------------------------------
      1          6           0       -0.666230    0.356967   -0.002352
      2          8           0       -1.768885   -0.139367   -0.005004
      3          6           0        0.557354   -0.436609   -0.011032
      4          6           0        1.741403    0.134293   -0.016032
      5          1           0        0.461352   -1.436261    0.075163
      6          1           0        1.797259    1.227947   -0.010839
      7          1           0        2.687461   -0.440945    0.060658
      8          1           0       -0.590151    1.436292    0.091546
 ---------------------------------------------------------------------

 SCF Done:  E(RB2PLYPD3) =  -191.611341117     A.U. after   13 cycles
 E2(B2PLYPD3) =    -0.2461674227D+00 E(B2PLYPD3) =    -0.19185750853993D+03

 The electronic state is 1-A.
 Alpha  occ. eigenvalues --  -19.72535 -10.71123 -10.65417 -10.63173  -1.19570
 Alpha  occ. eigenvalues --   -0.93614  -0.75133  -0.68099  -0.57245  -0.56320
 Alpha  occ. eigenvalues --   -0.50613  -0.47155  -0.46618  -0.34909  -0.33813
 Alpha virt. eigenvalues --   -0.01458   0.05738   0.07330   0.08295   0.09785
 Alpha virt. eigenvalues --    0.12409   0.13985   0.15351   0.18043   0.19442
 Alpha virt. eigenvalues --    0.20006   0.21487   0.25527   0.26540   0.29244

 Mulliken charges:
               1
     1  C    0.148192
     2  O   -0.350190
     3  C   -0.043449
     4  C   -0.124566
     5  H    0.113522
     6  H    0.080095
     7  H    0.097964
     8  H    0.078432
 Sum of Mulliken charges =   0.00000

 Dipole moment (field-independent basis, Debye):
    X=              3.4149    Y=              0.8148    Z=              0.1552  Tot=              3.5142
 Quadrupole moment (field-independent basis, Debye-Ang):
   XX=            -27.4159   YY=            -21.7249   ZZ=            -25.0460
   XY=             -1.2691   XZ=              0.1466   YZ=             -0.1144

 Normal termination of Gaussian 09 at Wed Aug 26 08:42:26 2020.
