 Gaussian 09, Revision D.01,
 Gaussian 09:  ES64L-G09RevD.01 24-Apr-2013

 --------------------
 #p B2PLYPD3/Def2QZVP
 --------------------

 --------
 acrolein
 --------
 Symbolic Z-matrix:
 Charge =  0 Multiplicity = 1

                         Standard orientation:
 ---------------------------------------------------------------------
 Center     Atomic      Atomic             Coordinates (Angstroms)
 Number     Number       Type             X           Y           Z
 ---------------------------------------------------------------------
      1          6           0        0.669395    0.349381    0.005033
      2          8           0        1.789437   -0.116243    0.010272
      3          6           0       -0.572164   -0.466006   -0.023781
      4          6           0       -1.749633    0.154569    0.001338
      5          1           0       -0.471150   -1.560563   -0.017816
      6          1           0       -1.825958    1.242483   -0.000124
      7          1           0       -2.628940   -0.406317    0.083892
      8          1           0        0.524967    1.426676   -0.043664
 ---------------------------------------------------------------------

 SCF Done:  E(RB2PLYPD3) =  -191.615223052     A.U. after   12 cycles
 E2(B2PLYPD3) =    -0.2470272760D+00 E(B2PLYPD3) =    -0.19186225032779D+03

 The electronic state is 1-A.
 Alpha  occ. eigenvalues --  -19.72720 -10.71487 -10.65030 -10.64631  -1.19292
 Alpha  occ. eigenvalues --   -0.92960  -0.75347  -0.67054  -0.56713  -0.56350
 Alpha  occ. eigenvalues --   -0.50486  -0.47214  -0.46526  -0.34694  -0.33745
 Alpha virt. eigenvalues --   -0.01544   0.05818   0.07109   0.07957   0.09713
 Alpha virt. eigenvalues --    0.12653   0.14136   0.15339   0.17360   0.19791
 Alpha virt. eigenvalues --    0.19945   0.21794   0.25357   0.26447   0.28694

 Mulliken charges:
               1
     1  C    0.154889
     2  O   -0.349339
     3  C   -0.043734
     4  C   -0.130858
     5  H    0.104193
     6  H    0.085680
     7  H    0.102352
     8  H    0.076817
 Sum of Mulliken charges =   0.00000

 Dipole moment (field-independent basis, Debye):
    X=             -3.4714    Y=              0.7664    Z=              0.0261  Tot=              3.5551
 Quadrupole moment (field-independent basis, Debye-Ang):
   XX=            -27.6705   YY=            -21.5337   ZZ=            -25.2060
   XY=              0.9329   XZ=             -0.2639   YZ=             -0.0522

 Normal termination of Gaussian 09 at Wed Aug 26 16:09:56 2020.
