 Gaussian 09, Revision D.01,
 Gaussian 09:  ES64L-G09RevD.01 24-Apr-2013

 --------------------
 #p B2PLYPD3/Def2QZVP
 --------------------

 --------
 acrolein
 --------
 Symbolic Z-matrix:
 Charge =  0 Multiplicity = 1

                         Standard orientation:
 ---------------------------------------------------------------------
 Center     Atomic      Atomic             Coordinates (Angstroms)
 Number     Number       Type             X           Y           Z
 ---------------------------------------------------------------------
      1          6           0        0.671597    0.353283    0.040673
      2          8           0        1.788329   -0.134777   -0.043402
      3          6           0       -0.550579   -0.411110    0.025388
      4          6           0       -1.753400    0.134614   -0.044702
      5          1           0       -0.474281   -1.515853    0.123677
      6          1           0       -1.799722    1.130528   -0.032870
      7          1           0       -2.713952   -0.439392   -0.002860
      8          1           0        0.475611    1.442217    0.131116
 ---------------------------------------------------------------------

 SCF Done:  E(RB2PLYPD3) =  -191.606468663     A.U. after   12 cycles
 E2(B2PLYPD3) =    -0.2476278800D+00 E(B2PLYPD3) =    -0.19185409654290D+03

 The electronic state is 1-A.
 Alpha  occ. eigenvalues --  -19.73059 -10.71803 -10.64863 -10.64207  -1.19027
 Alpha  occ. eigenvalues --   -0.93842  -0.76377  -0.67123  -0.57136  -0.56312
 Alpha  occ. eigenvalues --   -0.50714  -0.47090  -0.45911  -0.34848  -0.34162
 Alpha virt. eigenvalues --   -0.02168   0.05732   0.06906   0.08468   0.09806
 Alpha virt. eigenvalues --    0.12661   0.14024   0.15281   0.17388   0.19771
 Alpha virt. eigenvalues --    0.20236   0.21667   0.25545   0.26436   0.28865

 Mulliken charges:
               1
     1  C    0.145542
     2  O   -0.350439
     3  C   -0.013301
     4  C   -0.133041
     5  H    0.095128
     6  H    0.082822
     7  H    0.103271
     8  H    0.070018
 Sum of Mulliken charges =   0.00000

 Dipole moment (field-independent basis, Debye):
    X=             -3.5672    Y=              0.8199    Z=              0.2631  Tot=              3.6696
 Quadrupole moment (field-independent basis, Debye-Ang):
   XX=            -27.2537   YY=            -21.9911   ZZ=            -25.1101
   XY=              1.0619   XZ=              0.1880   YZ=             -0.1338

 Normal termination of Gaussian 09 at Wed Aug 26 09:32:00 2020.
