 Gaussian 09, Revision D.01,
 Gaussian 09:  ES64L-G09RevD.01 24-Apr-2013

 --------------------
 #p B2PLYPD3/Def2QZVP
 --------------------

 --------
 acrolein
 --------
 Symbolic Z-matrix:
 Charge =  0 Multiplicity = 1

                         Standard orientation:
 ---------------------------------------------------------------------
 Center     Atomic      Atomic             Coordinates (Angstroms)
 Number     Number       Type             X           Y           Z
 ---------------------------------------------------------------------
      1          6           0        0.663084    0.366213    0.080405
      2          8           0        1.791877   -0.147062   -0.051992
      3          6           0       -0.525759   -0.437567    0.005755
      4          6           0       -1.746862    0.132300   -0.035261
      5          1           0       -0.452798   -1.414862    0.110431
      6          1           0       -1.769033    1.111829   -0.126435
      7          1           0       -2.947191   -0.417790    0.047066
      8          1           0        0.491233    1.531648    0.079482
 ---------------------------------------------------------------------

 SCF Done:  E(RB2PLYPD3) =  -191.562576699     A.U. after   13 cycles
 E2(B2PLYPD3) =    -0.2510022259D+00 E(B2PLYPD3) =    -0.19181357892464D+03

 The electronic state is 1-A.
 Alpha  occ. eigenvalues --  -19.73119 -10.72829 -10.67089 -10.63796  -1.17729
 Alpha  occ. eigenvalues --   -0.93755  -0.75426  -0.68413  -0.56687  -0.54894
 Alpha  occ. eigenvalues --   -0.49683  -0.46174  -0.46015  -0.34527  -0.34033
 Alpha virt. eigenvalues --   -0.02848   0.04675   0.06816   0.07547   0.09490
 Alpha virt. eigenvalues --    0.11688   0.13827   0.15138   0.17873   0.19604
 Alpha virt. eigenvalues --    0.20033   0.20812   0.24637   0.25525   0.28413

 Mulliken charges:
               1
     1  C    0.154278
     2  O   -0.362043
     3  C   -0.025327
     4  C   -0.134142
     5  H    0.117758
     6  H    0.092628
     7  H    0.091060
     8  H    0.065789
 Sum of Mulliken charges =   0.00000

 Dipole moment (field-independent basis, Debye):
    X=             -3.6423    Y=              0.8820    Z=              0.2638  Tot=              3.7568
 Quadrupole moment (field-independent basis, Debye-Ang):
   XX=            -27.2433   YY=            -22.0539   ZZ=            -25.3605
   XY=              1.0187   XZ=              0.2149   YZ=             -0.2877

 Normal termination of Gaussian 09 at Wed Aug 26 11:14:59 2020.
