 Gaussian 09, Revision D.01,
 Gaussian 09:  ES64L-G09RevD.01 24-Apr-2013

 --------------------
 #p B2PLYPD3/Def2QZVP
 --------------------

 --------
 acrolein
 --------
 Symbolic Z-matrix:
 Charge =  0 Multiplicity = 1

                         Standard orientation:
 ---------------------------------------------------------------------
 Center     Atomic      Atomic             Coordinates (Angstroms)
 Number     Number       Type             X           Y           Z
 ---------------------------------------------------------------------
      1          6           0        0.665031    0.331766   -0.014848
      2          8           0        1.786597   -0.108241    0.023294
      3          6           0       -0.563836   -0.460732   -0.034819
      4          6           0       -1.756241    0.154603    0.021186
      5          1           0       -0.441783   -1.548312   -0.026366
      6          1           0       -1.798470    1.232396   -0.014373
      7          1           0       -2.658403   -0.399099    0.068646
      8          1           0        0.536161    1.427121   -0.043368
 ---------------------------------------------------------------------

 SCF Done:  E(RB2PLYPD3) =  -191.616333949     A.U. after   12 cycles
 E2(B2PLYPD3) =    -0.2469404450D+00 E(B2PLYPD3) =    -0.19186327439438D+03

 The electronic state is 1-A.
 Alpha  occ. eigenvalues --  -19.72593 -10.71245 -10.65492 -10.64682  -1.19706
 Alpha  occ. eigenvalues --   -0.93024  -0.75637  -0.66880  -0.56759  -0.56460
 Alpha  occ. eigenvalues --   -0.50488  -0.47399  -0.46821  -0.34595  -0.33674
 Alpha virt. eigenvalues --   -0.01822   0.05832   0.07108   0.08326   0.09749
 Alpha virt. eigenvalues --    0.12632   0.14042   0.15327   0.17342   0.19924
 Alpha virt. eigenvalues --    0.19979   0.21625   0.25278   0.26397   0.28960

 Mulliken charges:
               1
     1  C    0.154184
     2  O   -0.347256
     3  C   -0.035153
     4  C   -0.132222
     5  H    0.102783
     6  H    0.088960
     7  H    0.105899
     8  H    0.062804
 Sum of Mulliken charges =   0.00000

 Dipole moment (field-independent basis, Debye):
    X=             -3.5241    Y=              0.6877    Z=             -0.0556  Tot=              3.5910
 Quadrupole moment (field-independent basis, Debye-Ang):
   XX=            -27.4257   YY=            -21.7334   ZZ=            -25.2051
   XY=              0.8941   XZ=             -0.2610   YZ=             -0.0509

 Normal termination of Gaussian 09 at Wed Aug 26 21:00:29 2020.
