 Gaussian 09, Revision D.01,
 Gaussian 09:  ES64L-G09RevD.01 24-Apr-2013

 --------------------
 #p B2PLYPD3/Def2QZVP
 --------------------

 --------
 acrolein
 --------
 Symbolic Z-matrix:
 Charge =  0 Multiplicity = 1

                         Standard orientation:
 ---------------------------------------------------------------------
 Center     Atomic      Atomic             Coordinates (Angstroms)
 Number     Number       Type             X           Y           Z
 ---------------------------------------------------------------------
      1          6           0       -0.706566    0.391632    0.037051
      2          8           0       -1.768765   -0.158035   -0.042940
      3          6           0        0.539603   -0.428629    0.029167
      4          6           0        1.780628    0.100873   -0.045434
      5          1           0        0.347053   -1.489180    0.184296
      6          1           0        1.888786    1.232531    0.104942
      7          1           0        2.783649   -0.434721   -0.108114
      8          1           0       -0.551355    1.572388    0.037691
 ---------------------------------------------------------------------

 SCF Done:  E(RB2PLYPD3) =  -191.600930738     A.U. after   13 cycles
 E2(B2PLYPD3) =    -0.2487956372D+00 E(B2PLYPD3) =    -0.19184972637482D+03

 The electronic state is 1-A.
 Alpha  occ. eigenvalues --  -19.73378 -10.72720 -10.66739 -10.64889  -1.20797
 Alpha  occ. eigenvalues --   -0.91505  -0.74216  -0.65636  -0.56394  -0.55013
 Alpha  occ. eigenvalues --   -0.50926  -0.47595  -0.45159  -0.34180  -0.33779
 Alpha virt. eigenvalues --   -0.01760   0.05465   0.06973   0.07796   0.09690
 Alpha virt. eigenvalues --    0.11742   0.13742   0.15290   0.17561   0.19579
 Alpha virt. eigenvalues --    0.19870   0.21018   0.25237   0.26245   0.28914

 Mulliken charges:
               1
     1  C    0.170153
     2  O   -0.331082
     3  C   -0.056203
     4  C   -0.126141
     5  H    0.108213
     6  H    0.070601
     7  H    0.102799
     8  H    0.061661
 Sum of Mulliken charges =   0.00000

 Dipole moment (field-independent basis, Debye):
    X=              3.1927    Y=              0.8237    Z=              0.2961  Tot=              3.3105
 Quadrupole moment (field-independent basis, Debye-Ang):
   XX=            -26.9263   YY=            -22.1144   ZZ=            -25.4743
   XY=             -1.0662   XZ=             -0.2245   YZ=             -0.0342

 Normal termination of Gaussian 09 at Wed Aug 26 12:22:41 2020.
