 Gaussian 09, Revision D.01,
 Gaussian 09:  ES64L-G09RevD.01 24-Apr-2013

 --------------------
 #p B2PLYPD3/Def2QZVP
 --------------------

 --------
 acrolein
 --------
 Symbolic Z-matrix:
 Charge =  0 Multiplicity = 1

                         Standard orientation:
 ---------------------------------------------------------------------
 Center     Atomic      Atomic             Coordinates (Angstroms)
 Number     Number       Type             X           Y           Z
 ---------------------------------------------------------------------
      1          6           0        0.659654    0.318948    0.043881
      2          8           0        1.806877   -0.093969   -0.030968
      3          6           0       -0.588553   -0.453936   -0.034293
      4          6           0       -1.768777    0.146971    0.007109
      5          1           0       -0.422993   -1.576749    0.128435
      6          1           0       -1.823064    1.335862   -0.133783
      7          1           0       -2.611928   -0.399498    0.016035
      8          1           0        0.589031    1.320238    0.136875
 ---------------------------------------------------------------------

 SCF Done:  E(RB2PLYPD3) =  -191.591413856     A.U. after   13 cycles
 E2(B2PLYPD3) =    -0.2476814359D+00 E(B2PLYPD3) =    -0.19183909529143D+03

 The electronic state is 1-A.
 Alpha  occ. eigenvalues --  -19.72502 -10.70460 -10.65979 -10.65189  -1.18715
 Alpha  occ. eigenvalues --   -0.93301  -0.76416  -0.67237  -0.57264  -0.55842
 Alpha  occ. eigenvalues --   -0.50708  -0.46395  -0.45521  -0.35044  -0.33736
 Alpha virt. eigenvalues --   -0.01988   0.05557   0.06942   0.07926   0.09575
 Alpha virt. eigenvalues --    0.12489   0.13778   0.15128   0.17580   0.19020
 Alpha virt. eigenvalues --    0.20018   0.21990   0.24401   0.27044   0.28966

 Mulliken charges:
               1
     1  C    0.165066
     2  O   -0.356962
     3  C   -0.042417
     4  C   -0.124666
     5  H    0.094054
     6  H    0.081603
     7  H    0.111993
     8  H    0.071329
 Sum of Mulliken charges =   0.00000

 Dipole moment (field-independent basis, Debye):
    X=             -3.5981    Y=              0.7227    Z=              0.1974  Tot=              3.6753
 Quadrupole moment (field-independent basis, Debye-Ang):
   XX=            -27.7606   YY=            -21.6674   ZZ=            -25.1723
   XY=              0.9339   XZ=              0.2563   YZ=             -0.3606

 Normal termination of Gaussian 09 at Wed Aug 26 14:08:08 2020.
