 Gaussian 09, Revision D.01,
 Gaussian 09:  ES64L-G09RevD.01 24-Apr-2013

 --------------------
 #p B2PLYPD3/Def2QZVP
 --------------------

 --------
 acrolein
 --------
 Symbolic Z-matrix:
 Charge =  0 Multiplicity = 1

                         Standard orientation:
 ---------------------------------------------------------------------
 Center     Atomic      Atomic             Coordinates (Angstroms)
 Number     Number       Type             X           Y           Z
 ---------------------------------------------------------------------
      1          6           0       -0.674358    0.350474    0.015202
      2          8           0       -1.778472   -0.128753   -0.011580
      3          6           0        0.558449   -0.447224    0.018195
      4          6           0        1.753617    0.142172   -0.011440
      5          1           0        0.473419   -1.493935   -0.016812
      6          1           0        1.804323    1.197251   -0.005345
      7          1           0        2.647317   -0.413846   -0.011076
      8          1           0       -0.523533    1.468022   -0.005868
 ---------------------------------------------------------------------

 SCF Done:  E(RB2PLYPD3) =  -191.615826735     A.U. after   12 cycles
 E2(B2PLYPD3) =    -0.2464667001D+00 E(B2PLYPD3) =    -0.19186229343494D+03

 The electronic state is 1-A.
 Alpha  occ. eigenvalues --  -19.72819 -10.71681 -10.64741 -10.63911  -1.19965
 Alpha  occ. eigenvalues --   -0.93208  -0.75567  -0.67248  -0.57039  -0.56525
 Alpha  occ. eigenvalues --   -0.50703  -0.47599  -0.47014  -0.34661  -0.33799
 Alpha virt. eigenvalues --   -0.01613   0.05890   0.07262   0.08260   0.09819
 Alpha virt. eigenvalues --    0.12677   0.14008   0.15382   0.17591   0.19925
 Alpha virt. eigenvalues --    0.20016   0.21698   0.25555   0.26351   0.28905

 Mulliken charges:
               1
     1  C    0.151879
     2  O   -0.343037
     3  C   -0.036800
     4  C   -0.132595
     5  H    0.106391
     6  H    0.084514
     7  H    0.103062
     8  H    0.066587
 Sum of Mulliken charges =   0.00000

 Dipole moment (field-independent basis, Debye):
    X=              3.4312    Y=              0.7389    Z=              0.0099  Tot=              3.5099
 Quadrupole moment (field-independent basis, Debye-Ang):
   XX=            -27.3269   YY=            -21.7738   ZZ=            -25.1218
   XY=             -1.0580   XZ=             -0.1021   YZ=              0.0302

 Normal termination of Gaussian 09 at Wed Aug 26 18:59:11 2020.
