 Gaussian 09, Revision D.01,
 Gaussian 09:  ES64L-G09RevD.01 24-Apr-2013

 --------------------
 #p B2PLYPD3/Def2QZVP
 --------------------

 --------
 acrolein
 --------
 Symbolic Z-matrix:
 Charge =  0 Multiplicity = 1

                         Standard orientation:
 ---------------------------------------------------------------------
 Center     Atomic      Atomic             Coordinates (Angstroms)
 Number     Number       Type             X           Y           Z
 ---------------------------------------------------------------------
      1          6           0       -0.685449    0.363701    0.022527
      2          8           0       -1.780882   -0.135049   -0.016436
      3          6           0        0.549289   -0.448014    0.024199
      4          6           0        1.762646    0.132120   -0.016268
      5          1           0        0.445492   -1.493295   -0.007917
      6          1           0        1.846273    1.237600    0.019859
      7          1           0        2.708934   -0.444180   -0.035623
      8          1           0       -0.512554    1.493428   -0.027584
 ---------------------------------------------------------------------

 SCF Done:  E(RB2PLYPD3) =  -191.613604281     A.U. after   13 cycles
 E2(B2PLYPD3) =    -0.2475781853D+00 E(B2PLYPD3) =    -0.19186118246634D+03

 The electronic state is 1-A.
 Alpha  occ. eigenvalues --  -19.73008 -10.72057 -10.66041 -10.64223  -1.20090
 Alpha  occ. eigenvalues --   -0.92420  -0.74787  -0.66814  -0.56256  -0.56069
 Alpha  occ. eigenvalues --   -0.50592  -0.47066  -0.46760  -0.34438  -0.33853
 Alpha virt. eigenvalues --   -0.01711   0.05663   0.07197   0.08022   0.09747
 Alpha virt. eigenvalues --    0.12321   0.13822   0.15412   0.17717   0.19598
 Alpha virt. eigenvalues --    0.19938   0.21304   0.25303   0.26408   0.28802

 Mulliken charges:
               1
     1  C    0.159292
     2  O   -0.340826
     3  C   -0.047785
     4  C   -0.130634
     5  H    0.110877
     6  H    0.080560
     7  H    0.101199
     8  H    0.067318
 Sum of Mulliken charges =   0.00000

 Dipole moment (field-independent basis, Debye):
    X=              3.3747    Y=              0.7604    Z=              0.0292  Tot=              3.4595
 Quadrupole moment (field-independent basis, Debye-Ang):
   XX=            -27.3165   YY=            -21.8007   ZZ=            -25.3287
   XY=             -1.0387   XZ=             -0.1397   YZ=              0.0574

 Normal termination of Gaussian 09 at Wed Aug 26 16:19:49 2020.
