 Gaussian 09, Revision D.01,
 Gaussian 09:  ES64L-G09RevD.01 24-Apr-2013

 --------------------
 #p B2PLYPD3/Def2QZVP
 --------------------

 --------
 acrolein
 --------
 Symbolic Z-matrix:
 Charge =  0 Multiplicity = 1

                         Standard orientation:
 ---------------------------------------------------------------------
 Center     Atomic      Atomic             Coordinates (Angstroms)
 Number     Number       Type             X           Y           Z
 ---------------------------------------------------------------------
      1          6           0       -0.662453    0.332894    0.056226
      2          8           0       -1.782954   -0.090814   -0.071893
      3          6           0        0.535188   -0.479891    0.036952
      4          6           0        1.766403    0.134467   -0.016158
      5          1           0        0.409346   -1.531340    0.085578
      6          1           0        2.016426    1.395890   -0.266803
      7          1           0        2.588327   -0.471283   -0.023381
      8          1           0       -0.585294    1.408419    0.317631
 ---------------------------------------------------------------------

 SCF Done:  E(RB2PLYPD3) =  -191.581587569     A.U. after   13 cycles
 E2(B2PLYPD3) =    -0.2489073915D+00 E(B2PLYPD3) =    -0.19183049496068D+03

 The electronic state is 1-A.
 Alpha  occ. eigenvalues --  -19.72277 -10.70941 -10.67718 -10.65103  -1.19634
 Alpha  occ. eigenvalues --   -0.92241  -0.75569  -0.66371  -0.56569  -0.55454
 Alpha  occ. eigenvalues --   -0.50301  -0.46459  -0.45901  -0.34077  -0.33457
 Alpha virt. eigenvalues --   -0.02325   0.04701   0.07011   0.07841   0.09453
 Alpha virt. eigenvalues --    0.12004   0.14019   0.15282   0.17743   0.18247
 Alpha virt. eigenvalues --    0.20018   0.21762   0.24159   0.26465   0.28363

 Mulliken charges:
               1
     1  C    0.155662
     2  O   -0.347769
     3  C   -0.064151
     4  C   -0.127980
     5  H    0.115150
     6  H    0.088525
     7  H    0.105920
     8  H    0.074643
 Sum of Mulliken charges =   0.00000

 Dipole moment (field-independent basis, Debye):
    X=              3.5472    Y=              0.5703    Z=              0.1752  Tot=              3.5970
 Quadrupole moment (field-independent basis, Debye-Ang):
   XX=            -27.5600   YY=            -21.4973   ZZ=            -25.4044
   XY=             -0.6922   XZ=             -0.8756   YZ=             -0.3625

 Normal termination of Gaussian 09 at Wed Aug 26 11:18:43 2020.
