 Gaussian 09, Revision D.01,
 Gaussian 09:  ES64L-G09RevD.01 24-Apr-2013

 --------------------
 #p B2PLYPD3/Def2QZVP
 --------------------

 --------
 acrolein
 --------
 Symbolic Z-matrix:
 Charge =  0 Multiplicity = 1

                         Standard orientation:
 ---------------------------------------------------------------------
 Center     Atomic      Atomic             Coordinates (Angstroms)
 Number     Number       Type             X           Y           Z
 ---------------------------------------------------------------------
      1          6           0       -0.712294    0.398320    0.074981
      2          8           0       -1.771794   -0.155703   -0.049135
      3          6           0        0.551977   -0.417617    0.001533
      4          6           0        1.790974    0.124538   -0.042384
      5          1           0        0.397734   -1.534829    0.112958
      6          1           0        1.862197    1.081652   -0.099034
      7          1           0        2.619030   -0.431907    0.096232
      8          1           0       -0.488544    1.499273    0.078148
 ---------------------------------------------------------------------

 SCF Done:  E(RB2PLYPD3) =  -191.592480201     A.U. after   13 cycles
 E2(B2PLYPD3) =    -0.2472095120D+00 E(B2PLYPD3) =    -0.19183968971274D+03

 The electronic state is 1-A.
 Alpha  occ. eigenvalues --  -19.73502 -10.72384 -10.64786 -10.63078  -1.20560
 Alpha  occ. eigenvalues --   -0.92220  -0.76156  -0.66852  -0.57414  -0.56741
 Alpha  occ. eigenvalues --   -0.51604  -0.47309  -0.46516  -0.34336  -0.33606
 Alpha virt. eigenvalues --   -0.01847   0.05972   0.07243   0.07780   0.09919
 Alpha virt. eigenvalues --    0.12767   0.14025   0.15382   0.17232   0.19702
 Alpha virt. eigenvalues --    0.20094   0.22873   0.25169   0.26428   0.28579

 Mulliken charges:
               1
     1  C    0.159824
     2  O   -0.331550
     3  C   -0.041393
     4  C   -0.145840
     5  H    0.095521
     6  H    0.082258
     7  H    0.103573
     8  H    0.077608
 Sum of Mulliken charges =   0.00000

 Dipole moment (field-independent basis, Debye):
    X=              3.1331    Y=              0.9747    Z=              0.3163  Tot=              3.2964
 Quadrupole moment (field-independent basis, Debye-Ang):
   XX=            -27.2301   YY=            -21.7778   ZZ=            -25.1621
   XY=             -0.9936   XZ=             -0.0740   YZ=             -0.2816

 Normal termination of Gaussian 09 at Wed Aug 26 10:34:26 2020.
