 Gaussian 09, Revision D.01,
 Gaussian 09:  ES64L-G09RevD.01 24-Apr-2013

 --------------------
 #p B2PLYPD3/Def2QZVP
 --------------------

 --------
 acrolein
 --------
 Symbolic Z-matrix:
 Charge =  0 Multiplicity = 1

                         Standard orientation:
 ---------------------------------------------------------------------
 Center     Atomic      Atomic             Coordinates (Angstroms)
 Number     Number       Type             X           Y           Z
 ---------------------------------------------------------------------
      1          6           0       -0.682418    0.353523    0.015841
      2          8           0       -1.780614   -0.129680   -0.014840
      3          6           0        0.555628   -0.441985    0.009487
      4          6           0        1.756569    0.136148   -0.018403
      5          1           0        0.478641   -1.490798    0.025384
      6          1           0        1.866957    1.224797   -0.022830
      7          1           0        2.672257   -0.425924    0.027118
      8          1           0       -0.551615    1.443246    0.047497
 ---------------------------------------------------------------------

 SCF Done:  E(RB2PLYPD3) =  -191.616882842     A.U. after   12 cycles
 E2(B2PLYPD3) =    -0.2462778297D+00 E(B2PLYPD3) =    -0.19186316067129D+03

 The electronic state is 1-A.
 Alpha  occ. eigenvalues --  -19.72748 -10.71383 -10.65329 -10.63972  -1.20174
 Alpha  occ. eigenvalues --   -0.92862  -0.75334  -0.67372  -0.56816  -0.56528
 Alpha  occ. eigenvalues --   -0.50798  -0.47100  -0.46892  -0.34622  -0.33845
 Alpha virt. eigenvalues --   -0.01559   0.05782   0.07342   0.08324   0.09703
 Alpha virt. eigenvalues --    0.12525   0.14146   0.15441   0.17776   0.19636
 Alpha virt. eigenvalues --    0.19949   0.21586   0.25603   0.26322   0.28724

 Mulliken charges:
               1
     1  C    0.153110
     2  O   -0.341746
     3  C   -0.045027
     4  C   -0.129427
     5  H    0.107655
     6  H    0.080357
     7  H    0.099884
     8  H    0.075195
 Sum of Mulliken charges =   0.00000

 Dipole moment (field-independent basis, Debye):
    X=              3.4005    Y=              0.7842    Z=              0.0944  Tot=              3.4910
 Quadrupole moment (field-independent basis, Debye-Ang):
   XX=            -27.2771   YY=            -21.7550   ZZ=            -25.1578
   XY=             -1.0515   XZ=             -0.0251   YZ=             -0.0546

 Normal termination of Gaussian 09 at Wed Aug 26 16:08:04 2020.
