 Gaussian 09, Revision D.01,
 Gaussian 09:  ES64L-G09RevD.01 24-Apr-2013

 --------------------
 #p B2PLYPD3/Def2QZVP
 --------------------

 --------
 acrolein
 --------
 Symbolic Z-matrix:
 Charge =  0 Multiplicity = 1

                         Standard orientation:
 ---------------------------------------------------------------------
 Center     Atomic      Atomic             Coordinates (Angstroms)
 Number     Number       Type             X           Y           Z
 ---------------------------------------------------------------------
      1          6           0        0.632117    0.314339    0.068183
      2          8           0        1.815289   -0.089899   -0.038067
      3          6           0       -0.587540   -0.511664    0.040215
      4          6           0       -1.737675    0.181862   -0.032345
      5          1           0       -0.533649   -1.582798   -0.029876
      6          1           0       -1.831677    1.321648    0.034580
      7          1           0       -2.525559   -0.398388   -0.074902
      8          1           0        0.527168    1.471500   -0.081584
 ---------------------------------------------------------------------

 SCF Done:  E(RB2PLYPD3) =  -191.589673086     A.U. after   13 cycles
 E2(B2PLYPD3) =    -0.2504809358D+00 E(B2PLYPD3) =    -0.19184015402179D+03

 The electronic state is 1-A.
 Alpha  occ. eigenvalues --  -19.72523 -10.72485 -10.65542 -10.65327  -1.16629
 Alpha  occ. eigenvalues --   -0.93732  -0.75828  -0.66278  -0.57093  -0.55125
 Alpha  occ. eigenvalues --   -0.49190  -0.48171  -0.45234  -0.34690  -0.33291
 Alpha virt. eigenvalues --   -0.02319   0.05637   0.06566   0.07190   0.09521
 Alpha virt. eigenvalues --    0.12492   0.14024   0.15062   0.17194   0.19463
 Alpha virt. eigenvalues --    0.20101   0.21897   0.24317   0.26453   0.28754

 Mulliken charges:
               1
     1  C    0.156262
     2  O   -0.368127
     3  C   -0.045757
     4  C   -0.119474
     5  H    0.109929
     6  H    0.101991
     7  H    0.101296
     8  H    0.063881
 Sum of Mulliken charges =   0.00000

 Dipole moment (field-independent basis, Debye):
    X=             -3.8593    Y=              0.5766    Z=              0.0608  Tot=              3.9026
 Quadrupole moment (field-independent basis, Debye-Ang):
   XX=            -28.2423   YY=            -21.2292   ZZ=            -25.3620
   XY=              0.7758   XZ=              0.2867   YZ=              0.0880

 Normal termination of Gaussian 09 at Wed Aug 26 10:56:47 2020.
