 Gaussian 09, Revision D.01,
 Gaussian 09:  ES64L-G09RevD.01 24-Apr-2013

 --------------------
 #p B2PLYPD3/Def2QZVP
 --------------------

 --------
 acrolein
 --------
 Symbolic Z-matrix:
 Charge =  0 Multiplicity = 1

                         Standard orientation:
 ---------------------------------------------------------------------
 Center     Atomic      Atomic             Coordinates (Angstroms)
 Number     Number       Type             X           Y           Z
 ---------------------------------------------------------------------
      1          6           0       -0.663281    0.366359   -0.069281
      2          8           0       -1.808235   -0.103225    0.062880
      3          6           0        0.591621   -0.490174   -0.030615
      4          6           0        1.771796    0.148821    0.018361
      5          1           0        0.391664   -1.586521   -0.007784
      6          1           0        1.801541    1.334698    0.308647
      7          1           0        2.560924   -0.395677   -0.052300
      8          1           0       -0.489066    1.323267   -0.262389
 ---------------------------------------------------------------------

 SCF Done:  E(RB2PLYPD3) =  -191.574704126     A.U. after   14 cycles
 E2(B2PLYPD3) =    -0.2493561582D+00 E(B2PLYPD3) =    -0.19182406028370D+03

 The electronic state is 1-A.
 Alpha  occ. eigenvalues --  -19.72927 -10.71172 -10.65554 -10.65252  -1.17470
 Alpha  occ. eigenvalues --   -0.92627  -0.76567  -0.67832  -0.57204  -0.54975
 Alpha  occ. eigenvalues --   -0.50593  -0.46731  -0.45170  -0.34434  -0.33729
 Alpha virt. eigenvalues --   -0.02096   0.05115   0.07005   0.07316   0.09655
 Alpha virt. eigenvalues --    0.12429   0.13768   0.15445   0.17213   0.18356
 Alpha virt. eigenvalues --    0.20382   0.22090   0.24190   0.27052   0.28450

 Mulliken charges:
               1
     1  C    0.168569
     2  O   -0.367684
     3  C   -0.066826
     4  C   -0.136240
     5  H    0.108842
     6  H    0.084919
     7  H    0.110737
     8  H    0.097684
 Sum of Mulliken charges =   0.00000

 Dipole moment (field-independent basis, Debye):
    X=              3.4805    Y=              0.7979    Z=             -0.1403  Tot=              3.5735
 Quadrupole moment (field-independent basis, Debye-Ang):
   XX=            -28.3888   YY=            -21.2765   ZZ=            -25.2362
   XY=             -0.8595   XZ=              0.6734   YZ=              0.3088

 Normal termination of Gaussian 09 at Wed Aug 26 11:22:09 2020.
