 Gaussian 09, Revision D.01,
 Gaussian 09:  ES64L-G09RevD.01 24-Apr-2013

 --------------------
 #p B2PLYPD3/Def2QZVP
 --------------------

 --------
 acrolein
 --------
 Symbolic Z-matrix:
 Charge =  0 Multiplicity = 1

                         Standard orientation:
 ---------------------------------------------------------------------
 Center     Atomic      Atomic             Coordinates (Angstroms)
 Number     Number       Type             X           Y           Z
 ---------------------------------------------------------------------
      1          6           0       -0.671514    0.342780    0.034664
      2          8           0       -1.792915   -0.103145   -0.031564
      3          6           0        0.558651   -0.488734    0.026192
      4          6           0        1.759498    0.154226   -0.032440
      5          1           0        0.474194   -1.580471    0.007870
      6          1           0        1.925789    1.296193   -0.076622
      7          1           0        2.607618   -0.399290    0.053132
      8          1           0       -0.544093    1.459093    0.097634
 ---------------------------------------------------------------------

 SCF Done:  E(RB2PLYPD3) =  -191.606046344     A.U. after   13 cycles
 E2(B2PLYPD3) =    -0.2480314271D+00 E(B2PLYPD3) =    -0.19185407777107D+03

 The electronic state is 1-A.
 Alpha  occ. eigenvalues --  -19.72595 -10.71701 -10.65913 -10.65339  -1.19492
 Alpha  occ. eigenvalues --   -0.92163  -0.75275  -0.66384  -0.56427  -0.55938
 Alpha  occ. eigenvalues --   -0.50173  -0.47275  -0.46530  -0.34230  -0.33538
 Alpha virt. eigenvalues --   -0.01881   0.05659   0.07002   0.07899   0.09531
 Alpha virt. eigenvalues --    0.12375   0.14166   0.15447   0.17312   0.19286
 Alpha virt. eigenvalues --    0.20039   0.21844   0.25005   0.26191   0.28474

 Mulliken charges:
               1
     1  C    0.156504
     2  O   -0.344518
     3  C   -0.055612
     4  C   -0.126184
     5  H    0.109001
     6  H    0.086438
     7  H    0.101997
     8  H    0.072373
 Sum of Mulliken charges =   0.00000

 Dipole moment (field-independent basis, Debye):
    X=              3.5165    Y=              0.6841    Z=              0.1284  Tot=              3.5847
 Quadrupole moment (field-independent basis, Debye-Ang):
   XX=            -27.5740   YY=            -21.4453   ZZ=            -25.3950
   XY=             -0.7313   XZ=             -0.1575   YZ=             -0.0871

 Normal termination of Gaussian 09 at Wed Aug 26 20:46:31 2020.
