 Gaussian 09, Revision D.01,
 Gaussian 09:  ES64L-G09RevD.01 24-Apr-2013

 --------------------
 #p B2PLYPD3/Def2QZVP
 --------------------

 --------
 acrolein
 --------
 Symbolic Z-matrix:
 Charge =  0 Multiplicity = 1

                         Standard orientation:
 ---------------------------------------------------------------------
 Center     Atomic      Atomic             Coordinates (Angstroms)
 Number     Number       Type             X           Y           Z
 ---------------------------------------------------------------------
      1          6           0        0.673606    0.357059   -0.005304
      2          8           0        1.778296   -0.126768    0.010536
      3          6           0       -0.548589   -0.444673   -0.006499
      4          6           0       -1.753552    0.143394   -0.001896
      5          1           0       -0.431954   -1.545706   -0.040723
      6          1           0       -1.838283    1.200129    0.005594
      7          1           0       -2.733157   -0.421138    0.059490
      8          1           0        0.548237    1.446174   -0.026462
 ---------------------------------------------------------------------

 SCF Done:  E(RB2PLYPD3) =  -191.614204067     A.U. after   12 cycles
 E2(B2PLYPD3) =    -0.2471837334D+00 E(B2PLYPD3) =    -0.19186138779993D+03

 The electronic state is 1-A.
 Alpha  occ. eigenvalues --  -19.72651 -10.71344 -10.65839 -10.64704  -1.19778
 Alpha  occ. eigenvalues --   -0.92717  -0.75221  -0.67016  -0.56956  -0.55829
 Alpha  occ. eigenvalues --   -0.50312  -0.47002  -0.46452  -0.34514  -0.33855
 Alpha virt. eigenvalues --   -0.01766   0.05677   0.07065   0.08225   0.09710
 Alpha virt. eigenvalues --    0.12410   0.14134   0.15363   0.17415   0.19864
 Alpha virt. eigenvalues --    0.19954   0.21347   0.25529   0.26304   0.28921

 Mulliken charges:
               1
     1  C    0.152371
     2  O   -0.346870
     3  C   -0.039106
     4  C   -0.130929
     5  H    0.106225
     6  H    0.085240
     7  H    0.098551
     8  H    0.074517
 Sum of Mulliken charges =   0.00000

 Dipole moment (field-independent basis, Debye):
    X=             -3.4483    Y=              0.8174    Z=             -0.0187  Tot=              3.5439
 Quadrupole moment (field-independent basis, Debye-Ang):
   XX=            -27.3252   YY=            -21.7327   ZZ=            -25.2673
   XY=              0.9630   XZ=             -0.1934   YZ=              0.0226

 Normal termination of Gaussian 09 at Wed Aug 26 19:47:27 2020.
