 Gaussian 09, Revision D.01,
 Gaussian 09:  ES64L-G09RevD.01 24-Apr-2013

 --------------------
 #p B2PLYPD3/Def2QZVP
 --------------------

 --------
 acrolein
 --------
 Symbolic Z-matrix:
 Charge =  0 Multiplicity = 1

                         Standard orientation:
 ---------------------------------------------------------------------
 Center     Atomic      Atomic             Coordinates (Angstroms)
 Number     Number       Type             X           Y           Z
 ---------------------------------------------------------------------
      1          6           0       -0.660954    0.329818    0.001887
      2          8           0       -1.796801   -0.103679    0.007180
      3          6           0        0.561494   -0.455741   -0.025305
      4          6           0        1.757008    0.144027    0.004028
      5          1           0        0.430773   -1.556889    0.015074
      6          1           0        1.841957    1.253512   -0.008893
      7          1           0        2.648121   -0.414014    0.060285
      8          1           0       -0.491728    1.438200   -0.007565
 ---------------------------------------------------------------------

 SCF Done:  E(RB2PLYPD3) =  -191.614319749     A.U. after   12 cycles
 E2(B2PLYPD3) =    -0.2478087246D+00 E(B2PLYPD3) =    -0.19186212847367D+03

 The electronic state is 1-A.
 Alpha  occ. eigenvalues --  -19.72760 -10.71563 -10.65870 -10.64827  -1.19128
 Alpha  occ. eigenvalues --   -0.93224  -0.75908  -0.66338  -0.56809  -0.56051
 Alpha  occ. eigenvalues --   -0.50465  -0.46820  -0.46659  -0.34751  -0.33759
 Alpha virt. eigenvalues --   -0.02093   0.05714   0.06973   0.08335   0.09709
 Alpha virt. eigenvalues --    0.12562   0.13966   0.15279   0.17257   0.19690
 Alpha virt. eigenvalues --    0.19977   0.21716   0.25306   0.26493   0.28721

 Mulliken charges:
               1
     1  C    0.159484
     2  O   -0.351879
     3  C   -0.032206
     4  C   -0.127683
     5  H    0.100231
     6  H    0.086571
     7  H    0.107068
     8  H    0.058413
 Sum of Mulliken charges =   0.00000

 Dipole moment (field-independent basis, Debye):
    X=              3.6286    Y=              0.6569    Z=              0.0441  Tot=              3.6879
 Quadrupole moment (field-independent basis, Debye-Ang):
   XX=            -27.4585   YY=            -21.7986   ZZ=            -25.2547
   XY=             -0.7544   XZ=              0.1903   YZ=             -0.0859

 Normal termination of Gaussian 09 at Wed Aug 26 16:09:14 2020.
