 Gaussian 09, Revision D.01,
 Gaussian 09:  ES64L-G09RevD.01 24-Apr-2013

 --------------------
 #p B2PLYPD3/Def2QZVP
 --------------------

 --------
 acrolein
 --------
 Symbolic Z-matrix:
 Charge =  0 Multiplicity = 1

                         Standard orientation:
 ---------------------------------------------------------------------
 Center     Atomic      Atomic             Coordinates (Angstroms)
 Number     Number       Type             X           Y           Z
 ---------------------------------------------------------------------
      1          6           0        0.670490    0.353163    0.040174
      2          8           0        1.791007   -0.132949   -0.038997
      3          6           0       -0.561564   -0.438457    0.042507
      4          6           0       -1.750513    0.125627   -0.041809
      5          1           0       -0.448795   -1.462517    0.014102
      6          1           0       -1.776119    1.194775   -0.090855
      7          1           0       -2.677391   -0.428989    0.036958
      8          1           0        0.423765    1.518320    0.106542
 ---------------------------------------------------------------------

 SCF Done:  E(RB2PLYPD3) =  -191.607671187     A.U. after   12 cycles
 E2(B2PLYPD3) =    -0.2483329660D+00 E(B2PLYPD3) =    -0.19185600415315D+03

 The electronic state is 1-A.
 Alpha  occ. eigenvalues --  -19.73409 -10.72774 -10.65194 -10.63608  -1.19069
 Alpha  occ. eigenvalues --   -0.93743  -0.75510  -0.66896  -0.56929  -0.55648
 Alpha  occ. eigenvalues --   -0.50742  -0.47221  -0.46634  -0.34996  -0.33944
 Alpha virt. eigenvalues --   -0.02024   0.05740   0.07081   0.08129   0.09905
 Alpha virt. eigenvalues --    0.12590   0.13442   0.15323   0.17525   0.19447
 Alpha virt. eigenvalues --    0.20067   0.21557   0.25457   0.26397   0.28872

 Mulliken charges:
               1
     1  C    0.160006
     2  O   -0.348726
     3  C   -0.027181
     4  C   -0.124000
     5  H    0.106055
     6  H    0.078627
     7  H    0.104683
     8  H    0.050536
 Sum of Mulliken charges =   0.00000

 Dipole moment (field-independent basis, Debye):
    X=             -3.5224    Y=              0.6624    Z=              0.1293  Tot=              3.5865
 Quadrupole moment (field-independent basis, Debye-Ang):
   XX=            -27.3663   YY=            -22.0470   ZZ=            -25.1819
   XY=              0.9617   XZ=              0.2070   YZ=             -0.0822

 Normal termination of Gaussian 09 at Wed Aug 26 20:49:01 2020.
