 Gaussian 09, Revision D.01,
 Gaussian 09:  ES64L-G09RevD.01 24-Apr-2013

 --------------------
 #p B2PLYPD3/Def2QZVP
 --------------------

 --------
 acrolein
 --------
 Symbolic Z-matrix:
 Charge =  0 Multiplicity = 1

                         Standard orientation:
 ---------------------------------------------------------------------
 Center     Atomic      Atomic             Coordinates (Angstroms)
 Number     Number       Type             X           Y           Z
 ---------------------------------------------------------------------
      1          6           0       -0.712476    0.387756    0.031179
      2          8           0       -1.757121   -0.167680   -0.072370
      3          6           0        0.573006   -0.428396    0.062568
      4          6           0        1.761887    0.141203   -0.044717
      5          1           0        0.426783   -1.486569    0.215817
      6          1           0        1.838623    1.122713   -0.153384
      7          1           0        2.681404   -0.442009   -0.090051
      8          1           0       -0.624344    1.543927    0.312396
 ---------------------------------------------------------------------

 SCF Done:  E(RB2PLYPD3) =  -191.602527624     A.U. after   12 cycles
 E2(B2PLYPD3) =    -0.2462415800D+00 E(B2PLYPD3) =    -0.19184876920364D+03

 The electronic state is 1-A.
 Alpha  occ. eigenvalues --  -19.73367 -10.72652 -10.64245 -10.63645  -1.21412
 Alpha  occ. eigenvalues --   -0.92360  -0.74469  -0.66350  -0.56936  -0.56287
 Alpha  occ. eigenvalues --   -0.51314  -0.47841  -0.46649  -0.34655  -0.33465
 Alpha virt. eigenvalues --   -0.00815   0.06021   0.06611   0.08082   0.09819
 Alpha virt. eigenvalues --    0.12461   0.13801   0.15358   0.17546   0.19210
 Alpha virt. eigenvalues --    0.20442   0.21696   0.25030   0.26732   0.28569

 Mulliken charges:
               1
     1  C    0.157723
     2  O   -0.321201
     3  C   -0.059222
     4  C   -0.136070
     5  H    0.109299
     6  H    0.087184
     7  H    0.096377
     8  H    0.065909
 Sum of Mulliken charges =   0.00000

 Dipole moment (field-independent basis, Debye):
    X=              2.9994    Y=              0.8500    Z=              0.2473  Tot=              3.1273
 Quadrupole moment (field-independent basis, Debye-Ang):
   XX=            -27.1315   YY=            -21.8832   ZZ=            -25.1264
   XY=             -1.1508   XZ=             -0.7210   YZ=             -0.2844

 Normal termination of Gaussian 09 at Wed Aug 26 13:13:01 2020.
