 Gaussian 09, Revision D.01,
 Gaussian 09:  ES64L-G09RevD.01 24-Apr-2013

 --------------------
 #p B2PLYPD3/Def2QZVP
 --------------------

 --------
 acrolein
 --------
 Symbolic Z-matrix:
 Charge =  0 Multiplicity = 1

                         Standard orientation:
 ---------------------------------------------------------------------
 Center     Atomic      Atomic             Coordinates (Angstroms)
 Number     Number       Type             X           Y           Z
 ---------------------------------------------------------------------
      1          6           0       -0.672135    0.348405   -0.015305
      2          8           0       -1.791807   -0.128279    0.020028
      3          6           0        0.561106   -0.435648   -0.040116
      4          6           0        1.751851    0.136796    0.005879
      5          1           0        0.447398   -1.480550    0.035481
      6          1           0        1.820496    1.173375    0.041251
      7          1           0        2.701328   -0.434350    0.074370
      8          1           0       -0.479701    1.470447   -0.014082
 ---------------------------------------------------------------------

 SCF Done:  E(RB2PLYPD3) =  -191.612996479     A.U. after   12 cycles
 E2(B2PLYPD3) =    -0.2473812754D+00 E(B2PLYPD3) =    -0.19186037775432D+03

 The electronic state is 1-A.
 Alpha  occ. eigenvalues --  -19.73059 -10.72026 -10.65231 -10.63889  -1.19245
 Alpha  occ. eigenvalues --   -0.93586  -0.75663  -0.67221  -0.56624  -0.56419
 Alpha  occ. eigenvalues --   -0.50618  -0.47169  -0.46668  -0.34931  -0.33917
 Alpha virt. eigenvalues --   -0.01897   0.05731   0.07185   0.08244   0.09812
 Alpha virt. eigenvalues --    0.12601   0.13766   0.15311   0.17628   0.19846
 Alpha virt. eigenvalues --    0.20081   0.21509   0.25466   0.26403   0.28744

 Mulliken charges:
               1
     1  C    0.154570
     2  O   -0.350379
     3  C   -0.028556
     4  C   -0.128338
     5  H    0.105846
     6  H    0.084908
     7  H    0.100249
     8  H    0.061701
 Sum of Mulliken charges =   0.00000

 Dipole moment (field-independent basis, Debye):
    X=              3.5357    Y=              0.7423    Z=              0.0672  Tot=              3.6134
 Quadrupole moment (field-independent basis, Debye-Ang):
   XX=            -27.3287   YY=            -21.9501   ZZ=            -25.1398
   XY=             -0.9174   XZ=              0.3740   YZ=             -0.0679

 Normal termination of Gaussian 09 at Wed Aug 26 15:29:50 2020.
