 Gaussian 09, Revision D.01,
 Gaussian 09:  ES64L-G09RevD.01 24-Apr-2013

 --------------------
 #p B2PLYPD3/Def2QZVP
 --------------------

 --------
 acrolein
 --------
 Symbolic Z-matrix:
 Charge =  0 Multiplicity = 1

                         Standard orientation:
 ---------------------------------------------------------------------
 Center     Atomic      Atomic             Coordinates (Angstroms)
 Number     Number       Type             X           Y           Z
 ---------------------------------------------------------------------
      1          6           0        0.671972    0.354952    0.037860
      2          8           0        1.793698   -0.138815   -0.037962
      3          6           0       -0.568425   -0.440925    0.010711
      4          6           0       -1.743817    0.143479   -0.035274
      5          1           0       -0.507584   -1.527873    0.136447
      6          1           0       -1.781175    1.195881   -0.042820
      7          1           0       -2.686417   -0.443940    0.002640
      8          1           0        0.467216    1.541418    0.127652
 ---------------------------------------------------------------------

 SCF Done:  E(RB2PLYPD3) =  -191.606802163     A.U. after   13 cycles
 E2(B2PLYPD3) =    -0.2488401038D+00 E(B2PLYPD3) =    -0.19185564226634D+03

 The electronic state is 1-A.
 Alpha  occ. eigenvalues --  -19.73391 -10.73126 -10.65099 -10.64357  -1.18823
 Alpha  occ. eigenvalues --   -0.93578  -0.74957  -0.66084  -0.56420  -0.55800
 Alpha  occ. eigenvalues --   -0.50260  -0.47053  -0.46086  -0.35063  -0.33959
 Alpha virt. eigenvalues --   -0.01809   0.05716   0.06526   0.08009   0.09791
 Alpha virt. eigenvalues --    0.12490   0.13592   0.15152   0.17278   0.19746
 Alpha virt. eigenvalues --    0.20162   0.21384   0.25325   0.26387   0.28837

 Mulliken charges:
               1
     1  C    0.156417
     2  O   -0.345817
     3  C   -0.024654
     4  C   -0.126537
     5  H    0.099957
     6  H    0.083686
     7  H    0.101654
     8  H    0.055294
 Sum of Mulliken charges =   0.00000

 Dipole moment (field-independent basis, Debye):
    X=             -3.5061    Y=              0.7119    Z=              0.2529  Tot=              3.5865
 Quadrupole moment (field-independent basis, Debye-Ang):
   XX=            -27.5511   YY=            -21.8902   ZZ=            -25.2875
   XY=              1.0921   XZ=              0.1357   YZ=             -0.1884

 Normal termination of Gaussian 09 at Wed Aug 26 08:40:33 2020.
