 Gaussian 09, Revision D.01,
 Gaussian 09:  ES64L-G09RevD.01 24-Apr-2013

 --------------------
 #p B2PLYPD3/Def2QZVP
 --------------------

 --------
 acrolein
 --------
 Symbolic Z-matrix:
 Charge =  0 Multiplicity = 1

                         Standard orientation:
 ---------------------------------------------------------------------
 Center     Atomic      Atomic             Coordinates (Angstroms)
 Number     Number       Type             X           Y           Z
 ---------------------------------------------------------------------
      1          6           0        0.678292    0.376930    0.030008
      2          8           0        1.751953   -0.157184   -0.032748
      3          6           0       -0.525296   -0.426063   -0.006318
      4          6           0       -1.758503    0.107185   -0.014760
      5          1           0       -0.447705   -1.420637    0.176672
      6          1           0       -1.784831    1.243492   -0.040987
      7          1           0       -2.712574   -0.436443   -0.038549
      8          1           0        0.562527    1.522749    0.111263
 ---------------------------------------------------------------------

 SCF Done:  E(RB2PLYPD3) =  -191.604927678     A.U. after   13 cycles
 E2(B2PLYPD3) =    -0.2474558741D+00 E(B2PLYPD3) =    -0.19185238355198D+03

 The electronic state is 1-A.
 Alpha  occ. eigenvalues --  -19.72803 -10.71844 -10.66121 -10.63439  -1.20365
 Alpha  occ. eigenvalues --   -0.92804  -0.74963  -0.67060  -0.56641  -0.56353
 Alpha  occ. eigenvalues --   -0.50755  -0.47570  -0.45808  -0.34352  -0.33917
 Alpha virt. eigenvalues --   -0.01770   0.05682   0.07156   0.08133   0.09797
 Alpha virt. eigenvalues --    0.12057   0.13776   0.15169   0.18160   0.19392
 Alpha virt. eigenvalues --    0.19796   0.21211   0.25251   0.26481   0.29653

 Mulliken charges:
               1
     1  C    0.153975
     2  O   -0.338241
     3  C   -0.045662
     4  C   -0.125216
     5  H    0.112116
     6  H    0.066840
     7  H    0.106547
     8  H    0.069640
 Sum of Mulliken charges =   0.00000

 Dipole moment (field-independent basis, Debye):
    X=             -3.3289    Y=              0.8009    Z=              0.2406  Tot=              3.4323
 Quadrupole moment (field-independent basis, Debye-Ang):
   XX=            -27.0451   YY=            -21.9614   ZZ=            -25.2135
   XY=              1.4471   XZ=              0.1959   YZ=             -0.2206

 Normal termination of Gaussian 09 at Wed Aug 26 13:08:26 2020.
