 Gaussian 09, Revision D.01,
 Gaussian 09:  ES64L-G09RevD.01 24-Apr-2013

 --------------------
 #p B2PLYPD3/Def2QZVP
 --------------------

 --------
 acrolein
 --------
 Symbolic Z-matrix:
 Charge =  0 Multiplicity = 1

                         Standard orientation:
 ---------------------------------------------------------------------
 Center     Atomic      Atomic             Coordinates (Angstroms)
 Number     Number       Type             X           Y           Z
 ---------------------------------------------------------------------
      1          6           0        0.676825    0.373963    0.006048
      2          8           0        1.772911   -0.142618   -0.014500
      3          6           0       -0.553386   -0.441840   -0.012724
      4          6           0       -1.737998    0.137464    0.005677
      5          1           0       -0.487650   -1.471310    0.102267
      6          1           0       -1.786916    1.172691   -0.079592
      7          1           0       -2.719445   -0.416326   -0.017476
      8          1           0        0.498076    1.438369    0.116798
 ---------------------------------------------------------------------

 SCF Done:  E(RB2PLYPD3) =  -191.610681245     A.U. after   12 cycles
 E2(B2PLYPD3) =    -0.2466400097D+00 E(B2PLYPD3) =    -0.19185732125478D+03

 The electronic state is 1-A.
 Alpha  occ. eigenvalues --  -19.72914 -10.71630 -10.64854 -10.63444  -1.19574
 Alpha  occ. eigenvalues --   -0.93347  -0.75142  -0.68138  -0.57083  -0.56107
 Alpha  occ. eigenvalues --   -0.50726  -0.47127  -0.46509  -0.34797  -0.33976
 Alpha virt. eigenvalues --   -0.01429   0.05781   0.07274   0.07886   0.09783
 Alpha virt. eigenvalues --    0.12611   0.14029   0.15213   0.17947   0.19580
 Alpha virt. eigenvalues --    0.20290   0.21344   0.25148   0.26821   0.28891

 Mulliken charges:
               1
     1  C    0.147990
     2  O   -0.346434
     3  C   -0.042444
     4  C   -0.127577
     5  H    0.110757
     6  H    0.077404
     7  H    0.094172
     8  H    0.086131
 Sum of Mulliken charges =   0.00000

 Dipole moment (field-independent basis, Debye):
    X=             -3.3661    Y=              0.8858    Z=              0.0929  Tot=              3.4819
 Quadrupole moment (field-independent basis, Debye-Ang):
   XX=            -27.4334   YY=            -21.7402   ZZ=            -25.0756
   XY=              1.1546   XZ=              0.1802   YZ=             -0.1827

 Normal termination of Gaussian 09 at Wed Aug 26 10:22:15 2020.
