 Gaussian 09, Revision D.01,
 Gaussian 09:  ES64L-G09RevD.01 24-Apr-2013

 --------------------
 #p B2PLYPD3/Def2QZVP
 --------------------

 --------
 acrolein
 --------
 Symbolic Z-matrix:
 Charge =  0 Multiplicity = 1

                         Standard orientation:
 ---------------------------------------------------------------------
 Center     Atomic      Atomic             Coordinates (Angstroms)
 Number     Number       Type             X           Y           Z
 ---------------------------------------------------------------------
      1          6           0       -0.670652    0.358577    0.000098
      2          8           0       -1.783353   -0.125820    0.013204
      3          6           0        0.562466   -0.446247   -0.026186
      4          6           0        1.755363    0.139156    0.005243
      5          1           0        0.423299   -1.535626   -0.016772
      6          1           0        1.843069    1.192258    0.006769
      7          1           0        2.634315   -0.419221    0.073549
      8          1           0       -0.516920    1.460234   -0.044104
 ---------------------------------------------------------------------

 SCF Done:  E(RB2PLYPD3) =  -191.615567430     A.U. after   12 cycles
 E2(B2PLYPD3) =    -0.2469807906D+00 E(B2PLYPD3) =    -0.19186254822043D+03

 The electronic state is 1-A.
 Alpha  occ. eigenvalues --  -19.72835 -10.71681 -10.64698 -10.64451  -1.19358
 Alpha  occ. eigenvalues --   -0.93131  -0.75773  -0.66891  -0.56788  -0.56642
 Alpha  occ. eigenvalues --   -0.50670  -0.47141  -0.46648  -0.34705  -0.33830
 Alpha virt. eigenvalues --   -0.01703   0.05847   0.07174   0.08124   0.09799
 Alpha virt. eigenvalues --    0.12667   0.14041   0.15360   0.17280   0.19862
 Alpha virt. eigenvalues --    0.20029   0.21966   0.25504   0.26414   0.28675

 Mulliken charges:
               1
     1  C    0.156760
     2  O   -0.350172
     3  C   -0.038950
     4  C   -0.131754
     5  H    0.104266
     6  H    0.085346
     7  H    0.103270
     8  H    0.071234
 Sum of Mulliken charges =   0.00000

 Dipole moment (field-independent basis, Debye):
    X=              3.4707    Y=              0.7874    Z=              0.0126  Tot=              3.5589
 Quadrupole moment (field-independent basis, Debye-Ang):
   XX=            -27.4493   YY=            -21.6905   ZZ=            -25.1624
   XY=             -0.9015   XZ=              0.2620   YZ=             -0.0426

 Normal termination of Gaussian 09 at Wed Aug 26 09:03:11 2020.
