 Gaussian 09, Revision D.01,
 Gaussian 09:  ES64L-G09RevD.01 24-Apr-2013

 --------------------
 #p B2PLYPD3/Def2QZVP
 --------------------

 --------
 acrolein
 --------
 Symbolic Z-matrix:
 Charge =  0 Multiplicity = 1

                         Standard orientation:
 ---------------------------------------------------------------------
 Center     Atomic      Atomic             Coordinates (Angstroms)
 Number     Number       Type             X           Y           Z
 ---------------------------------------------------------------------
      1          6           0       -0.654765    0.335498   -0.039740
      2          8           0       -1.795497   -0.101641    0.030214
      3          6           0        0.570351   -0.478852   -0.004730
      4          6           0        1.750986    0.144609    0.001203
      5          1           0        0.421787   -1.563417   -0.043010
      6          1           0        1.849810    1.323608    0.102057
      7          1           0        2.614665   -0.403678    0.028470
      8          1           0       -0.521719    1.449081   -0.069632
 ---------------------------------------------------------------------

 SCF Done:  E(RB2PLYPD3) =  -191.605533440     A.U. after   12 cycles
 E2(B2PLYPD3) =    -0.2483973620D+00 E(B2PLYPD3) =    -0.19185393080189D+03

 The electronic state is 1-A.
 Alpha  occ. eigenvalues --  -19.72662 -10.71707 -10.66101 -10.64951  -1.18610
 Alpha  occ. eigenvalues --   -0.93058  -0.75479  -0.66279  -0.56929  -0.55423
 Alpha  occ. eigenvalues --   -0.50272  -0.46634  -0.46256  -0.34763  -0.33663
 Alpha virt. eigenvalues --   -0.01901   0.05496   0.06990   0.07906   0.09629
 Alpha virt. eigenvalues --    0.12335   0.13973   0.15206   0.17251   0.19292
 Alpha virt. eigenvalues --    0.20019   0.21791   0.25038   0.26460   0.28819

 Mulliken charges:
               1
     1  C    0.162073
     2  O   -0.355827
     3  C   -0.046307
     4  C   -0.122074
     5  H    0.106507
     6  H    0.083838
     7  H    0.106004
     8  H    0.065787
 Sum of Mulliken charges =   0.00000

 Dipole moment (field-independent basis, Debye):
    X=              3.5956    Y=              0.6468    Z=             -0.0671  Tot=              3.6539
 Quadrupole moment (field-independent basis, Debye-Ang):
   XX=            -27.7468   YY=            -21.5475   ZZ=            -25.3276
   XY=             -0.7811   XZ=              0.3529   YZ=              0.1639

 Normal termination of Gaussian 09 at Wed Aug 26 09:16:44 2020.
