 Gaussian 09, Revision D.01,
 Gaussian 09:  ES64L-G09RevD.01 24-Apr-2013

 --------------------
 #p B2PLYPD3/Def2QZVP
 --------------------

 --------
 acrolein
 --------
 Symbolic Z-matrix:
 Charge =  0 Multiplicity = 1

                         Standard orientation:
 ---------------------------------------------------------------------
 Center     Atomic      Atomic             Coordinates (Angstroms)
 Number     Number       Type             X           Y           Z
 ---------------------------------------------------------------------
      1          6           0        0.686501    0.364858   -0.015304
      2          8           0        1.778636   -0.135610    0.021213
      3          6           0       -0.553018   -0.445372   -0.038090
      4          6           0       -1.754368    0.141902    0.008104
      5          1           0       -0.479110   -1.506368    0.019603
      6          1           0       -1.826070    1.217303    0.034857
      7          1           0       -2.726432   -0.434201    0.071275
      8          1           0        0.527834    1.439819   -0.023700
 ---------------------------------------------------------------------

 SCF Done:  E(RB2PLYPD3) =  -191.614533457     A.U. after   12 cycles
 E2(B2PLYPD3) =    -0.2468202699D+00 E(B2PLYPD3) =    -0.19186135372685D+03

 The electronic state is 1-A.
 Alpha  occ. eigenvalues --  -19.72847 -10.71512 -10.65716 -10.64123  -1.20135
 Alpha  occ. eigenvalues --   -0.92562  -0.74863  -0.67489  -0.56784  -0.55942
 Alpha  occ. eigenvalues --   -0.50579  -0.47082  -0.46610  -0.34480  -0.33939
 Alpha virt. eigenvalues --   -0.01499   0.05686   0.07246   0.08066   0.09715
 Alpha virt. eigenvalues --    0.12448   0.14010   0.15418   0.17813   0.19734
 Alpha virt. eigenvalues --    0.19921   0.21230   0.25440   0.26395   0.28800

 Mulliken charges:
               1
     1  C    0.152411
     2  O   -0.341822
     3  C   -0.045907
     4  C   -0.131835
     5  H    0.108341
     6  H    0.080434
     7  H    0.097447
     8  H    0.080931
 Sum of Mulliken charges =   0.00000

 Dipole moment (field-independent basis, Debye):
    X=             -3.3448    Y=              0.8461    Z=              0.0396  Tot=              3.4504
 Quadrupole moment (field-independent basis, Debye-Ang):
   XX=            -27.3858   YY=            -21.7148   ZZ=            -25.2434
   XY=              1.1167   XZ=             -0.3585   YZ=             -0.0575

 Normal termination of Gaussian 09 at Wed Aug 26 15:18:48 2020.
