 Gaussian 09, Revision D.01,
 Gaussian 09:  ES64L-G09RevD.01 24-Apr-2013

 --------------------
 #p B2PLYPD3/Def2QZVP
 --------------------

 --------
 acrolein
 --------
 Symbolic Z-matrix:
 Charge =  0 Multiplicity = 1

                         Standard orientation:
 ---------------------------------------------------------------------
 Center     Atomic      Atomic             Coordinates (Angstroms)
 Number     Number       Type             X           Y           Z
 ---------------------------------------------------------------------
      1          6           0        0.679027    0.361062   -0.030648
      2          8           0        1.770955   -0.132795    0.035947
      3          6           0       -0.557159   -0.455854   -0.041358
      4          6           0       -1.749682    0.149211    0.005042
      5          1           0       -0.486919   -1.522929   -0.048602
      6          1           0       -1.782352    1.189545    0.005382
      7          1           0       -2.691508   -0.379127    0.175913
      8          1           0        0.560029    1.448354   -0.018487
 ---------------------------------------------------------------------

 SCF Done:  E(RB2PLYPD3) =  -191.614535552     A.U. after   12 cycles
 E2(B2PLYPD3) =    -0.2463999444D+00 E(B2PLYPD3) =    -0.19186093549659D+03

 The electronic state is 1-A.
 Alpha  occ. eigenvalues --  -19.72678 -10.71456 -10.64878 -10.64252  -1.20162
 Alpha  occ. eigenvalues --   -0.92760  -0.75014  -0.67617  -0.57145  -0.56216
 Alpha  occ. eigenvalues --   -0.50550  -0.47395  -0.46916  -0.34429  -0.33820
 Alpha virt. eigenvalues --   -0.01421   0.05860   0.07281   0.08001   0.09760
 Alpha virt. eigenvalues --    0.12589   0.14288   0.15401   0.17580   0.19659
 Alpha virt. eigenvalues --    0.20108   0.21631   0.25296   0.26326   0.29029

 Mulliken charges:
               1
     1  C    0.147104
     2  O   -0.340971
     3  C   -0.042778
     4  C   -0.131501
     5  H    0.108500
     6  H    0.081460
     7  H    0.098249
     8  H    0.079937
 Sum of Mulliken charges =   0.00000

 Dipole moment (field-independent basis, Debye):
    X=             -3.3332    Y=              0.8306    Z=             -0.0028  Tot=              3.4352
 Quadrupole moment (field-independent basis, Debye-Ang):
   XX=            -27.3860   YY=            -21.6677   ZZ=            -25.1437
   XY=              1.1343   XZ=             -0.6047   YZ=             -0.0363

 Normal termination of Gaussian 09 at Wed Aug 26 08:37:40 2020.
