 Gaussian 09, Revision D.01,
 Gaussian 09:  ES64L-G09RevD.01 24-Apr-2013

 --------------------
 #p B2PLYPD3/Def2QZVP
 --------------------

 --------
 acrolein
 --------
 Symbolic Z-matrix:
 Charge =  0 Multiplicity = 1

                         Standard orientation:
 ---------------------------------------------------------------------
 Center     Atomic      Atomic             Coordinates (Angstroms)
 Number     Number       Type             X           Y           Z
 ---------------------------------------------------------------------
      1          6           0        0.675129    0.381252    0.029224
      2          8           0        1.775727   -0.157815   -0.065890
      3          6           0       -0.574317   -0.388021    0.083818
      4          6           0       -1.742787    0.124378   -0.086510
      5          1           0       -0.366369   -1.572729    0.195313
      6          1           0       -1.771246    1.098564    0.040420
      7          1           0       -2.709081   -0.475552   -0.087414
      8          1           0        0.492734    1.506590    0.219609
 ---------------------------------------------------------------------

 SCF Done:  E(RB2PLYPD3) =  -191.585923302     A.U. after   13 cycles
 E2(B2PLYPD3) =    -0.2487878053D+00 E(B2PLYPD3) =    -0.19183471110751D+03

 The electronic state is 1-A.
 Alpha  occ. eigenvalues --  -19.73549 -10.72779 -10.64839 -10.64143  -1.18912
 Alpha  occ. eigenvalues --   -0.94285  -0.75774  -0.65730  -0.56697  -0.56197
 Alpha  occ. eigenvalues --   -0.50968  -0.47003  -0.44237  -0.35437  -0.34121
 Alpha virt. eigenvalues --   -0.01848   0.05748   0.06235   0.08153   0.09926
 Alpha virt. eigenvalues --    0.12403   0.13710   0.15138   0.16520   0.19460
 Alpha virt. eigenvalues --    0.20689   0.21746   0.24845   0.26419   0.28564

 Mulliken charges:
               1
     1  C    0.166994
     2  O   -0.347695
     3  C   -0.025439
     4  C   -0.125084
     5  H    0.086008
     6  H    0.081010
     7  H    0.102466
     8  H    0.061740
 Sum of Mulliken charges =   0.00000

 Dipole moment (field-independent basis, Debye):
    X=             -3.3704    Y=              0.9026    Z=              0.3701  Tot=              3.5087
 Quadrupole moment (field-independent basis, Debye-Ang):
   XX=            -27.3825   YY=            -22.1071   ZZ=            -25.1545
   XY=              1.1134   XZ=              0.3656   YZ=              0.0162

 Normal termination of Gaussian 09 at Wed Aug 26 13:13:33 2020.
