 Gaussian 09, Revision D.01,
 Gaussian 09:  ES64L-G09RevD.01 24-Apr-2013

 --------------------
 #p B2PLYPD3/Def2QZVP
 --------------------

 --------
 acrolein
 --------
 Symbolic Z-matrix:
 Charge =  0 Multiplicity = 1

                         Standard orientation:
 ---------------------------------------------------------------------
 Center     Atomic      Atomic             Coordinates (Angstroms)
 Number     Number       Type             X           Y           Z
 ---------------------------------------------------------------------
      1          6           0        0.675014    0.352675    0.015023
      2          8           0        1.787668   -0.133662   -0.021932
      3          6           0       -0.565564   -0.434279    0.022713
      4          6           0       -1.751846    0.134260   -0.019581
      5          1           0       -0.486473   -1.491054    0.037600
      6          1           0       -1.809771    1.195480   -0.038074
      7          1           0       -2.663445   -0.415944   -0.012312
      8          1           0        0.512716    1.464880    0.079307
 ---------------------------------------------------------------------

 SCF Done:  E(RB2PLYPD3) =  -191.615902336     A.U. after   12 cycles
 E2(B2PLYPD3) =    -0.2468387469D+00 E(B2PLYPD3) =    -0.19186274108279D+03

 The electronic state is 1-A.
 Alpha  occ. eigenvalues --  -19.73003 -10.71957 -10.64719 -10.63818  -1.19384
 Alpha  occ. eigenvalues --   -0.93549  -0.75617  -0.67144  -0.56928  -0.56549
 Alpha  occ. eigenvalues --   -0.50831  -0.47012  -0.46683  -0.34955  -0.33958
 Alpha virt. eigenvalues --   -0.01665   0.05836   0.07195   0.08278   0.09787
 Alpha virt. eigenvalues --    0.12638   0.14015   0.15379   0.17562   0.19732
 Alpha virt. eigenvalues --    0.20085   0.21654   0.25672   0.26341   0.28845

 Mulliken charges:
               1
     1  C    0.152811
     2  O   -0.347287
     3  C   -0.032401
     4  C   -0.128854
     5  H    0.103341
     6  H    0.079993
     7  H    0.103039
     8  H    0.069359
 Sum of Mulliken charges =   0.00000

 Dipole moment (field-independent basis, Debye):
    X=             -3.4797    Y=              0.7674    Z=              0.0815  Tot=              3.5643
 Quadrupole moment (field-independent basis, Debye-Ang):
   XX=            -27.3480   YY=            -21.8480   ZZ=            -25.1091
   XY=              1.0957   XZ=              0.1775   YZ=             -0.0434

 Normal termination of Gaussian 09 at Wed Aug 26 14:32:37 2020.
