 Gaussian 09, Revision D.01,
 Gaussian 09:  ES64L-G09RevD.01 24-Apr-2013

 --------------------
 #p B2PLYPD3/Def2QZVP
 --------------------

 --------
 acrolein
 --------
 Symbolic Z-matrix:
 Charge =  0 Multiplicity = 1

                         Standard orientation:
 ---------------------------------------------------------------------
 Center     Atomic      Atomic             Coordinates (Angstroms)
 Number     Number       Type             X           Y           Z
 ---------------------------------------------------------------------
      1          6           0       -0.694896    0.349858    0.067595
      2          8           0       -1.777850   -0.128994   -0.063170
      3          6           0        0.527016   -0.443605    0.086253
      4          6           0        1.780368    0.130823   -0.069308
      5          1           0        0.496555   -1.435059   -0.022157
      6          1           0        1.799100    1.232976   -0.052832
      7          1           0        2.731755   -0.433250   -0.002454
      8          1           0       -0.479535    1.444827    0.075563
 ---------------------------------------------------------------------

 SCF Done:  E(RB2PLYPD3) =  -191.601412939     A.U. after   13 cycles
 E2(B2PLYPD3) =    -0.2478664685D+00 E(B2PLYPD3) =    -0.19184927940758D+03

 The electronic state is 1-A.
 Alpha  occ. eigenvalues --  -19.72980 -10.71568 -10.66634 -10.63848  -1.20902
 Alpha  occ. eigenvalues --   -0.92153  -0.75318  -0.67860  -0.56557  -0.56211
 Alpha  occ. eigenvalues --   -0.50695  -0.47561  -0.47034  -0.34337  -0.33469
 Alpha virt. eigenvalues --   -0.02426   0.05682   0.07466   0.08143   0.09813
 Alpha virt. eigenvalues --    0.12423   0.13708   0.15396   0.18301   0.19358
 Alpha virt. eigenvalues --    0.19771   0.21181   0.24640   0.26391   0.29064

 Mulliken charges:
               1
     1  C    0.151886
     2  O   -0.333686
     3  C   -0.041872
     4  C   -0.130819
     5  H    0.111187
     6  H    0.072731
     7  H    0.104760
     8  H    0.065813
 Sum of Mulliken charges =   0.00000

 Dipole moment (field-independent basis, Debye):
    X=              3.3776    Y=              0.7188    Z=              0.1605  Tot=              3.4570
 Quadrupole moment (field-independent basis, Debye-Ang):
   XX=            -27.0241   YY=            -22.0286   ZZ=            -25.3057
   XY=             -1.1769   XZ=             -0.4230   YZ=              0.0458

 Normal termination of Gaussian 09 at Wed Aug 26 10:58:33 2020.
