 Gaussian 09, Revision D.01,
 Gaussian 09:  ES64L-G09RevD.01 24-Apr-2013

 --------------------
 #p B2PLYPD3/Def2QZVP
 --------------------

 --------
 acrolein
 --------
 Symbolic Z-matrix:
 Charge =  0 Multiplicity = 1

                         Standard orientation:
 ---------------------------------------------------------------------
 Center     Atomic      Atomic             Coordinates (Angstroms)
 Number     Number       Type             X           Y           Z
 ---------------------------------------------------------------------
      1          6           0        0.683804    0.359475   -0.014846
      2          8           0        1.779432   -0.130897    0.015734
      3          6           0       -0.547914   -0.438776   -0.024973
      4          6           0       -1.762463    0.142148    0.003254
      5          1           0       -0.423671   -1.520507    0.027925
      6          1           0       -1.843304    1.176713    0.056676
      7          1           0       -2.742505   -0.437490    0.030281
      8          1           0        0.533465    1.451379   -0.021364
 ---------------------------------------------------------------------

 SCF Done:  E(RB2PLYPD3) =  -191.613085833     A.U. after   12 cycles
 E2(B2PLYPD3) =    -0.2469983924D+00 E(B2PLYPD3) =    -0.19186008422513D+03

 The electronic state is 1-A.
 Alpha  occ. eigenvalues --  -19.72809 -10.71447 -10.65722 -10.64532  -1.20191
 Alpha  occ. eigenvalues --   -0.92548  -0.75299  -0.67179  -0.56978  -0.55846
 Alpha  occ. eigenvalues --   -0.50486  -0.47202  -0.46709  -0.34408  -0.33873
 Alpha virt. eigenvalues --   -0.01782   0.05690   0.07192   0.08242   0.09758
 Alpha virt. eigenvalues --    0.12440   0.13985   0.15421   0.17548   0.19832
 Alpha virt. eigenvalues --    0.20044   0.21360   0.25489   0.26321   0.28784

 Mulliken charges:
               1
     1  C    0.153941
     2  O   -0.343252
     3  C   -0.040455
     4  C   -0.134801
     5  H    0.106763
     6  H    0.086809
     7  H    0.098743
     8  H    0.072251
 Sum of Mulliken charges =   0.00000

 Dipole moment (field-independent basis, Debye):
    X=             -3.3926    Y=              0.8227    Z=              0.0431  Tot=              3.4912
 Quadrupole moment (field-independent basis, Debye-Ang):
   XX=            -27.2367   YY=            -21.8185   ZZ=            -25.2559
   XY=              0.9585   XZ=             -0.2644   YZ=             -0.0092

 Normal termination of Gaussian 09 at Wed Aug 26 18:56:01 2020.
