 Gaussian 09, Revision D.01,
 Gaussian 09:  ES64L-G09RevD.01 24-Apr-2013

 --------------------
 #p B2PLYPD3/Def2QZVP
 --------------------

 --------
 acrolein
 --------
 Symbolic Z-matrix:
 Charge =  0 Multiplicity = 1

                         Standard orientation:
 ---------------------------------------------------------------------
 Center     Atomic      Atomic             Coordinates (Angstroms)
 Number     Number       Type             X           Y           Z
 ---------------------------------------------------------------------
      1          6           0       -0.645702    0.295858   -0.000491
      2          8           0       -1.819529   -0.070624    0.036517
      3          6           0        0.595278   -0.469259   -0.077427
      4          6           0        1.748371    0.160308    0.011864
      5          1           0        0.381216   -1.627140   -0.049198
      6          1           0        1.914912    1.308540   -0.013462
      7          1           0        2.514677   -0.455663    0.270567
      8          1           0       -0.442254    1.417816   -0.103720
 ---------------------------------------------------------------------

 SCF Done:  E(RB2PLYPD3) =  -191.590614824     A.U. after   14 cycles
 E2(B2PLYPD3) =    -0.2495121673D+00 E(B2PLYPD3) =    -0.19184012699150D+03

 The electronic state is 1-A.
 Alpha  occ. eigenvalues --  -19.72926 -10.71891 -10.66023 -10.65647  -1.18199
 Alpha  occ. eigenvalues --   -0.94093  -0.76292  -0.64957  -0.56888  -0.55461
 Alpha  occ. eigenvalues --   -0.50098  -0.46869  -0.45798  -0.35241  -0.33258
 Alpha virt. eigenvalues --   -0.02333   0.05503   0.06500   0.08142   0.09595
 Alpha virt. eigenvalues --    0.12377   0.13670   0.15130   0.16800   0.19317
 Alpha virt. eigenvalues --    0.19723   0.22139   0.24619   0.26508   0.27722

 Mulliken charges:
               1
     1  C    0.167308
     2  O   -0.357523
     3  C   -0.032854
     4  C   -0.116263
     5  H    0.092942
     6  H    0.098440
     7  H    0.107017
     8  H    0.040931
 Sum of Mulliken charges =   0.00000

 Dipole moment (field-independent basis, Debye):
    X=              3.7598    Y=              0.5152    Z=              0.0609  Tot=              3.7955
 Quadrupole moment (field-independent basis, Debye-Ang):
   XX=            -28.0248   YY=            -21.7707   ZZ=            -25.2336
   XY=             -0.1735   XZ=              0.7886   YZ=             -0.1897

 Normal termination of Gaussian 09 at Wed Aug 26 11:49:45 2020.
