 Gaussian 09, Revision D.01,
 Gaussian 09:  ES64L-G09RevD.01 24-Apr-2013

 --------------------
 #p B2PLYPD3/Def2QZVP
 --------------------

 --------
 acrolein
 --------
 Symbolic Z-matrix:
 Charge =  0 Multiplicity = 1

                         Standard orientation:
 ---------------------------------------------------------------------
 Center     Atomic      Atomic             Coordinates (Angstroms)
 Number     Number       Type             X           Y           Z
 ---------------------------------------------------------------------
      1          6           0        0.667613   -0.314476    0.001381
      2          8           0        1.796540    0.076330   -0.028573
      3          6           0       -0.562670    0.455108    0.070687
      4          6           0       -1.771027   -0.149536   -0.061299
      5          1           0       -0.419533    1.632988    0.039052
      6          1           0       -1.866302   -1.381457    0.124299
      7          1           0       -2.672350    0.403114   -0.073860
      8          1           0        0.582370   -1.211857    0.074473
 ---------------------------------------------------------------------

 SCF Done:  E(RB2PLYPD3) =  -191.556084471     A.U. after   13 cycles
 E2(B2PLYPD3) =    -0.2475313758D+00 E(B2PLYPD3) =    -0.19180361584715D+03

 The electronic state is 1-A.
 Alpha  occ. eigenvalues --  -19.72170 -10.68766 -10.67519 -10.65795  -1.20245
 Alpha  occ. eigenvalues --   -0.92496  -0.76930  -0.68474  -0.56713  -0.55298
 Alpha  occ. eigenvalues --   -0.50902  -0.47069  -0.44808  -0.34512  -0.33799
 Alpha virt. eigenvalues --   -0.02252   0.05155   0.06716   0.08398   0.09453
 Alpha virt. eigenvalues --    0.12311   0.14027   0.15300   0.17289   0.19007
 Alpha virt. eigenvalues --    0.19880   0.21501   0.24193   0.27414   0.28505

 Mulliken charges:
               1
     1  C    0.175085
     2  O   -0.351468
     3  C   -0.045476
     4  C   -0.126912
     5  H    0.089213
     6  H    0.074927
     7  H    0.110143
     8  H    0.074487
 Sum of Mulliken charges =   0.00000

 Dipole moment (field-independent basis, Debye):
    X=             -3.5553    Y=             -0.7014    Z=              0.1588  Tot=              3.6273
 Quadrupole moment (field-independent basis, Debye-Ang):
   XX=            -27.5121   YY=            -21.6662   ZZ=            -25.2426
   XY=             -0.8485   XZ=              0.1590   YZ=             -0.2325

 Normal termination of Gaussian 09 at Wed Aug 26 11:28:23 2020.
