 Gaussian 09, Revision D.01,
 Gaussian 09:  ES64L-G09RevD.01 24-Apr-2013

 --------------------
 #p B2PLYPD3/Def2QZVP
 --------------------

 --------
 acrolein
 --------
 Symbolic Z-matrix:
 Charge =  0 Multiplicity = 1

                         Standard orientation:
 ---------------------------------------------------------------------
 Center     Atomic      Atomic             Coordinates (Angstroms)
 Number     Number       Type             X           Y           Z
 ---------------------------------------------------------------------
      1          6           0       -0.702451    0.367614    0.057149
      2          8           0       -1.768623   -0.135609   -0.040785
      3          6           0        0.545867   -0.431439    0.017136
      4          6           0        1.776148    0.136575   -0.031785
      5          1           0        0.398541   -1.501906    0.041512
      6          1           0        1.828208    1.193113   -0.097686
      7          1           0        2.750349   -0.446719    0.054002
      8          1           0       -0.545501    1.403886    0.073458
 ---------------------------------------------------------------------

 SCF Done:  E(RB2PLYPD3) =  -191.609723250     A.U. after   12 cycles
 E2(B2PLYPD3) =    -0.2461246384D+00 E(B2PLYPD3) =    -0.19185584788839D+03

 The electronic state is 1-A.
 Alpha  occ. eigenvalues --  -19.72848 -10.70821 -10.65787 -10.64271  -1.21364
 Alpha  occ. eigenvalues --   -0.91897  -0.75215  -0.67819  -0.56933  -0.55882
 Alpha  occ. eigenvalues --   -0.50970  -0.47657  -0.46604  -0.34270  -0.33677
 Alpha virt. eigenvalues --   -0.01578   0.05733   0.07454   0.08258   0.09803
 Alpha virt. eigenvalues --    0.12427   0.14011   0.15545   0.17800   0.19574
 Alpha virt. eigenvalues --    0.19867   0.21388   0.25490   0.26641   0.28892

 Mulliken charges:
               1
     1  C    0.158669
     2  O   -0.334470
     3  C   -0.049225
     4  C   -0.144516
     5  H    0.105241
     6  H    0.082569
     7  H    0.102847
     8  H    0.078884
 Sum of Mulliken charges =   0.00000

 Dipole moment (field-independent basis, Debye):
    X=              3.1770    Y=              0.8839    Z=              0.1856  Tot=              3.3029
 Quadrupole moment (field-independent basis, Debye-Ang):
   XX=            -27.1509   YY=            -21.8187   ZZ=            -25.2270
   XY=             -1.0680   XZ=             -0.1839   YZ=             -0.1730

 Normal termination of Gaussian 09 at Wed Aug 26 20:50:45 2020.
