 Gaussian 09, Revision D.01,
 Gaussian 09:  ES64L-G09RevD.01 24-Apr-2013

 --------------------
 #p B2PLYPD3/Def2QZVP
 --------------------

 --------
 acrolein
 --------
 Symbolic Z-matrix:
 Charge =  0 Multiplicity = 1

                         Standard orientation:
 ---------------------------------------------------------------------
 Center     Atomic      Atomic             Coordinates (Angstroms)
 Number     Number       Type             X           Y           Z
 ---------------------------------------------------------------------
      1          6           0        0.659130    0.340312    0.019231
      2          8           0        1.797262   -0.105742   -0.019771
      3          6           0       -0.569168   -0.459347    0.010259
      4          6           0       -1.752390    0.142134   -0.016713
      5          1           0       -0.443013   -1.536076    0.052179
      6          1           0       -1.855957    1.240585   -0.015351
      7          1           0       -2.599493   -0.396167   -0.012936
      8          1           0        0.494939    1.398997    0.057616
 ---------------------------------------------------------------------

 SCF Done:  E(RB2PLYPD3) =  -191.611534262     A.U. after   12 cycles
 E2(B2PLYPD3) =    -0.2470874825D+00 E(B2PLYPD3) =    -0.19185862174472D+03

 The electronic state is 1-A.
 Alpha  occ. eigenvalues --  -19.72690 -10.71221 -10.64901 -10.64416  -1.18637
 Alpha  occ. eigenvalues --   -0.93507  -0.76402  -0.67364  -0.57230  -0.56437
 Alpha  occ. eigenvalues --   -0.50661  -0.47296  -0.46265  -0.34811  -0.33849
 Alpha virt. eigenvalues --   -0.01889   0.05777   0.07243   0.08169   0.09702
 Alpha virt. eigenvalues --    0.12739   0.14175   0.15284   0.17426   0.19693
 Alpha virt. eigenvalues --    0.20056   0.22057   0.25411   0.26645   0.28653

 Mulliken charges:
               1
     1  C    0.155919
     2  O   -0.358469
     3  C   -0.036109
     4  C   -0.129202
     5  H    0.103248
     6  H    0.084261
     7  H    0.104777
     8  H    0.075576
 Sum of Mulliken charges =   0.00000

 Dipole moment (field-independent basis, Debye):
    X=             -3.6228    Y=              0.7345    Z=              0.1104  Tot=              3.6981
 Quadrupole moment (field-independent basis, Debye-Ang):
   XX=            -27.5923   YY=            -21.6272   ZZ=            -25.1113
   XY=              0.7687   XZ=              0.1260   YZ=             -0.0590

 Normal termination of Gaussian 09 at Wed Aug 26 15:37:01 2020.
