 Gaussian 09, Revision D.01,
 Gaussian 09:  ES64L-G09RevD.01 24-Apr-2013

 --------------------
 #p B2PLYPD3/Def2QZVP
 --------------------

 --------
 acrolein
 --------
 Symbolic Z-matrix:
 Charge =  0 Multiplicity = 1

                         Standard orientation:
 ---------------------------------------------------------------------
 Center     Atomic      Atomic             Coordinates (Angstroms)
 Number     Number       Type             X           Y           Z
 ---------------------------------------------------------------------
      1          6           0        0.662847    0.328343    0.022559
      2          8           0        1.805231   -0.103890   -0.033954
      3          6           0       -0.587778   -0.461163    0.062091
      4          6           0       -1.749026    0.156048   -0.030329
      5          1           0       -0.431397   -1.518251   -0.009535
      6          1           0       -1.879149    1.260255   -0.006888
      7          1           0       -2.640353   -0.436547   -0.095584
      8          1           0        0.552797    1.386299    0.057718
 ---------------------------------------------------------------------

 SCF Done:  E(RB2PLYPD3) =  -191.612462094     A.U. after   12 cycles
 E2(B2PLYPD3) =    -0.2471803989D+00 E(B2PLYPD3) =    -0.19185964249249D+03

 The electronic state is 1-A.
 Alpha  occ. eigenvalues --  -19.72609 -10.71113 -10.65680 -10.64427  -1.18609
 Alpha  occ. eigenvalues --   -0.93456  -0.75579  -0.67449  -0.56550  -0.56520
 Alpha  occ. eigenvalues --   -0.50536  -0.46944  -0.46216  -0.35077  -0.33614
 Alpha virt. eigenvalues --   -0.01699   0.05686   0.07239   0.08077   0.09666
 Alpha virt. eigenvalues --    0.12561   0.13802   0.15289   0.17674   0.19400
 Alpha virt. eigenvalues --    0.19983   0.21760   0.25034   0.26701   0.28474

 Mulliken charges:
               1
     1  C    0.158480
     2  O   -0.359254
     3  C   -0.044724
     4  C   -0.123809
     5  H    0.107312
     6  H    0.091393
     7  H    0.099561
     8  H    0.071042
 Sum of Mulliken charges =   0.00000

 Dipole moment (field-independent basis, Debye):
    X=             -3.6129    Y=              0.7336    Z=              0.0254  Tot=              3.6868
 Quadrupole moment (field-independent basis, Debye-Ang):
   XX=            -27.7034   YY=            -21.6257   ZZ=            -25.1555
   XY=              0.7410   XZ=              0.4285   YZ=              0.1128

 Normal termination of Gaussian 09 at Wed Aug 26 08:54:13 2020.
