 Gaussian 09, Revision D.01,
 Gaussian 09:  ES64L-G09RevD.01 24-Apr-2013

 --------------------
 #p B2PLYPD3/Def2QZVP
 --------------------

 --------
 acrolein
 --------
 Symbolic Z-matrix:
 Charge =  0 Multiplicity = 1

                         Standard orientation:
 ---------------------------------------------------------------------
 Center     Atomic      Atomic             Coordinates (Angstroms)
 Number     Number       Type             X           Y           Z
 ---------------------------------------------------------------------
      1          6           0       -0.663985    0.350891   -0.003495
      2          8           0       -1.794115   -0.127020    0.009600
      3          6           0        0.559936   -0.437556   -0.009281
      4          6           0        1.755955    0.142932   -0.005758
      5          1           0        0.440597   -1.578188   -0.043758
      6          1           0        1.800404    1.187706   -0.020660
      7          1           0        2.689541   -0.434548    0.100833
      8          1           0       -0.489055    1.503595   -0.002008
 ---------------------------------------------------------------------

 SCF Done:  E(RB2PLYPD3) =  -191.608858760     A.U. after   13 cycles
 E2(B2PLYPD3) =    -0.2488324300D+00 E(B2PLYPD3) =    -0.19185769118977D+03

 The electronic state is 1-A.
 Alpha  occ. eigenvalues --  -19.73051 -10.72418 -10.65478 -10.65051  -1.18670
 Alpha  occ. eigenvalues --   -0.93371  -0.75601  -0.65874  -0.56312  -0.56256
 Alpha  occ. eigenvalues --   -0.50162  -0.46673  -0.46187  -0.34811  -0.33928
 Alpha virt. eigenvalues --   -0.02172   0.05719   0.06599   0.08154   0.09793
 Alpha virt. eigenvalues --    0.12469   0.13811   0.15260   0.16897   0.19787
 Alpha virt. eigenvalues --    0.20136   0.21641   0.25460   0.26244   0.28892

 Mulliken charges:
               1
     1  C    0.156606
     2  O   -0.352290
     3  C   -0.025500
     4  C   -0.128100
     5  H    0.097862
     6  H    0.086822
     7  H    0.106469
     8  H    0.058130
 Sum of Mulliken charges =   0.00000

 Dipole moment (field-independent basis, Debye):
    X=              3.5953    Y=              0.7345    Z=              0.0056  Tot=              3.6695
 Quadrupole moment (field-independent basis, Debye-Ang):
   XX=            -27.4919   YY=            -21.8424   ZZ=            -25.3198
   XY=             -0.9616   XZ=              0.2477   YZ=             -0.0210

 Normal termination of Gaussian 09 at Wed Aug 26 08:37:54 2020.
