 Gaussian 09, Revision D.01,
 Gaussian 09:  ES64L-G09RevD.01 24-Apr-2013

 --------------------
 #p B2PLYPD3/Def2QZVP
 --------------------

 --------
 acrolein
 --------
 Symbolic Z-matrix:
 Charge =  0 Multiplicity = 1

                         Standard orientation:
 ---------------------------------------------------------------------
 Center     Atomic      Atomic             Coordinates (Angstroms)
 Number     Number       Type             X           Y           Z
 ---------------------------------------------------------------------
      1          6           0       -0.662560    0.353084   -0.019338
      2          8           0       -1.791703   -0.118539    0.024076
      3          6           0        0.573191   -0.455493   -0.018979
      4          6           0        1.748960    0.142139    0.004944
      5          1           0        0.437829   -1.557306   -0.061575
      6          1           0        1.814827    1.230161    0.013045
      7          1           0        2.619341   -0.403467    0.100393
      8          1           0       -0.495925    1.440547   -0.044232
 ---------------------------------------------------------------------

 SCF Done:  E(RB2PLYPD3) =  -191.613675406     A.U. after   12 cycles
 E2(B2PLYPD3) =    -0.2474961428D+00 E(B2PLYPD3) =    -0.19186117154879D+03

 The electronic state is 1-A.
 Alpha  occ. eigenvalues --  -19.72865 -10.71748 -10.64818 -10.64559  -1.18678
 Alpha  occ. eigenvalues --   -0.93419  -0.75754  -0.66798  -0.56947  -0.56265
 Alpha  occ. eigenvalues --   -0.50595  -0.46965  -0.46209  -0.34906  -0.33875
 Alpha virt. eigenvalues --   -0.01709   0.05799   0.07068   0.07993   0.09758
 Alpha virt. eigenvalues --    0.12658   0.14030   0.15275   0.17220   0.19836
 Alpha virt. eigenvalues --    0.19895   0.21967   0.25454   0.26548   0.28769

 Mulliken charges:
               1
     1  C    0.156817
     2  O   -0.355698
     3  C   -0.036265
     4  C   -0.128327
     5  H    0.102310
     6  H    0.082280
     7  H    0.104808
     8  H    0.074077
 Sum of Mulliken charges =   0.00000

 Dipole moment (field-independent basis, Debye):
    X=              3.5339    Y=              0.7682    Z=             -0.0473  Tot=              3.6168
 Quadrupole moment (field-independent basis, Debye-Ang):
   XX=            -27.6749   YY=            -21.6260   ZZ=            -25.1719
   XY=             -0.8943   XZ=              0.3579   YZ=              0.0238

 Normal termination of Gaussian 09 at Wed Aug 26 15:39:20 2020.
