 Gaussian 09, Revision D.01,
 Gaussian 09:  ES64L-G09RevD.01 24-Apr-2013

 --------------------
 #p B2PLYPD3/Def2QZVP
 --------------------

 --------
 acrolein
 --------
 Symbolic Z-matrix:
 Charge =  0 Multiplicity = 1

                         Standard orientation:
 ---------------------------------------------------------------------
 Center     Atomic      Atomic             Coordinates (Angstroms)
 Number     Number       Type             X           Y           Z
 ---------------------------------------------------------------------
      1          6           0        0.675274    0.346340   -0.015934
      2          8           0        1.787705   -0.114125    0.022913
      3          6           0       -0.568754   -0.459029   -0.030596
      4          6           0       -1.758464    0.149278    0.015417
      5          1           0       -0.419897   -1.563269   -0.044580
      6          1           0       -1.852275    1.226142   -0.032548
      7          1           0       -2.651186   -0.409007    0.102626
      8          1           0        0.533382    1.439597   -0.022125
 ---------------------------------------------------------------------

 SCF Done:  E(RB2PLYPD3) =  -191.615687114     A.U. after   13 cycles
 E2(B2PLYPD3) =    -0.2469073832D+00 E(B2PLYPD3) =    -0.19186259449739D+03

 The electronic state is 1-A.
 Alpha  occ. eigenvalues --  -19.72757 -10.71457 -10.65251 -10.64877  -1.19841
 Alpha  occ. eigenvalues --   -0.92713  -0.75404  -0.66685  -0.56590  -0.56411
 Alpha  occ. eigenvalues --   -0.50673  -0.47157  -0.46677  -0.34613  -0.33692
 Alpha virt. eigenvalues --   -0.01598   0.05817   0.07121   0.08152   0.09723
 Alpha virt. eigenvalues --    0.12580   0.14071   0.15369   0.17234   0.19816
 Alpha virt. eigenvalues --    0.19977   0.21794   0.25278   0.26503   0.28617

 Mulliken charges:
               1
     1  C    0.158410
     2  O   -0.345457
     3  C   -0.042966
     4  C   -0.132980
     5  H    0.103024
     6  H    0.087912
     7  H    0.103786
     8  H    0.068270
 Sum of Mulliken charges =   0.00000

 Dipole moment (field-independent basis, Debye):
    X=             -3.4408    Y=              0.7464    Z=             -0.0531  Tot=              3.5213
 Quadrupole moment (field-independent basis, Debye-Ang):
   XX=            -27.4511   YY=            -21.6842   ZZ=            -25.2308
   XY=              0.8046   XZ=             -0.2963   YZ=             -0.0547

 Normal termination of Gaussian 09 at Wed Aug 26 08:44:22 2020.
