 Gaussian 09, Revision D.01,
 Gaussian 09:  ES64L-G09RevD.01 24-Apr-2013

 --------------------
 #p B2PLYPD3/Def2QZVP
 --------------------

 --------
 acrolein
 --------
 Symbolic Z-matrix:
 Charge =  0 Multiplicity = 1

                         Standard orientation:
 ---------------------------------------------------------------------
 Center     Atomic      Atomic             Coordinates (Angstroms)
 Number     Number       Type             X           Y           Z
 ---------------------------------------------------------------------
      1          6           0       -0.678380    0.351198    0.017792
      2          8           0       -1.763210   -0.131030   -0.033740
      3          6           0        0.547764   -0.438169    0.020144
      4          6           0        1.746568    0.142129   -0.018265
      5          1           0        0.445558   -1.445968    0.085500
      6          1           0        1.832204    1.181482   -0.116822
      7          1           0        2.708952   -0.432893    0.001007
      8          1           0       -0.576747    1.414679    0.182209
 ---------------------------------------------------------------------

 SCF Done:  E(RB2PLYPD3) =  -191.611430835     A.U. after   13 cycles
 E2(B2PLYPD3) =    -0.2452974378D+00 E(B2PLYPD3) =    -0.19185672827299D+03

 The electronic state is 1-A.
 Alpha  occ. eigenvalues --  -19.72514 -10.70746 -10.65246 -10.63356  -1.20845
 Alpha  occ. eigenvalues --   -0.93112  -0.75354  -0.68208  -0.57531  -0.56270
 Alpha  occ. eigenvalues --   -0.50944  -0.47520  -0.47196  -0.34602  -0.33699
 Alpha virt. eigenvalues --   -0.01389   0.05815   0.07476   0.08385   0.09771
 Alpha virt. eigenvalues --    0.12592   0.14124   0.15411   0.18052   0.19358
 Alpha virt. eigenvalues --    0.20304   0.21374   0.25306   0.26674   0.28910

 Mulliken charges:
               1
     1  C    0.147828
     2  O   -0.339272
     3  C   -0.046890
     4  C   -0.132455
     5  H    0.113744
     6  H    0.086444
     7  H    0.095101
     8  H    0.075501
 Sum of Mulliken charges =   0.00000

 Dipole moment (field-independent basis, Debye):
    X=              3.3248    Y=              0.7930    Z=              0.1325  Tot=              3.4206
 Quadrupole moment (field-independent basis, Debye-Ang):
   XX=            -27.1581   YY=            -21.8208   ZZ=            -25.0096
   XY=             -1.0402   XZ=             -0.3235   YZ=             -0.1913

 Normal termination of Gaussian 09 at Wed Aug 26 08:42:03 2020.
