 Gaussian 09, Revision D.01,
 Gaussian 09:  ES64L-G09RevD.01 24-Apr-2013

 --------------------
 #p B2PLYPD3/Def2QZVP
 --------------------

 --------
 acrolein
 --------
 Symbolic Z-matrix:
 Charge =  0 Multiplicity = 1

                         Standard orientation:
 ---------------------------------------------------------------------
 Center     Atomic      Atomic             Coordinates (Angstroms)
 Number     Number       Type             X           Y           Z
 ---------------------------------------------------------------------
      1          6           0        0.666694    0.342926    0.007245
      2          8           0        1.789741   -0.116094   -0.018833
      3          6           0       -0.564216   -0.456967    0.036273
      4          6           0       -1.744264    0.140808   -0.020620
      5          1           0       -0.478030   -1.506131    0.016938
      6          1           0       -1.832544    1.247008    0.018163
      7          1           0       -2.636149   -0.413959   -0.064035
      8          1           0        0.479513    1.441231    0.042205
 ---------------------------------------------------------------------

 SCF Done:  E(RB2PLYPD3) =  -191.615279081     A.U. after   12 cycles
 E2(B2PLYPD3) =    -0.2470296453D+00 E(B2PLYPD3) =    -0.19186230872613D+03

 The electronic state is 1-A.
 Alpha  occ. eigenvalues --  -19.72851 -10.71679 -10.65283 -10.63947  -1.19327
 Alpha  occ. eigenvalues --   -0.93432  -0.75552  -0.67166  -0.56875  -0.56216
 Alpha  occ. eigenvalues --   -0.50690  -0.47180  -0.46682  -0.34868  -0.33834
 Alpha virt. eigenvalues --   -0.01670   0.05762   0.07207   0.08171   0.09727
 Alpha virt. eigenvalues --    0.12645   0.13991   0.15310   0.17618   0.19724
 Alpha virt. eigenvalues --    0.19962   0.21641   0.25412   0.26509   0.28669

 Mulliken charges:
               1
     1  C    0.156387
     2  O   -0.349477
     3  C   -0.037570
     4  C   -0.126887
     5  H    0.105794
     6  H    0.081982
     7  H    0.101746
     8  H    0.068025
 Sum of Mulliken charges =   0.00000

 Dipole moment (field-independent basis, Debye):
    X=             -3.5333    Y=              0.7015    Z=              0.0367  Tot=              3.6025
 Quadrupole moment (field-independent basis, Debye-Ang):
   XX=            -27.5016   YY=            -21.7385   ZZ=            -25.1468
   XY=              0.8999   XZ=              0.2215   YZ=              0.0739

 Normal termination of Gaussian 09 at Wed Aug 26 16:00:36 2020.
