 Gaussian 09, Revision D.01,
 Gaussian 09:  ES64L-G09RevD.01 24-Apr-2013

 --------------------
 #p B2PLYPD3/Def2QZVP
 --------------------

 --------
 acrolein
 --------
 Symbolic Z-matrix:
 Charge =  0 Multiplicity = 1

                         Standard orientation:
 ---------------------------------------------------------------------
 Center     Atomic      Atomic             Coordinates (Angstroms)
 Number     Number       Type             X           Y           Z
 ---------------------------------------------------------------------
      1          6           0       -0.667924    0.362682   -0.034275
      2          8           0       -1.780123   -0.134996    0.026232
      3          6           0        0.555685   -0.445288   -0.008437
      4          6           0        1.747483    0.140490    0.006416
      5          1           0        0.480878   -1.498478   -0.034460
      6          1           0        1.766598    1.206497    0.090399
      7          1           0        2.702570   -0.414151    0.008982
      8          1           0       -0.520527    1.438796   -0.057002
 ---------------------------------------------------------------------

 SCF Done:  E(RB2PLYPD3) =  -191.614693591     A.U. after   12 cycles
 E2(B2PLYPD3) =    -0.2472681470D+00 E(B2PLYPD3) =    -0.19186196173789D+03

 The electronic state is 1-A.
 Alpha  occ. eigenvalues --  -19.72769 -10.71572 -10.65322 -10.63904  -1.18987
 Alpha  occ. eigenvalues --   -0.93277  -0.75297  -0.67726  -0.56882  -0.56192
 Alpha  occ. eigenvalues --   -0.50429  -0.46972  -0.46523  -0.34641  -0.34011
 Alpha virt. eigenvalues --   -0.01742   0.05742   0.07216   0.07983   0.09776
 Alpha virt. eigenvalues --    0.12557   0.14060   0.15329   0.17667   0.19735
 Alpha virt. eigenvalues --    0.20106   0.21339   0.25464   0.26370   0.29181

 Mulliken charges:
               1
     1  C    0.149045
     2  O   -0.353050
     3  C   -0.036166
     4  C   -0.130926
     5  H    0.107806
     6  H    0.079796
     7  H    0.101335
     8  H    0.082160
 Sum of Mulliken charges =   0.00000

 Dipole moment (field-independent basis, Debye):
    X=              3.4788    Y=              0.8301    Z=             -0.0671  Tot=              3.5771
 Quadrupole moment (field-independent basis, Debye-Ang):
   XX=            -27.5120   YY=            -21.6849   ZZ=            -25.1676
   XY=             -1.2162   XZ=              0.2604   YZ=              0.1239

 Normal termination of Gaussian 09 at Wed Aug 26 19:08:43 2020.
