 Gaussian 09, Revision D.01,
 Gaussian 09:  ES64L-G09RevD.01 24-Apr-2013

 --------------------
 #p B2PLYPD3/Def2QZVP
 --------------------

 --------
 acrolein
 --------
 Symbolic Z-matrix:
 Charge =  0 Multiplicity = 1

                         Standard orientation:
 ---------------------------------------------------------------------
 Center     Atomic      Atomic             Coordinates (Angstroms)
 Number     Number       Type             X           Y           Z
 ---------------------------------------------------------------------
      1          6           0        0.677477    0.352296   -0.005031
      2          8           0        1.785625   -0.127792    0.003859
      3          6           0       -0.562094   -0.441005    0.000362
      4          6           0       -1.760199    0.145729    0.000698
      5          1           0       -0.442610   -1.514705    0.017807
      6          1           0       -1.826986    1.161707    0.074631
      7          1           0       -2.683298   -0.416945   -0.053274
      8          1           0        0.536796    1.450161   -0.046211
 ---------------------------------------------------------------------

 SCF Done:  E(RB2PLYPD3) =  -191.614655739     A.U. after   13 cycles
 E2(B2PLYPD3) =    -0.2466372576D+00 E(B2PLYPD3) =    -0.19186129299646D+03

 The electronic state is 1-A.
 Alpha  occ. eigenvalues --  -19.72822 -10.71561 -10.64786 -10.64325  -1.19723
 Alpha  occ. eigenvalues --   -0.93086  -0.75714  -0.67291  -0.57068  -0.56454
 Alpha  occ. eigenvalues --   -0.50662  -0.47419  -0.46817  -0.34614  -0.33827
 Alpha virt. eigenvalues --   -0.01743   0.05846   0.07261   0.08221   0.09807
 Alpha virt. eigenvalues --    0.12649   0.14047   0.15401   0.17421   0.19811
 Alpha virt. eigenvalues --    0.20242   0.21741   0.25444   0.26406   0.28778

 Mulliken charges:
               1
     1  C    0.152125
     2  O   -0.346623
     3  C   -0.036142
     4  C   -0.135258
     5  H    0.104987
     6  H    0.088255
     7  H    0.102037
     8  H    0.070619
 Sum of Mulliken charges =   0.00000

 Dipole moment (field-independent basis, Debye):
    X=             -3.4523    Y=              0.7905    Z=              0.0052  Tot=              3.5417
 Quadrupole moment (field-independent basis, Debye-Ang):
   XX=            -27.3152   YY=            -21.7932   ZZ=            -25.1356
   XY=              0.9694   XZ=             -0.0184   YZ=              0.0755

 Normal termination of Gaussian 09 at Wed Aug 26 16:22:01 2020.
