 Gaussian 09, Revision D.01,
 Gaussian 09:  ES64L-G09RevD.01 24-Apr-2013

 --------------------
 #p B2PLYPD3/Def2QZVP
 --------------------

 --------
 acrolein
 --------
 Symbolic Z-matrix:
 Charge =  0 Multiplicity = 1

                         Standard orientation:
 ---------------------------------------------------------------------
 Center     Atomic      Atomic             Coordinates (Angstroms)
 Number     Number       Type             X           Y           Z
 ---------------------------------------------------------------------
      1          6           0        0.660588    0.339632    0.004892
      2          8           0        1.795508   -0.112405   -0.013372
      3          6           0       -0.577211   -0.461246    0.004282
      4          6           0       -1.748601    0.149991   -0.003243
      5          1           0       -0.454398   -1.534942    0.037788
      6          1           0       -1.801899    1.244639   -0.073697
      7          1           0       -2.630737   -0.402438    0.005507
      8          1           0        0.514314    1.421724    0.101793
 ---------------------------------------------------------------------

 SCF Done:  E(RB2PLYPD3) =  -191.614935629     A.U. after   12 cycles
 E2(B2PLYPD3) =    -0.2472423181D+00 E(B2PLYPD3) =    -0.19186217794675D+03

 The electronic state is 1-A.
 Alpha  occ. eigenvalues --  -19.72760 -10.71548 -10.65076 -10.64357  -1.18767
 Alpha  occ. eigenvalues --   -0.93490  -0.75662  -0.67081  -0.56980  -0.56264
 Alpha  occ. eigenvalues --   -0.50547  -0.47218  -0.46325  -0.34936  -0.33783
 Alpha virt. eigenvalues --   -0.01710   0.05801   0.07141   0.08021   0.09746
 Alpha virt. eigenvalues --    0.12689   0.14021   0.15271   0.17391   0.19544
 Alpha virt. eigenvalues --    0.20173   0.21794   0.25259   0.26650   0.28840

 Mulliken charges:
               1
     1  C    0.155515
     2  O   -0.355302
     3  C   -0.038605
     4  C   -0.128222
     5  H    0.104668
     6  H    0.085735
     7  H    0.104428
     8  H    0.071783
 Sum of Mulliken charges =   0.00000

 Dipole moment (field-independent basis, Debye):
    X=             -3.5613    Y=              0.7196    Z=              0.0483  Tot=              3.6336
 Quadrupole moment (field-independent basis, Debye-Ang):
   XX=            -27.6703   YY=            -21.6474   ZZ=            -25.1518
   XY=              0.9149   XZ=              0.1575   YZ=             -0.1080

 Normal termination of Gaussian 09 at Wed Aug 26 10:58:07 2020.
