 Gaussian 09, Revision D.01,
 Gaussian 09:  ES64L-G09RevD.01 24-Apr-2013

 --------------------
 #p B2PLYPD3/Def2QZVP
 --------------------

 --------
 acrolein
 --------
 Symbolic Z-matrix:
 Charge =  0 Multiplicity = 1

                         Standard orientation:
 ---------------------------------------------------------------------
 Center     Atomic      Atomic             Coordinates (Angstroms)
 Number     Number       Type             X           Y           Z
 ---------------------------------------------------------------------
      1          6           0       -0.672387    0.339621   -0.005969
      2          8           0       -1.793085   -0.107107   -0.004992
      3          6           0        0.558275   -0.461971    0.023217
      4          6           0        1.765371    0.146173   -0.013400
      5          1           0        0.420693   -1.537991    0.007551
      6          1           0        1.846896    1.260380    0.054385
      7          1           0        2.681854   -0.419495   -0.049542
      8          1           0       -0.512307    1.411026    0.004449
 ---------------------------------------------------------------------

 SCF Done:  E(RB2PLYPD3) =  -191.614953918     A.U. after   13 cycles
 E2(B2PLYPD3) =    -0.2473677919D+00 E(B2PLYPD3) =    -0.19186232170989D+03

 The electronic state is 1-A.
 Alpha  occ. eigenvalues --  -19.72683 -10.71174 -10.66222 -10.64746  -1.19679
 Alpha  occ. eigenvalues --   -0.92554  -0.75466  -0.67079  -0.56431  -0.56139
 Alpha  occ. eigenvalues --   -0.50594  -0.47039  -0.46755  -0.34419  -0.33772
 Alpha virt. eigenvalues --   -0.01945   0.05672   0.07217   0.08190   0.09689
 Alpha virt. eigenvalues --    0.12503   0.13979   0.15348   0.17539   0.19576
 Alpha virt. eigenvalues --    0.19996   0.21508   0.25170   0.26593   0.28741

 Mulliken charges:
               1
     1  C    0.159696
     2  O   -0.348957
     3  C   -0.042582
     4  C   -0.132815
     5  H    0.105411
     6  H    0.085712
     7  H    0.104795
     8  H    0.068740
 Sum of Mulliken charges =   0.00000

 Dipole moment (field-independent basis, Debye):
    X=              3.5155    Y=              0.7168    Z=              0.0126  Tot=              3.5879
 Quadrupole moment (field-independent basis, Debye-Ang):
   XX=            -27.4521   YY=            -21.7200   ZZ=            -25.2844
   XY=             -0.8126   XZ=             -0.0677   YZ=              0.1053

 Normal termination of Gaussian 09 at Wed Aug 26 11:44:23 2020.
