 Gaussian 09, Revision D.01,
 Gaussian 09:  ES64L-G09RevD.01 24-Apr-2013

 --------------------
 #p B2PLYPD3/Def2QZVP
 --------------------

 --------
 acrolein
 --------
 Symbolic Z-matrix:
 Charge =  0 Multiplicity = 1

                         Standard orientation:
 ---------------------------------------------------------------------
 Center     Atomic      Atomic             Coordinates (Angstroms)
 Number     Number       Type             X           Y           Z
 ---------------------------------------------------------------------
      1          6           0       -0.687505    0.370632    0.020474
      2          8           0       -1.778008   -0.145699   -0.019906
      3          6           0        0.558610   -0.425513    0.020784
      4          6           0        1.768084    0.141836   -0.022330
      5          1           0        0.421225   -1.507381    0.000918
      6          1           0        1.796990    1.100359   -0.066322
      7          1           0        2.719084   -0.424845    0.045370
      8          1           0       -0.548372    1.475724    0.065710
 ---------------------------------------------------------------------

 SCF Done:  E(RB2PLYPD3) =  -191.603445301     A.U. after   13 cycles
 E2(B2PLYPD3) =    -0.2467586522D+00 E(B2PLYPD3) =    -0.19185020395324D+03

 The electronic state is 1-A.
 Alpha  occ. eigenvalues --  -19.72992 -10.71832 -10.64385 -10.64231  -1.19907
 Alpha  occ. eigenvalues --   -0.93035  -0.75782  -0.67432  -0.57408  -0.56197
 Alpha  occ. eigenvalues --   -0.50734  -0.47233  -0.46920  -0.34521  -0.33916
 Alpha virt. eigenvalues --   -0.01735   0.05851   0.07238   0.08159   0.09901
 Alpha virt. eigenvalues --    0.12543   0.13950   0.15444   0.17328   0.19785
 Alpha virt. eigenvalues --    0.20330   0.21883   0.25592   0.26245   0.28977

 Mulliken charges:
               1
     1  C    0.149401
     2  O   -0.344259
     3  C   -0.034914
     4  C   -0.142525
     5  H    0.104554
     6  H    0.089912
     7  H    0.103579
     8  H    0.074252
 Sum of Mulliken charges =   0.00000

 Dipole moment (field-independent basis, Debye):
    X=              3.3486    Y=              0.8786    Z=              0.0700  Tot=              3.4627
 Quadrupole moment (field-independent basis, Debye-Ang):
   XX=            -27.2073   YY=            -21.8285   ZZ=            -25.1430
   XY=             -1.1105   XZ=             -0.0861   YZ=             -0.0635

 Normal termination of Gaussian 09 at Wed Aug 26 09:21:27 2020.
