 Gaussian 09, Revision D.01,
 Gaussian 09:  ES64L-G09RevD.01 24-Apr-2013

 --------------------
 #p B2PLYPD3/Def2QZVP
 --------------------

 --------
 acrolein
 --------
 Symbolic Z-matrix:
 Charge =  0 Multiplicity = 1

                         Standard orientation:
 ---------------------------------------------------------------------
 Center     Atomic      Atomic             Coordinates (Angstroms)
 Number     Number       Type             X           Y           Z
 ---------------------------------------------------------------------
      1          6           0        0.660527    0.317983   -0.006363
      2          8           0        1.786063   -0.103336    0.027259
      3          6           0       -0.548065   -0.467882   -0.054339
      4          6           0       -1.747041    0.155685    0.009467
      5          1           0       -0.454526   -1.489027   -0.006128
      6          1           0       -1.808798    1.247147    0.005802
      7          1           0       -2.750904   -0.407238    0.147321
      8          1           0        0.533206    1.441089   -0.057652
 ---------------------------------------------------------------------

 SCF Done:  E(RB2PLYPD3) =  -191.608244045     A.U. after   13 cycles
 E2(B2PLYPD3) =    -0.2475432369D+00 E(B2PLYPD3) =    -0.19185578728196D+03

 The electronic state is 1-A.
 Alpha  occ. eigenvalues --  -19.72488 -10.71279 -10.67006 -10.64212  -1.19865
 Alpha  occ. eigenvalues --   -0.93136  -0.75074  -0.67336  -0.56580  -0.56007
 Alpha  occ. eigenvalues --   -0.50151  -0.47258  -0.47041  -0.34538  -0.33541
 Alpha virt. eigenvalues --   -0.02102   0.05537   0.07163   0.08397   0.09636
 Alpha virt. eigenvalues --    0.12334   0.13926   0.15300   0.17823   0.19779
 Alpha virt. eigenvalues --    0.19812   0.21042   0.25072   0.26220   0.29002

 Mulliken charges:
               1
     1  C    0.152266
     2  O   -0.346046
     3  C   -0.033677
     4  C   -0.123172
     5  H    0.111554
     6  H    0.089736
     7  H    0.096125
     8  H    0.053213
 Sum of Mulliken charges =   0.00000

 Dipole moment (field-independent basis, Debye):
    X=             -3.5956    Y=              0.6224    Z=              0.0450  Tot=              3.6493
 Quadrupole moment (field-independent basis, Debye-Ang):
   XX=            -27.2760   YY=            -21.9087   ZZ=            -25.2471
   XY=              0.8046   XZ=             -0.5301   YZ=             -0.1047

 Normal termination of Gaussian 09 at Wed Aug 26 09:10:58 2020.
