 Gaussian 09, Revision D.01,
 Gaussian 09:  ES64L-G09RevD.01 24-Apr-2013

 --------------------
 #p B2PLYPD3/Def2QZVP
 --------------------

 --------
 acrolein
 --------
 Symbolic Z-matrix:
 Charge =  0 Multiplicity = 1

                         Standard orientation:
 ---------------------------------------------------------------------
 Center     Atomic      Atomic             Coordinates (Angstroms)
 Number     Number       Type             X           Y           Z
 ---------------------------------------------------------------------
      1          6           0        0.660969   -0.301824    0.000738
      2          8           0        1.803774    0.088985   -0.030675
      3          6           0       -0.588958    0.451237    0.068508
      4          6           0       -1.757594   -0.165849   -0.041488
      5          1           0       -0.476431    1.549906    0.039394
      6          1           0       -1.757722   -1.242606    0.076918
      7          1           0       -2.638415    0.368007   -0.131196
      8          1           0        0.555872   -1.288576    0.093737
 ---------------------------------------------------------------------

 SCF Done:  E(RB2PLYPD3) =  -191.602478622     A.U. after   13 cycles
 E2(B2PLYPD3) =    -0.2462176446D+00 E(B2PLYPD3) =    -0.19184869626669D+03

 The electronic state is 1-A.
 Alpha  occ. eigenvalues --  -19.72432 -10.70049 -10.65199 -10.64528  -1.19425
 Alpha  occ. eigenvalues --   -0.93778  -0.76621  -0.68047  -0.57506  -0.56721
 Alpha  occ. eigenvalues --   -0.50944  -0.47358  -0.46408  -0.34974  -0.33610
 Alpha virt. eigenvalues --   -0.01914   0.05872   0.07236   0.08441   0.09662
 Alpha virt. eigenvalues --    0.12874   0.14072   0.15203   0.17559   0.19916
 Alpha virt. eigenvalues --    0.19986   0.21783   0.24827   0.26715   0.28835

 Mulliken charges:
               1
     1  C    0.162873
     2  O   -0.353435
     3  C   -0.031317
     4  C   -0.130010
     5  H    0.092099
     6  H    0.087464
     7  H    0.108311
     8  H    0.064015
 Sum of Mulliken charges =   0.00000

 Dipole moment (field-independent basis, Debye):
    X=             -3.6278    Y=             -0.6868    Z=              0.0831  Tot=              3.6932
 Quadrupole moment (field-independent basis, Debye-Ang):
   XX=            -27.5079   YY=            -21.8335   ZZ=            -24.9708
   XY=             -0.9081   XZ=              0.3892   YZ=             -0.1849

 Normal termination of Gaussian 09 at Wed Aug 26 14:40:59 2020.
