 Gaussian 09, Revision D.01,
 Gaussian 09:  ES64L-G09RevD.01 24-Apr-2013

 --------------------
 #p B2PLYPD3/Def2QZVP
 --------------------

 --------
 acrolein
 --------
 Symbolic Z-matrix:
 Charge =  0 Multiplicity = 1

                         Standard orientation:
 ---------------------------------------------------------------------
 Center     Atomic      Atomic             Coordinates (Angstroms)
 Number     Number       Type             X           Y           Z
 ---------------------------------------------------------------------
      1          6           0        0.663244    0.350173    0.026613
      2          8           0        1.786515   -0.119594   -0.021524
      3          6           0       -0.564783   -0.449425    0.022912
      4          6           0       -1.744371    0.137786   -0.019602
      5          1           0       -0.441255   -1.518401    0.008963
      6          1           0       -1.870642    1.246263   -0.009798
      7          1           0       -2.650634   -0.422832   -0.019829
      8          1           0        0.545866    1.420518    0.013316
 ---------------------------------------------------------------------

 SCF Done:  E(RB2PLYPD3) =  -191.615499298     A.U. after   12 cycles
 E2(B2PLYPD3) =    -0.2468964000D+00 E(B2PLYPD3) =    -0.19186239569796D+03

 The electronic state is 1-A.
 Alpha  occ. eigenvalues --  -19.72609 -10.71207 -10.65427 -10.64196  -1.18944
 Alpha  occ. eigenvalues --   -0.93368  -0.75593  -0.67325  -0.56741  -0.56515
 Alpha  occ. eigenvalues --   -0.50544  -0.46633  -0.46492  -0.34921  -0.33818
 Alpha virt. eigenvalues --   -0.01654   0.05700   0.07230   0.08182   0.09690
 Alpha virt. eigenvalues --    0.12518   0.14122   0.15337   0.17569   0.19594
 Alpha virt. eigenvalues --    0.19966   0.21718   0.25543   0.26498   0.28761

 Mulliken charges:
               1
     1  C    0.155640
     2  O   -0.355906
     3  C   -0.042332
     4  C   -0.125444
     5  H    0.107796
     6  H    0.082286
     7  H    0.100449
     8  H    0.077512
 Sum of Mulliken charges =   0.00000

 Dipole moment (field-independent basis, Debye):
    X=             -3.5402    Y=              0.7829    Z=              0.0659  Tot=              3.6264
 Quadrupole moment (field-independent basis, Debye-Ang):
   XX=            -27.5195   YY=            -21.6315   ZZ=            -25.1508
   XY=              0.9219   XZ=              0.1597   YZ=              0.0033

 Normal termination of Gaussian 09 at Wed Aug 26 14:17:34 2020.
