 Gaussian 09, Revision D.01,
 Gaussian 09:  ES64L-G09RevD.01 24-Apr-2013

 --------------------
 #p B2PLYPD3/Def2QZVP
 --------------------

 --------
 acrolein
 --------
 Symbolic Z-matrix:
 Charge =  0 Multiplicity = 1

                         Standard orientation:
 ---------------------------------------------------------------------
 Center     Atomic      Atomic             Coordinates (Angstroms)
 Number     Number       Type             X           Y           Z
 ---------------------------------------------------------------------
      1          6           0        0.689750    0.369614   -0.032636
      2          8           0        1.767643   -0.149973    0.049589
      3          6           0       -0.529460   -0.412196   -0.072531
      4          6           0       -1.793398    0.143645    0.056208
      5          1           0       -0.445153   -1.509037   -0.118166
      6          1           0       -1.767177    1.184829   -0.138329
      7          1           0       -2.768804   -0.488167    0.172235
      8          1           0        0.638633    1.405783   -0.018704
 ---------------------------------------------------------------------

 SCF Done:  E(RB2PLYPD3) =  -191.597746206     A.U. after   14 cycles
 E2(B2PLYPD3) =    -0.2480946136D+00 E(B2PLYPD3) =    -0.19184584082005D+03

 The electronic state is 1-A.
 Alpha  occ. eigenvalues --  -19.72397 -10.70629 -10.66767 -10.64924  -1.20204
 Alpha  occ. eigenvalues --   -0.91854  -0.75419  -0.67773  -0.57191  -0.55414
 Alpha  occ. eigenvalues --   -0.50129  -0.47473  -0.46005  -0.34063  -0.33420
 Alpha virt. eigenvalues --   -0.02377   0.05517   0.07113   0.08162   0.09779
 Alpha virt. eigenvalues --    0.12108   0.13920   0.15373   0.17638   0.19514
 Alpha virt. eigenvalues --    0.20246   0.21043   0.24616   0.26425   0.29297

 Mulliken charges:
               1
     1  C    0.149723
     2  O   -0.343743
     3  C   -0.041840
     4  C   -0.146650
     5  H    0.103925
     6  H    0.088669
     7  H    0.109456
     8  H    0.080460
 Sum of Mulliken charges =   0.00000

 Dipole moment (field-independent basis, Debye):
    X=             -3.3681    Y=              0.8858    Z=             -0.2152  Tot=              3.4893
 Quadrupole moment (field-independent basis, Debye-Ang):
   XX=            -27.2017   YY=            -21.7923   ZZ=            -25.3257
   XY=              1.6875   XZ=             -0.4370   YZ=             -0.1801

 Normal termination of Gaussian 09 at Wed Aug 26 14:30:23 2020.
