 Gaussian 09, Revision D.01,
 Gaussian 09:  ES64L-G09RevD.01 24-Apr-2013

 --------------------
 #p B2PLYPD3/Def2QZVP
 --------------------

 --------
 acrolein
 --------
 Symbolic Z-matrix:
 Charge =  0 Multiplicity = 1

                         Standard orientation:
 ---------------------------------------------------------------------
 Center     Atomic      Atomic             Coordinates (Angstroms)
 Number     Number       Type             X           Y           Z
 ---------------------------------------------------------------------
      1          6           0       -0.675028    0.342432    0.019351
      2          8           0       -1.791700   -0.109015   -0.023769
      3          6           0        0.560934   -0.458569    0.017335
      4          6           0        1.760878    0.135294   -0.008739
      5          1           0        0.429235   -1.542820    0.023546
      6          1           0        1.900341    1.254930   -0.088669
      7          1           0        2.627676   -0.401402   -0.008225
      8          1           0       -0.504359    1.446462    0.095820
 ---------------------------------------------------------------------

 SCF Done:  E(RB2PLYPD3) =  -191.612444834     A.U. after   12 cycles
 E2(B2PLYPD3) =    -0.2471010835D+00 E(B2PLYPD3) =    -0.19185954591745D+03

 The electronic state is 1-A.
 Alpha  occ. eigenvalues --  -19.72849 -10.71600 -10.65446 -10.64705  -1.19841
 Alpha  occ. eigenvalues --   -0.92792  -0.75812  -0.66487  -0.57100  -0.55921
 Alpha  occ. eigenvalues --   -0.50896  -0.46896  -0.46770  -0.34644  -0.33747
 Alpha virt. eigenvalues --   -0.01783   0.05739   0.07202   0.08224   0.09663
 Alpha virt. eigenvalues --    0.12568   0.14100   0.15387   0.17343   0.19454
 Alpha virt. eigenvalues --    0.20067   0.21917   0.25269   0.26527   0.28484

 Mulliken charges:
               1
     1  C    0.161606
     2  O   -0.344676
     3  C   -0.045396
     4  C   -0.126738
     5  H    0.103701
     6  H    0.081397
     7  H    0.104733
     8  H    0.065372
 Sum of Mulliken charges =   0.00000

 Dipole moment (field-independent basis, Debye):
    X=              3.4959    Y=              0.6847    Z=              0.0440  Tot=              3.5626
 Quadrupole moment (field-independent basis, Debye-Ang):
   XX=            -27.3244   YY=            -21.7764   ZZ=            -25.2296
   XY=             -0.7197   XZ=             -0.2758   YZ=             -0.0976

 Normal termination of Gaussian 09 at Wed Aug 26 19:13:10 2020.
