 Gaussian 09, Revision D.01,
 Gaussian 09:  ES64L-G09RevD.01 24-Apr-2013

 --------------------
 #p B2PLYPD3/Def2QZVP
 --------------------

 --------
 acrolein
 --------
 Symbolic Z-matrix:
 Charge =  0 Multiplicity = 1

                         Standard orientation:
 ---------------------------------------------------------------------
 Center     Atomic      Atomic             Coordinates (Angstroms)
 Number     Number       Type             X           Y           Z
 ---------------------------------------------------------------------
      1          6           0        0.680192    0.342244    0.016635
      2          8           0        1.796958   -0.133451   -0.028827
      3          6           0       -0.586157   -0.409369    0.069165
      4          6           0       -1.734427    0.149161   -0.056362
      5          1           0       -0.533210   -1.482618    0.015829
      6          1           0       -1.820229    1.091658    0.124601
      7          1           0       -2.658014   -0.436424   -0.089220
      8          1           0        0.478139    1.402776    0.002780
 ---------------------------------------------------------------------

 SCF Done:  E(RB2PLYPD3) =  -191.597900350     A.U. after   14 cycles
 E2(B2PLYPD3) =    -0.2459966377D+00 E(B2PLYPD3) =    -0.19184389698762D+03

 The electronic state is 1-A.
 Alpha  occ. eigenvalues --  -19.73195 -10.71676 -10.63447 -10.63257  -1.19426
 Alpha  occ. eigenvalues --   -0.94743  -0.76374  -0.68087  -0.57689  -0.56670
 Alpha  occ. eigenvalues --   -0.51109  -0.47100  -0.46533  -0.35556  -0.34020
 Alpha virt. eigenvalues --   -0.01570   0.05874   0.07309   0.08220   0.09876
 Alpha virt. eigenvalues --    0.12975   0.14002   0.15101   0.17510   0.19658
 Alpha virt. eigenvalues --    0.20924   0.22101   0.24367   0.26792   0.27926

 Mulliken charges:
               1
     1  C    0.150702
     2  O   -0.345877
     3  C   -0.022457
     4  C   -0.122028
     5  H    0.093256
     6  H    0.083437
     7  H    0.090545
     8  H    0.072421
 Sum of Mulliken charges =   0.00000

 Dipole moment (field-independent basis, Debye):
    X=             -3.4696    Y=              0.8084    Z=              0.1395  Tot=              3.5652
 Quadrupole moment (field-independent basis, Debye-Ang):
   XX=            -27.3951   YY=            -22.0057   ZZ=            -24.8147
   XY=              1.0609   XZ=              0.1331   YZ=              0.2159

 Normal termination of Gaussian 09 at Wed Aug 26 14:02:36 2020.
