 Gaussian 09, Revision D.01,
 Gaussian 09:  ES64L-G09RevD.01 24-Apr-2013

 --------------------
 #p B2PLYPD3/Def2QZVP
 --------------------

 --------
 acrolein
 --------
 Symbolic Z-matrix:
 Charge =  0 Multiplicity = 1

                         Standard orientation:
 ---------------------------------------------------------------------
 Center     Atomic      Atomic             Coordinates (Angstroms)
 Number     Number       Type             X           Y           Z
 ---------------------------------------------------------------------
      1          6           0       -0.718470    0.386819    0.045565
      2          8           0       -1.755869   -0.164738   -0.063835
      3          6           0        0.520470   -0.444323    0.064524
      4          6           0        1.784470    0.113038   -0.064852
      5          1           0        0.454961   -1.392721    0.194373
      6          1           0        1.806358    1.230704    0.053222
      7          1           0        2.782837   -0.444705   -0.120124
      8          1           0       -0.516020    1.591420    0.111792
 ---------------------------------------------------------------------

 SCF Done:  E(RB2PLYPD3) =  -191.582740034     A.U. after   13 cycles
 E2(B2PLYPD3) =    -0.2485242815D+00 E(B2PLYPD3) =    -0.19183126431514D+03

 The electronic state is 1-A.
 Alpha  occ. eigenvalues --  -19.73497 -10.72897 -10.66755 -10.63687  -1.22121
 Alpha  occ. eigenvalues --   -0.91303  -0.73889  -0.67187  -0.56304  -0.55769
 Alpha  occ. eigenvalues --   -0.50757  -0.48320  -0.46528  -0.33878  -0.33340
 Alpha virt. eigenvalues --   -0.01727   0.05536   0.07076   0.07893   0.09756
 Alpha virt. eigenvalues --    0.11894   0.13465   0.15438   0.18181   0.19709
 Alpha virt. eigenvalues --    0.19817   0.20631   0.25054   0.25946   0.28952

 Mulliken charges:
               1
     1  C    0.166640
     2  O   -0.315759
     3  C   -0.059753
     4  C   -0.138205
     5  H    0.117727
     6  H    0.072554
     7  H    0.101231
     8  H    0.055565
 Sum of Mulliken charges =   0.00000

 Dipole moment (field-independent basis, Debye):
    X=              3.0590    Y=              0.7347    Z=              0.3261  Tot=              3.1629
 Quadrupole moment (field-independent basis, Debye-Ang):
   XX=            -26.8059   YY=            -22.1379   ZZ=            -25.4526
   XY=             -1.3280   XZ=             -0.4102   YZ=             -0.0383

 Normal termination of Gaussian 09 at Wed Aug 26 13:20:01 2020.
