 Gaussian 09, Revision D.01,
 Gaussian 09:  ES64L-G09RevD.01 24-Apr-2013

 --------------------
 #p B2PLYPD3/Def2QZVP
 --------------------

 --------
 acrolein
 --------
 Symbolic Z-matrix:
 Charge =  0 Multiplicity = 1

                         Standard orientation:
 ---------------------------------------------------------------------
 Center     Atomic      Atomic             Coordinates (Angstroms)
 Number     Number       Type             X           Y           Z
 ---------------------------------------------------------------------
      1          6           0        0.659335   -0.310500    0.028858
      2          8           0        1.783151    0.078159   -0.026466
      3          6           0       -0.541719    0.472847    0.079779
      4          6           0       -1.750850   -0.182417   -0.036087
      5          1           0       -0.479008    1.622703   -0.129502
      6          1           0       -1.830374   -1.289843    0.027829
      7          1           0       -2.706535    0.426449   -0.061274
      8          1           0        0.550111   -1.264166   -0.060627
 ---------------------------------------------------------------------

 SCF Done:  E(RB2PLYPD3) =  -191.586408855     A.U. after   13 cycles
 E2(B2PLYPD3) =    -0.2473950147D+00 E(B2PLYPD3) =    -0.19183380386928D+03

 The electronic state is 1-A.
 Alpha  occ. eigenvalues --  -19.71881 -10.69109 -10.67350 -10.65647  -1.20306
 Alpha  occ. eigenvalues --   -0.92441  -0.75906  -0.68050  -0.57217  -0.55430
 Alpha  occ. eigenvalues --   -0.49625  -0.47385  -0.46237  -0.34304  -0.33426
 Alpha virt. eigenvalues --   -0.02290   0.05536   0.06695   0.08262   0.09579
 Alpha virt. eigenvalues --    0.12588   0.13766   0.15269   0.17708   0.19641
 Alpha virt. eigenvalues --    0.19933   0.21259   0.24164   0.27320   0.28837

 Mulliken charges:
               1
     1  C    0.158267
     2  O   -0.347345
     3  C   -0.036268
     4  C   -0.130219
     5  H    0.098539
     6  H    0.091693
     7  H    0.100596
     8  H    0.064737
 Sum of Mulliken charges =   0.00000

 Dipole moment (field-independent basis, Debye):
    X=             -3.6226    Y=             -0.7378    Z=             -0.0815  Tot=              3.6979
 Quadrupole moment (field-independent basis, Debye-Ang):
   XX=            -27.5260   YY=            -21.5684   ZZ=            -25.2631
   XY=             -0.7702   XZ=              0.3154   YZ=             -0.3065

 Normal termination of Gaussian 09 at Wed Aug 26 11:10:59 2020.
