 Gaussian 09, Revision D.01,
 Gaussian 09:  ES64L-G09RevD.01 24-Apr-2013

 --------------------
 #p B2PLYPD3/Def2QZVP
 --------------------

 --------
 acrolein
 --------
 Symbolic Z-matrix:
 Charge =  0 Multiplicity = 1

                         Standard orientation:
 ---------------------------------------------------------------------
 Center     Atomic      Atomic             Coordinates (Angstroms)
 Number     Number       Type             X           Y           Z
 ---------------------------------------------------------------------
      1          6           0       -0.678590    0.355881   -0.012774
      2          8           0       -1.788941   -0.129026    0.022440
      3          6           0        0.564818   -0.446867   -0.034495
      4          6           0        1.752871    0.147112    0.020666
      5          1           0        0.450316   -1.492140   -0.037983
      6          1           0        1.820313    1.185471   -0.026418
      7          1           0        2.711388   -0.438444    0.079701
      8          1           0       -0.505082    1.440568   -0.035197
 ---------------------------------------------------------------------

 SCF Done:  E(RB2PLYPD3) =  -191.614025463     A.U. after   12 cycles
 E2(B2PLYPD3) =    -0.2469611834D+00 E(B2PLYPD3) =    -0.19186098664658D+03

 The electronic state is 1-A.
 Alpha  occ. eigenvalues --  -19.72931 -10.71675 -10.65314 -10.63994  -1.19494
 Alpha  occ. eigenvalues --   -0.93086  -0.75243  -0.67699  -0.56787  -0.56093
 Alpha  occ. eigenvalues --   -0.50650  -0.47300  -0.46669  -0.34696  -0.33880
 Alpha virt. eigenvalues --   -0.01631   0.05729   0.07276   0.08067   0.09781
 Alpha virt. eigenvalues --    0.12560   0.13879   0.15363   0.17685   0.19919
 Alpha virt. eigenvalues --    0.20038   0.21407   0.25390   0.26474   0.28705

 Mulliken charges:
               1
     1  C    0.152658
     2  O   -0.349080
     3  C   -0.037681
     4  C   -0.135429
     5  H    0.109016
     6  H    0.087947
     7  H    0.098105
     8  H    0.074464
 Sum of Mulliken charges =   0.00000

 Dipole moment (field-independent basis, Debye):
    X=              3.4380    Y=              0.8034    Z=             -0.0636  Tot=              3.5312
 Quadrupole moment (field-independent basis, Debye-Ang):
   XX=            -27.4757   YY=            -21.7540   ZZ=            -25.1731
   XY=             -0.9688   XZ=              0.2482   YZ=             -0.0583

 Normal termination of Gaussian 09 at Wed Aug 26 15:50:08 2020.
