 Gaussian 09, Revision D.01,
 Gaussian 09:  ES64L-G09RevD.01 24-Apr-2013

 --------------------
 #p B2PLYPD3/Def2QZVP
 --------------------

 --------
 acrolein
 --------
 Symbolic Z-matrix:
 Charge =  0 Multiplicity = 1

                         Standard orientation:
 ---------------------------------------------------------------------
 Center     Atomic      Atomic             Coordinates (Angstroms)
 Number     Number       Type             X           Y           Z
 ---------------------------------------------------------------------
      1          6           0       -0.673447    0.342494   -0.019723
      2          8           0       -1.807425   -0.114492    0.025663
      3          6           0        0.582712   -0.460815   -0.036672
      4          6           0        1.753509    0.159507   -0.002604
      5          1           0        0.446067   -1.561667   -0.023924
      6          1           0        1.828277    1.186623    0.001761
      7          1           0        2.656471   -0.432841    0.171038
      8          1           0       -0.448063    1.476702   -0.000194
 ---------------------------------------------------------------------

 SCF Done:  E(RB2PLYPD3) =  -191.609906981     A.U. after   13 cycles
 E2(B2PLYPD3) =    -0.2483287999D+00 E(B2PLYPD3) =    -0.19185823578101D+03

 The electronic state is 1-A.
 Alpha  occ. eigenvalues --  -19.73256 -10.72533 -10.65040 -10.64867  -1.18906
 Alpha  occ. eigenvalues --   -0.93264  -0.75290  -0.66503  -0.56338  -0.56227
 Alpha  occ. eigenvalues --   -0.50371  -0.47246  -0.46392  -0.34927  -0.33766
 Alpha virt. eigenvalues --   -0.01844   0.05774   0.06908   0.07870   0.09790
 Alpha virt. eigenvalues --    0.12669   0.13742   0.15282   0.17080   0.19696
 Alpha virt. eigenvalues --    0.20135   0.21862   0.25066   0.26580   0.28287

 Mulliken charges:
               1
     1  C    0.159740
     2  O   -0.349821
     3  C   -0.030589
     4  C   -0.130449
     5  H    0.102220
     6  H    0.091276
     7  H    0.099917
     8  H    0.057706
 Sum of Mulliken charges =   0.00000

 Dipole moment (field-independent basis, Debye):
    X=              3.5192    Y=              0.6915    Z=              0.0486  Tot=              3.5868
 Quadrupole moment (field-independent basis, Debye-Ang):
   XX=            -27.7408   YY=            -21.7797   ZZ=            -25.2517
   XY=             -0.6995   XZ=              0.5351   YZ=             -0.0772

 Normal termination of Gaussian 09 at Wed Aug 26 09:03:15 2020.
