 Gaussian 09, Revision D.01,
 Gaussian 09:  ES64L-G09RevD.01 24-Apr-2013

 --------------------
 #p B2PLYPD3/Def2QZVP
 --------------------

 --------
 acrolein
 --------
 Symbolic Z-matrix:
 Charge =  0 Multiplicity = 1

                         Standard orientation:
 ---------------------------------------------------------------------
 Center     Atomic      Atomic             Coordinates (Angstroms)
 Number     Number       Type             X           Y           Z
 ---------------------------------------------------------------------
      1          6           0       -0.668665    0.342357    0.008273
      2          8           0       -1.790706   -0.109600   -0.016385
      3          6           0        0.561724   -0.461000    0.019889
      4          6           0        1.762176    0.142033   -0.021132
      5          1           0        0.432652   -1.529193    0.035588
      6          1           0        1.883289    1.287200    0.002072
      7          1           0        2.625771   -0.432191   -0.011466
      8          1           0       -0.547466    1.410643    0.062708
 ---------------------------------------------------------------------

 SCF Done:  E(RB2PLYPD3) =  -191.611832807     A.U. after   12 cycles
 E2(B2PLYPD3) =    -0.2471317684D+00 E(B2PLYPD3) =    -0.19185896457495D+03

 The electronic state is 1-A.
 Alpha  occ. eigenvalues --  -19.72557 -10.71060 -10.65923 -10.64594  -1.19416
 Alpha  occ. eigenvalues --   -0.92754  -0.75658  -0.67136  -0.56698  -0.56187
 Alpha  occ. eigenvalues --   -0.50561  -0.47030  -0.46578  -0.34537  -0.33726
 Alpha virt. eigenvalues --   -0.01825   0.05657   0.07212   0.08225   0.09647
 Alpha virt. eigenvalues --    0.12436   0.14039   0.15364   0.17600   0.19282
 Alpha virt. eigenvalues --    0.20018   0.21821   0.25317   0.26500   0.28701

 Mulliken charges:
               1
     1  C    0.159357
     2  O   -0.351430
     3  C   -0.048934
     4  C   -0.129429
     5  H    0.106794
     6  H    0.085161
     7  H    0.105201
     8  H    0.073280
 Sum of Mulliken charges =   0.00000

 Dipole moment (field-independent basis, Debye):
    X=              3.5204    Y=              0.7261    Z=              0.0913  Tot=              3.5957
 Quadrupole moment (field-independent basis, Debye-Ang):
   XX=            -27.5544   YY=            -21.5802   ZZ=            -25.2467
   XY=             -0.8711   XZ=             -0.0963   YZ=             -0.0053

 Normal termination of Gaussian 09 at Wed Aug 26 15:58:00 2020.
