 Gaussian 09, Revision D.01,
 Gaussian 09:  ES64L-G09RevD.01 24-Apr-2013

 --------------------
 #p B2PLYPD3/Def2QZVP
 --------------------

 --------
 acrolein
 --------
 Symbolic Z-matrix:
 Charge =  0 Multiplicity = 1

                         Standard orientation:
 ---------------------------------------------------------------------
 Center     Atomic      Atomic             Coordinates (Angstroms)
 Number     Number       Type             X           Y           Z
 ---------------------------------------------------------------------
      1          6           0       -0.690330    0.353269    0.054145
      2          8           0       -1.759812   -0.148613   -0.041357
      3          6           0        0.509984   -0.421951    0.014934
      4          6           0        1.748323    0.147356   -0.056552
      5          1           0        0.523364   -1.417853    0.049342
      6          1           0        1.758339    1.131671   -0.164492
      7          1           0        2.858239   -0.499082    0.188426
      8          1           0       -0.469307    1.502123    0.182422
 ---------------------------------------------------------------------

 SCF Done:  E(RB2PLYPD3) =  -191.568407248     A.U. after   13 cycles
 E2(B2PLYPD3) =    -0.2483024992D+00 E(B2PLYPD3) =    -0.19181670974759D+03

 The electronic state is 1-A.
 Alpha  occ. eigenvalues --  -19.73075 -10.71935 -10.66779 -10.63282  -1.21469
 Alpha  occ. eigenvalues --   -0.93100  -0.75030  -0.68027  -0.57266  -0.55390
 Alpha  occ. eigenvalues --   -0.49486  -0.47750  -0.46811  -0.34223  -0.33765
 Alpha virt. eigenvalues --   -0.02324   0.04966   0.06909   0.08425   0.09750
 Alpha virt. eigenvalues --    0.12037   0.13670   0.15454   0.17761   0.19304
 Alpha virt. eigenvalues --    0.20152   0.20856   0.24779   0.26127   0.28131

 Mulliken charges:
               1
     1  C    0.141819
     2  O   -0.326689
     3  C   -0.021592
     4  C   -0.145162
     5  H    0.109894
     6  H    0.091749
     7  H    0.094777
     8  H    0.055204
 Sum of Mulliken charges =   0.00000

 Dipole moment (field-independent basis, Debye):
    X=              3.2840    Y=              0.7296    Z=              0.2668  Tot=              3.3746
 Quadrupole moment (field-independent basis, Debye-Ang):
   XX=            -27.0779   YY=            -22.1666   ZZ=            -25.2300
   XY=             -1.2332   XZ=              0.0992   YZ=             -0.3194

 Normal termination of Gaussian 09 at Wed Aug 26 11:02:44 2020.
