 Gaussian 09, Revision D.01,
 Gaussian 09:  ES64L-G09RevD.01 24-Apr-2013

 --------------------
 #p B2PLYPD3/Def2QZVP
 --------------------

 --------
 acrolein
 --------
 Symbolic Z-matrix:
 Charge =  0 Multiplicity = 1

                         Standard orientation:
 ---------------------------------------------------------------------
 Center     Atomic      Atomic             Coordinates (Angstroms)
 Number     Number       Type             X           Y           Z
 ---------------------------------------------------------------------
      1          6           0        0.692015    0.383466    0.037179
      2          8           0        1.782463   -0.156531   -0.035881
      3          6           0       -0.574437   -0.408893    0.054500
      4          6           0       -1.754207    0.149907   -0.052384
      5          1           0       -0.396382   -1.489411   -0.016468
      6          1           0       -1.728039    0.968680   -0.059918
      7          1           0       -2.783033   -0.434455    0.054140
      8          1           0        0.467522    1.460558    0.073524
 ---------------------------------------------------------------------

 SCF Done:  E(RB2PLYPD3) =  -191.525953710     A.U. after   13 cycles
 E2(B2PLYPD3) =    -0.2473530309D+00 E(B2PLYPD3) =    -0.19177330674085D+03

 The electronic state is 1-A.
 Alpha  occ. eigenvalues --  -19.73506 -10.72261 -10.63949 -10.62991  -1.19457
 Alpha  occ. eigenvalues --   -0.94663  -0.76690  -0.68591  -0.58108  -0.55663
 Alpha  occ. eigenvalues --   -0.50759  -0.46977  -0.46608  -0.35110  -0.34004
 Alpha virt. eigenvalues --   -0.01740   0.05699   0.07167   0.07932   0.10039
 Alpha virt. eigenvalues --    0.12392   0.13648   0.15190   0.17163   0.19401
 Alpha virt. eigenvalues --    0.20629   0.22680   0.25566   0.26108   0.28956

 Mulliken charges:
               1
     1  C    0.144490
     2  O   -0.347608
     3  C   -0.007231
     4  C   -0.253593
     5  H    0.101121
     6  H    0.176449
     7  H    0.107484
     8  H    0.078890
 Sum of Mulliken charges =   0.00000

 Dipole moment (field-independent basis, Debye):
    X=             -3.2817    Y=              0.9564    Z=              0.1326  Tot=              3.4208
 Quadrupole moment (field-independent basis, Debye-Ang):
   XX=            -27.2716   YY=            -21.9534   ZZ=            -24.9811
   XY=              1.1057   XZ=              0.1075   YZ=             -0.0043

 Normal termination of Gaussian 09 at Wed Aug 26 12:25:10 2020.
