 Gaussian 09, Revision D.01,
 Gaussian 09:  ES64L-G09RevD.01 24-Apr-2013

 --------------------
 #p B2PLYPD3/Def2QZVP
 --------------------

 --------
 acrolein
 --------
 Symbolic Z-matrix:
 Charge =  0 Multiplicity = 1

                         Standard orientation:
 ---------------------------------------------------------------------
 Center     Atomic      Atomic             Coordinates (Angstroms)
 Number     Number       Type             X           Y           Z
 ---------------------------------------------------------------------
      1          6           0       -0.661894    0.342700   -0.008115
      2          8           0       -1.792809   -0.110507    0.012239
      3          6           0        0.569993   -0.462732   -0.030617
      4          6           0        1.741463    0.141892    0.003284
      5          1           0        0.444223   -1.510590    0.041165
      6          1           0        1.848768    1.254059    0.026450
      7          1           0        2.652275   -0.401777    0.053961
      8          1           0       -0.500166    1.411212   -0.006801
 ---------------------------------------------------------------------

 SCF Done:  E(RB2PLYPD3) =  -191.614875408     A.U. after   12 cycles
 E2(B2PLYPD3) =    -0.2469613258D+00 E(B2PLYPD3) =    -0.19186183673354D+03

 The electronic state is 1-A.
 Alpha  occ. eigenvalues --  -19.72712 -10.71313 -10.65457 -10.64061  -1.18940
 Alpha  occ. eigenvalues --   -0.93464  -0.75564  -0.67511  -0.56803  -0.56322
 Alpha  occ. eigenvalues --   -0.50725  -0.46914  -0.46420  -0.34967  -0.33803
 Alpha virt. eigenvalues --   -0.01633   0.05693   0.07295   0.08090   0.09691
 Alpha virt. eigenvalues --    0.12618   0.14025   0.15299   0.17653   0.19612
 Alpha virt. eigenvalues --    0.19980   0.21659   0.25416   0.26660   0.28722

 Mulliken charges:
               1
     1  C    0.156386
     2  O   -0.355814
     3  C   -0.041243
     4  C   -0.124119
     5  H    0.108592
     6  H    0.081723
     7  H    0.099831
     8  H    0.074644
 Sum of Mulliken charges =   0.00000

 Dipole moment (field-independent basis, Debye):
    X=              3.5642    Y=              0.7403    Z=              0.0687  Tot=              3.6409
 Quadrupole moment (field-independent basis, Debye-Ang):
   XX=            -27.5646   YY=            -21.6805   ZZ=            -25.1301
   XY=             -0.7954   XZ=              0.2663   YZ=             -0.0736

 Normal termination of Gaussian 09 at Wed Aug 26 16:12:38 2020.
