 Gaussian 09, Revision D.01,
 Gaussian 09:  ES64L-G09RevD.01 24-Apr-2013

 --------------------
 #p B2PLYPD3/Def2QZVP
 --------------------

 --------
 acrolein
 --------
 Symbolic Z-matrix:
 Charge =  0 Multiplicity = 1

                         Standard orientation:
 ---------------------------------------------------------------------
 Center     Atomic      Atomic             Coordinates (Angstroms)
 Number     Number       Type             X           Y           Z
 ---------------------------------------------------------------------
      1          6           0        0.689021    0.371728   -0.024698
      2          8           0        1.758776   -0.137485    0.027353
      3          6           0       -0.528322   -0.429928   -0.047925
      4          6           0       -1.758122    0.125936    0.003786
      5          1           0       -0.454824   -1.534347    0.044726
      6          1           0       -1.828739    1.182372    0.062486
      7          1           0       -2.731759   -0.390618    0.093883
      8          1           0        0.529656    1.436054   -0.006895
 ---------------------------------------------------------------------

 SCF Done:  E(RB2PLYPD3) =  -191.611732855     A.U. after   12 cycles
 E2(B2PLYPD3) =    -0.2463099788D+00 E(B2PLYPD3) =    -0.19185804283382D+03

 The electronic state is 1-A.
 Alpha  occ. eigenvalues --  -19.72694 -10.71024 -10.65434 -10.64431  -1.21141
 Alpha  occ. eigenvalues --   -0.92338  -0.75481  -0.67284  -0.57255  -0.56056
 Alpha  occ. eigenvalues --   -0.50919  -0.47737  -0.45875  -0.34258  -0.33950
 Alpha virt. eigenvalues --   -0.01619   0.05779   0.07234   0.08367   0.09725
 Alpha virt. eigenvalues --    0.12488   0.14372   0.15478   0.17588   0.19689
 Alpha virt. eigenvalues --    0.19925   0.21564   0.25460   0.26431   0.28876

 Mulliken charges:
               1
     1  C    0.152274
     2  O   -0.333722
     3  C   -0.043925
     4  C   -0.130337
     5  H    0.102930
     6  H    0.072861
     7  H    0.100190
     8  H    0.079729
 Sum of Mulliken charges =   0.00000

 Dipole moment (field-independent basis, Debye):
    X=             -3.2937    Y=              0.8813    Z=              0.0897  Tot=              3.4108
 Quadrupole moment (field-independent basis, Debye-Ang):
   XX=            -26.9676   YY=            -21.8780   ZZ=            -25.1909
   XY=              1.0937   XZ=             -0.5120   YZ=             -0.0711

 Normal termination of Gaussian 09 at Wed Aug 26 09:58:21 2020.
