 Gaussian 09, Revision D.01,
 Gaussian 09:  ES64L-G09RevD.01 24-Apr-2013

 --------------------
 #p B2PLYPD3/Def2QZVP
 --------------------

 --------
 acrolein
 --------
 Symbolic Z-matrix:
 Charge =  0 Multiplicity = 1

                         Standard orientation:
 ---------------------------------------------------------------------
 Center     Atomic      Atomic             Coordinates (Angstroms)
 Number     Number       Type             X           Y           Z
 ---------------------------------------------------------------------
      1          6           0       -0.678743    0.355526   -0.010505
      2          8           0       -1.779116   -0.135692    0.015192
      3          6           0        0.565895   -0.444584   -0.011737
      4          6           0        1.743486    0.141175   -0.008583
      5          1           0        0.492282   -1.448717   -0.057504
      6          1           0        1.851978    1.196776   -0.009610
      7          1           0        2.662997   -0.429028    0.131025
      8          1           0       -0.558156    1.453808   -0.000503
 ---------------------------------------------------------------------

 SCF Done:  E(RB2PLYPD3) =  -191.612397764     A.U. after   12 cycles
 E2(B2PLYPD3) =    -0.2459431799D+00 E(B2PLYPD3) =    -0.19185834094438D+03

 The electronic state is 1-A.
 Alpha  occ. eigenvalues --  -19.72773 -10.71540 -10.64773 -10.63327  -1.19865
 Alpha  occ. eigenvalues --   -0.93434  -0.75147  -0.68054  -0.57153  -0.56467
 Alpha  occ. eigenvalues --   -0.50807  -0.47535  -0.46783  -0.34899  -0.33749
 Alpha virt. eigenvalues --   -0.01360   0.05812   0.07472   0.08159   0.09750
 Alpha virt. eigenvalues --    0.12584   0.14007   0.15370   0.18011   0.19612
 Alpha virt. eigenvalues --    0.19987   0.21666   0.25639   0.26362   0.28687

 Mulliken charges:
               1
     1  C    0.149427
     2  O   -0.344510
     3  C   -0.045392
     4  C   -0.124397
     5  H    0.112834
     6  H    0.081917
     7  H    0.093557
     8  H    0.076562
 Sum of Mulliken charges =   0.00000

 Dipole moment (field-independent basis, Debye):
    X=              3.3820    Y=              0.8062    Z=              0.0066  Tot=              3.4768
 Quadrupole moment (field-independent basis, Debye-Ang):
   XX=            -27.4139   YY=            -21.7231   ZZ=            -25.0251
   XY=             -1.0691   XZ=              0.3455   YZ=             -0.0053

 Normal termination of Gaussian 09 at Wed Aug 26 09:24:25 2020.
