 Gaussian 09, Revision D.01,
 Gaussian 09:  ES64L-G09RevD.01 24-Apr-2013

 --------------------
 #p B2PLYPD3/Def2QZVP
 --------------------

 --------
 acrolein
 --------
 Symbolic Z-matrix:
 Charge =  0 Multiplicity = 1

                         Standard orientation:
 ---------------------------------------------------------------------
 Center     Atomic      Atomic             Coordinates (Angstroms)
 Number     Number       Type             X           Y           Z
 ---------------------------------------------------------------------
      1          6           0        0.675492   -0.332507    0.073122
      2          8           0        1.778869    0.089219   -0.066040
      3          6           0       -0.587251    0.483836    0.049527
      4          6           0       -1.761604   -0.177529   -0.053318
      5          1           0       -0.339148    1.659595    0.027537
      6          1           0       -1.888427   -1.316185   -0.126663
      7          1           0       -2.623692    0.432956    0.035052
      8          1           0        0.660495   -1.332920    0.176411
 ---------------------------------------------------------------------

 SCF Done:  E(RB2PLYPD3) =  -191.588838431     A.U. after   13 cycles
 E2(B2PLYPD3) =    -0.2470120898D+00 E(B2PLYPD3) =    -0.19183585052089D+03

 The electronic state is 1-A.
 Alpha  occ. eigenvalues --  -19.72162 -10.69914 -10.66190 -10.66071  -1.20567
 Alpha  occ. eigenvalues --   -0.91776  -0.74867  -0.67186  -0.56390  -0.55662
 Alpha  occ. eigenvalues --   -0.50307  -0.46827  -0.46219  -0.34437  -0.33130
 Alpha virt. eigenvalues --   -0.01329   0.05671   0.06761   0.08151   0.09592
 Alpha virt. eigenvalues --    0.12274   0.13843   0.15519   0.17160   0.18711
 Alpha virt. eigenvalues --    0.20036   0.21564   0.25008   0.26509   0.28973

 Mulliken charges:
               1
     1  C    0.169262
     2  O   -0.343583
     3  C   -0.062307
     4  C   -0.131960
     5  H    0.102574
     6  H    0.095837
     7  H    0.103193
     8  H    0.066984
 Sum of Mulliken charges =   0.00000

 Dipole moment (field-independent basis, Debye):
    X=             -3.2838    Y=             -0.7648    Z=              0.2422  Tot=              3.3803
 Quadrupole moment (field-independent basis, Debye-Ang):
   XX=            -27.7645   YY=            -21.2771   ZZ=            -25.3750
   XY=             -0.5999   XZ=              0.4829   YZ=              0.1701

 Normal termination of Gaussian 09 at Wed Aug 26 14:38:37 2020.
