 Gaussian 09, Revision D.01,
 Gaussian 09:  ES64L-G09RevD.01 24-Apr-2013

 --------------------
 #p B2PLYPD3/Def2QZVP
 --------------------

 --------
 acrolein
 --------
 Symbolic Z-matrix:
 Charge =  0 Multiplicity = 1

                         Standard orientation:
 ---------------------------------------------------------------------
 Center     Atomic      Atomic             Coordinates (Angstroms)
 Number     Number       Type             X           Y           Z
 ---------------------------------------------------------------------
      1          6           0        0.663406    0.318145   -0.024207
      2          8           0        1.797615   -0.095379    0.020825
      3          6           0       -0.562887   -0.462233   -0.003014
      4          6           0       -1.750849    0.152932   -0.002449
      5          1           0       -0.459303   -1.538325   -0.031909
      6          1           0       -1.837003    1.203379    0.092491
      7          1           0       -2.653522   -0.372153    0.019407
      8          1           0        0.470888    1.417071   -0.068578
 ---------------------------------------------------------------------

 SCF Done:  E(RB2PLYPD3) =  -191.615072761     A.U. after   12 cycles
 E2(B2PLYPD3) =    -0.2469191382D+00 E(B2PLYPD3) =    -0.19186199189950D+03

 The electronic state is 1-A.
 Alpha  occ. eigenvalues --  -19.72770 -10.71400 -10.65160 -10.64530  -1.19572
 Alpha  occ. eigenvalues --   -0.93470  -0.76282  -0.66991  -0.57028  -0.56541
 Alpha  occ. eigenvalues --   -0.50684  -0.47523  -0.46875  -0.34783  -0.33701
 Alpha virt. eigenvalues --   -0.02036   0.05835   0.07221   0.08389   0.09711
 Alpha virt. eigenvalues --    0.12889   0.14179   0.15250   0.17357   0.19832
 Alpha virt. eigenvalues --    0.20212   0.21803   0.25167   0.26568   0.28543

 Mulliken charges:
               1
     1  C    0.154376
     2  O   -0.347431
     3  C   -0.026445
     4  C   -0.126574
     5  H    0.100915
     6  H    0.086917
     7  H    0.101262
     8  H    0.056981
 Sum of Mulliken charges =   0.00000

 Dipole moment (field-independent basis, Debye):
    X=             -3.6247    Y=              0.6218    Z=             -0.0286  Tot=              3.6778
 Quadrupole moment (field-independent basis, Debye-Ang):
   XX=            -27.2898   YY=            -21.9051   ZZ=            -25.1105
   XY=              0.6256   XZ=             -0.2787   YZ=              0.1335

 Normal termination of Gaussian 09 at Wed Aug 26 08:53:11 2020.
