 Gaussian 09, Revision D.01,
 Gaussian 09:  ES64L-G09RevD.01 24-Apr-2013

 --------------------
 #p B2PLYPD3/Def2QZVP
 --------------------

 --------
 acrolein
 --------
 Symbolic Z-matrix:
 Charge =  0 Multiplicity = 1

                         Standard orientation:
 ---------------------------------------------------------------------
 Center     Atomic      Atomic             Coordinates (Angstroms)
 Number     Number       Type             X           Y           Z
 ---------------------------------------------------------------------
      1          6           0       -0.664856    0.356811   -0.037304
      2          8           0       -1.794177   -0.132601    0.025932
      3          6           0        0.553445   -0.432961   -0.036930
      4          6           0        1.751615    0.120232    0.018626
      5          1           0        0.433397   -1.465886    0.007449
      6          1           0        1.909216    1.229893   -0.033993
      7          1           0        2.691793   -0.460333    0.090761
      8          1           0       -0.522217    1.492645    0.061975
 ---------------------------------------------------------------------

 SCF Done:  E(RB2PLYPD3) =  -191.610156242     A.U. after   13 cycles
 E2(B2PLYPD3) =    -0.2484709555D+00 E(B2PLYPD3) =    -0.19185862719706D+03

 The electronic state is 1-A.
 Alpha  occ. eigenvalues --  -19.72930 -10.72178 -10.66167 -10.63987  -1.18329
 Alpha  occ. eigenvalues --   -0.93502  -0.75496  -0.66844  -0.56654  -0.55984
 Alpha  occ. eigenvalues --   -0.50271  -0.46397  -0.46303  -0.34920  -0.33909
 Alpha virt. eigenvalues --   -0.02148   0.05544   0.07137   0.08016   0.09683
 Alpha virt. eigenvalues --    0.12245   0.13852   0.15304   0.17759   0.19430
 Alpha virt. eigenvalues --    0.19999   0.21461   0.25108   0.26635   0.28713

 Mulliken charges:
               1
     1  C    0.160458
     2  O   -0.358853
     3  C   -0.041177
     4  C   -0.119909
     5  H    0.113004
     6  H    0.081472
     7  H    0.098401
     8  H    0.066604
 Sum of Mulliken charges =   0.00000

 Dipole moment (field-independent basis, Debye):
    X=              3.6299    Y=              0.7559    Z=             -0.0208  Tot=              3.7078
 Quadrupole moment (field-independent basis, Debye-Ang):
   XX=            -27.3877   YY=            -21.8566   ZZ=            -25.2396
   XY=             -0.9400   XZ=              0.2828   YZ=             -0.0877

 Normal termination of Gaussian 09 at Wed Aug 26 10:28:19 2020.
