 Gaussian 09, Revision D.01,
 Gaussian 09:  ES64L-G09RevD.01 24-Apr-2013

 --------------------
 #p B2PLYPD3/Def2QZVP
 --------------------

 --------
 acrolein
 --------
 Symbolic Z-matrix:
 Charge =  0 Multiplicity = 1

                         Standard orientation:
 ---------------------------------------------------------------------
 Center     Atomic      Atomic             Coordinates (Angstroms)
 Number     Number       Type             X           Y           Z
 ---------------------------------------------------------------------
      1          6           0       -0.705819    0.367410    0.070833
      2          8           0       -1.769507   -0.146740   -0.079296
      3          6           0        0.556820   -0.398282    0.016469
      4          6           0        1.780982    0.144425   -0.013219
      5          1           0        0.347095   -1.627618    0.244435
      6          1           0        1.850308    1.070583   -0.205501
      7          1           0        2.792189   -0.436999   -0.101389
      8          1           0       -0.625425    1.486633    0.252329
 ---------------------------------------------------------------------

 SCF Done:  E(RB2PLYPD3) =  -191.574449350     A.U. after   14 cycles
 E2(B2PLYPD3) =    -0.2479201561D+00 E(B2PLYPD3) =    -0.19182236950623D+03

 The electronic state is 1-A.
 Alpha  occ. eigenvalues --  -19.73172 -10.72049 -10.66223 -10.64830  -1.21126
 Alpha  occ. eigenvalues --   -0.92438  -0.75702  -0.65706  -0.57797  -0.55368
 Alpha  occ. eigenvalues --   -0.50676  -0.47637  -0.44075  -0.34662  -0.33930
 Alpha virt. eigenvalues --   -0.01796   0.05558   0.06197   0.08269   0.09596
 Alpha virt. eigenvalues --    0.12256   0.13986   0.14745   0.16827   0.19173
 Alpha virt. eigenvalues --    0.20360   0.22111   0.24361   0.26804   0.28590

 Mulliken charges:
               1
     1  C    0.154328
     2  O   -0.325680
     3  C   -0.043445
     4  C   -0.130823
     5  H    0.086900
     6  H    0.092650
     7  H    0.096320
     8  H    0.069750
 Sum of Mulliken charges =   0.00000

 Dipole moment (field-independent basis, Debye):
    X=              3.1581    Y=              0.9506    Z=              0.2403  Tot=              3.3068
 Quadrupole moment (field-independent basis, Debye-Ang):
   XX=            -26.9109   YY=            -22.1530   ZZ=            -25.2747
   XY=             -0.9526   XZ=             -0.9146   YZ=             -0.4327

 Normal termination of Gaussian 09 at Wed Aug 26 11:14:05 2020.
