 Gaussian 09, Revision D.01,
 Gaussian 09:  ES64L-G09RevD.01 24-Apr-2013

 --------------------
 #p B2PLYPD3/Def2QZVP
 --------------------

 --------
 acrolein
 --------
 Symbolic Z-matrix:
 Charge =  0 Multiplicity = 1

                         Standard orientation:
 ---------------------------------------------------------------------
 Center     Atomic      Atomic             Coordinates (Angstroms)
 Number     Number       Type             X           Y           Z
 ---------------------------------------------------------------------
      1          6           0        0.665734    0.338578   -0.017252
      2          8           0        1.790421   -0.114332    0.020396
      3          6           0       -0.555427   -0.447557   -0.017169
      4          6           0       -1.753487    0.143178    0.006765
      5          1           0       -0.417106   -1.531395   -0.046605
      6          1           0       -1.850718    1.212469    0.006319
      7          1           0       -2.708011   -0.428375    0.074243
      8          1           0        0.511545    1.456761   -0.031194
 ---------------------------------------------------------------------

 SCF Done:  E(RB2PLYPD3) =  -191.615171809     A.U. after   12 cycles
 E2(B2PLYPD3) =    -0.2476392433D+00 E(B2PLYPD3) =    -0.19186281105265D+03

 The electronic state is 1-A.
 Alpha  occ. eigenvalues --  -19.72773 -10.71618 -10.66014 -10.64624  -1.19353
 Alpha  occ. eigenvalues --   -0.93157  -0.75559  -0.66634  -0.56671  -0.56078
 Alpha  occ. eigenvalues --   -0.50326  -0.46990  -0.46597  -0.34735  -0.33773
 Alpha virt. eigenvalues --   -0.02010   0.05666   0.07036   0.08349   0.09727
 Alpha virt. eigenvalues --    0.12453   0.13949   0.15305   0.17376   0.19886
 Alpha virt. eigenvalues --    0.19914   0.21436   0.25463   0.26379   0.28748

 Mulliken charges:
               1
     1  C    0.156937
     2  O   -0.350738
     3  C   -0.031515
     4  C   -0.128734
     5  H    0.104753
     6  H    0.088403
     7  H    0.101033
     8  H    0.059861
 Sum of Mulliken charges =   0.00000

 Dipole moment (field-independent basis, Debye):
    X=             -3.5739    Y=              0.7055    Z=             -0.0467  Tot=              3.6432
 Quadrupole moment (field-independent basis, Debye-Ang):
   XX=            -27.3389   YY=            -21.8606   ZZ=            -25.2518
   XY=              0.7796   XZ=             -0.2718   YZ=              0.0187

 Normal termination of Gaussian 09 at Wed Aug 26 20:04:46 2020.
