 Gaussian 09, Revision D.01,
 Gaussian 09:  ES64L-G09RevD.01 24-Apr-2013

 --------------------
 #p B2PLYPD3/Def2QZVP
 --------------------

 --------
 acrolein
 --------
 Symbolic Z-matrix:
 Charge =  0 Multiplicity = 1

                         Standard orientation:
 ---------------------------------------------------------------------
 Center     Atomic      Atomic             Coordinates (Angstroms)
 Number     Number       Type             X           Y           Z
 ---------------------------------------------------------------------
      1          6           0        0.710475    0.381796   -0.078390
      2          8           0        1.770423   -0.155138    0.069075
      3          6           0       -0.571368   -0.455368   -0.052464
      4          6           0       -1.776865    0.138251    0.023054
      5          1           0       -0.458197   -1.442772   -0.076960
      6          1           0       -1.838924    1.118520    0.152588
      7          1           0       -2.615674   -0.376072    0.107659
      8          1           0        0.575963    1.553353   -0.089086
 ---------------------------------------------------------------------

 SCF Done:  E(RB2PLYPD3) =  -191.592094959     A.U. after   13 cycles
 E2(B2PLYPD3) =    -0.2463084731D+00 E(B2PLYPD3) =    -0.19183840343196D+03

 The electronic state is 1-A.
 Alpha  occ. eigenvalues --  -19.73333 -10.72731 -10.63847 -10.62951  -1.20743
 Alpha  occ. eigenvalues --   -0.92457  -0.75547  -0.67589  -0.57574  -0.56465
 Alpha  occ. eigenvalues --   -0.51252  -0.48768  -0.47171  -0.34231  -0.33611
 Alpha virt. eigenvalues --   -0.01259   0.05998   0.07528   0.07612   0.09897
 Alpha virt. eigenvalues --    0.12788   0.13900   0.15503   0.17706   0.19640
 Alpha virt. eigenvalues --    0.20245   0.22221   0.25108   0.26319   0.28520

 Mulliken charges:
               1
     1  C    0.160339
     2  O   -0.329623
     3  C   -0.061316
     4  C   -0.126479
     5  H    0.114505
     6  H    0.079876
     7  H    0.094041
     8  H    0.068657
 Sum of Mulliken charges =   0.00000

 Dipole moment (field-independent basis, Debye):
    X=             -3.1094    Y=              0.8322    Z=             -0.0989  Tot=              3.2204
 Quadrupole moment (field-independent basis, Debye-Ang):
   XX=            -27.1397   YY=            -21.7303   ZZ=            -25.0795
   XY=              1.0983   XZ=             -0.8069   YZ=              0.1791

 Normal termination of Gaussian 09 at Wed Aug 26 14:37:42 2020.
