 Gaussian 09, Revision D.01,
 Gaussian 09:  ES64L-G09RevD.01 24-Apr-2013

 --------------------
 #p B2PLYPD3/Def2QZVP
 --------------------

 --------
 acrolein
 --------
 Symbolic Z-matrix:
 Charge =  0 Multiplicity = 1

                         Standard orientation:
 ---------------------------------------------------------------------
 Center     Atomic      Atomic             Coordinates (Angstroms)
 Number     Number       Type             X           Y           Z
 ---------------------------------------------------------------------
      1          6           0        0.646702    0.319548    0.072759
      2          8           0        1.838629   -0.080871   -0.065114
      3          6           0       -0.585791   -0.488700    0.093687
      4          6           0       -1.768869    0.136195   -0.064174
      5          1           0       -0.470664   -1.586180   -0.038757
      6          1           0       -1.991667    1.352000   -0.034681
      7          1           0       -2.439863   -0.398474   -0.084986
      8          1           0        0.440912    1.477369    0.065705
 ---------------------------------------------------------------------

 SCF Done:  E(RB2PLYPD3) =  -191.536585539     A.U. after   14 cycles
 E2(B2PLYPD3) =    -0.2516868086D+00 E(B2PLYPD3) =    -0.19178827234794D+03

 The electronic state is 1-A.
 Alpha  occ. eigenvalues --  -19.73057 -10.72960 -10.65831 -10.65358  -1.16290
 Alpha  occ. eigenvalues --   -0.94108  -0.77992  -0.65375  -0.58056  -0.54349
 Alpha  occ. eigenvalues --   -0.49668  -0.47199  -0.45097  -0.34866  -0.33660
 Alpha virt. eigenvalues --   -0.02880   0.05190   0.06754   0.07311   0.09318
 Alpha virt. eigenvalues --    0.12111   0.13695   0.15146   0.16998   0.19086
 Alpha virt. eigenvalues --    0.20002   0.22684   0.24203   0.26652   0.27977

 Mulliken charges:
               1
     1  C    0.161898
     2  O   -0.370756
     3  C   -0.031557
     4  C   -0.173198
     5  H    0.102593
     6  H    0.095013
     7  H    0.155782
     8  H    0.060225
 Sum of Mulliken charges =   0.00000

 Dipole moment (field-independent basis, Debye):
    X=             -3.9456    Y=              0.5640    Z=              0.0967  Tot=              3.9869
 Quadrupole moment (field-independent basis, Debye-Ang):
   XX=            -28.0131   YY=            -21.4465   ZZ=            -25.3987
   XY=              0.3716   XZ=              0.6233   YZ=              0.1451

 Normal termination of Gaussian 09 at Wed Aug 26 11:51:58 2020.
