 Gaussian 09, Revision D.01,
 Gaussian 09:  ES64L-G09RevD.01 24-Apr-2013

 --------------------
 #p B2PLYPD3/Def2QZVP
 --------------------

 --------
 acrolein
 --------
 Symbolic Z-matrix:
 Charge =  0 Multiplicity = 1

                         Standard orientation:
 ---------------------------------------------------------------------
 Center     Atomic      Atomic             Coordinates (Angstroms)
 Number     Number       Type             X           Y           Z
 ---------------------------------------------------------------------
      1          6           0        0.709897    0.389751   -0.065887
      2          8           0        1.737714   -0.149519    0.073350
      3          6           0       -0.538963   -0.434255   -0.060670
      4          6           0       -1.752177    0.135878    0.018680
      5          1           0       -0.467201   -1.550516   -0.013105
      6          1           0       -1.886974    1.272210    0.303260
      7          1           0       -2.679189   -0.468570    0.009260
      8          1           0        0.619106    1.394776   -0.238950
 ---------------------------------------------------------------------

 SCF Done:  E(RB2PLYPD3) =  -191.598779122     A.U. after   13 cycles
 E2(B2PLYPD3) =    -0.2456949105D+00 E(B2PLYPD3) =    -0.19184447403205D+03

 The electronic state is 1-A.
 Alpha  occ. eigenvalues --  -19.72571 -10.70490 -10.65926 -10.64381  -1.22217
 Alpha  occ. eigenvalues --   -0.91382  -0.74546  -0.67275  -0.56807  -0.55676
 Alpha  occ. eigenvalues --   -0.50973  -0.47940  -0.45246  -0.34205  -0.33457
 Alpha virt. eigenvalues --   -0.00931   0.05583   0.07256   0.07888   0.09643
 Alpha virt. eigenvalues --    0.12414   0.14066   0.15739   0.17670   0.18582
 Alpha virt. eigenvalues --    0.20093   0.21473   0.25007   0.26588   0.28497

 Mulliken charges:
               1
     1  C    0.166956
     2  O   -0.323299
     3  C   -0.080244
     4  C   -0.129922
     5  H    0.104947
     6  H    0.071483
     7  H    0.095979
     8  H    0.094100
 Sum of Mulliken charges =   0.00000

 Dipole moment (field-independent basis, Debye):
    X=             -2.9303    Y=              0.9153    Z=             -0.0735  Tot=              3.0708
 Quadrupole moment (field-independent basis, Debye-Ang):
   XX=            -27.3670   YY=            -21.5490   ZZ=            -25.2148
   XY=              1.4020   XZ=             -0.9007   YZ=              0.2391

 Normal termination of Gaussian 09 at Wed Aug 26 14:57:23 2020.
