 Gaussian 09, Revision D.01,
 Gaussian 09:  ES64L-G09RevD.01 24-Apr-2013

 --------------------
 #p B2PLYPD3/Def2QZVP
 --------------------

 --------
 acrolein
 --------
 Symbolic Z-matrix:
 Charge =  0 Multiplicity = 1

                         Standard orientation:
 ---------------------------------------------------------------------
 Center     Atomic      Atomic             Coordinates (Angstroms)
 Number     Number       Type             X           Y           Z
 ---------------------------------------------------------------------
      1          6           0       -0.637574    0.328735   -0.067873
      2          8           0       -1.816513   -0.090695    0.075544
      3          6           0        0.574383   -0.466767   -0.067820
      4          6           0        1.747752    0.122306    0.038553
      5          1           0        0.401874   -1.538646   -0.178290
      6          1           0        1.883954    1.322265   -0.014454
      7          1           0        2.525718   -0.414168    0.285910
      8          1           0       -0.386805    1.450461   -0.114681
 ---------------------------------------------------------------------

 SCF Done:  E(RB2PLYPD3) =  -191.586763652     A.U. after   14 cycles
 E2(B2PLYPD3) =    -0.2506018185D+00 E(B2PLYPD3) =    -0.19183736547057D+03

 The electronic state is 1-A.
 Alpha  occ. eigenvalues --  -19.73063 -10.72445 -10.65999 -10.64789  -1.16657
 Alpha  occ. eigenvalues --   -0.94317  -0.76910  -0.65985  -0.57907  -0.54554
 Alpha  occ. eigenvalues --   -0.50141  -0.47269  -0.45021  -0.34947  -0.33788
 Alpha virt. eigenvalues --   -0.02628   0.05271   0.06846   0.07772   0.09605
 Alpha virt. eigenvalues --    0.12241   0.13572   0.14950   0.17214   0.19301
 Alpha virt. eigenvalues --    0.19804   0.22135   0.24705   0.26821   0.28365

 Mulliken charges:
               1
     1  C    0.165530
     2  O   -0.373010
     3  C   -0.024169
     4  C   -0.119981
     5  H    0.102525
     6  H    0.081074
     7  H    0.111227
     8  H    0.056804
 Sum of Mulliken charges =   0.00000

 Dipole moment (field-independent basis, Debye):
    X=              3.8695    Y=              0.5672    Z=             -0.2076  Tot=              3.9164
 Quadrupole moment (field-independent basis, Debye-Ang):
   XX=            -28.0162   YY=            -21.7691   ZZ=            -25.1832
   XY=             -0.4761   XZ=              0.9376   YZ=             -0.0028

 Normal termination of Gaussian 09 at Wed Aug 26 12:35:34 2020.
