 Gaussian 09, Revision D.01,
 Gaussian 09:  ES64L-G09RevD.01 24-Apr-2013

 --------------------
 #p B2PLYPD3/Def2QZVP
 --------------------

 --------
 acrolein
 --------
 Symbolic Z-matrix:
 Charge =  0 Multiplicity = 1

                         Standard orientation:
 ---------------------------------------------------------------------
 Center     Atomic      Atomic             Coordinates (Angstroms)
 Number     Number       Type             X           Y           Z
 ---------------------------------------------------------------------
      1          6           0        0.672046    0.356352    0.007070
      2          8           0        1.791302   -0.117489   -0.005662
      3          6           0       -0.565807   -0.458549   -0.011946
      4          6           0       -1.762065    0.141216   -0.012998
      5          1           0       -0.431482   -1.547640    0.065477
      6          1           0       -1.846977    1.249933    0.015108
      7          1           0       -2.635247   -0.413445    0.033763
      8          1           0        0.518248    1.416946    0.038193
 ---------------------------------------------------------------------

 SCF Done:  E(RB2PLYPD3) =  -191.613719641     A.U. after   12 cycles
 E2(B2PLYPD3) =    -0.2472633651D+00 E(B2PLYPD3) =    -0.19186098300627D+03

 The electronic state is 1-A.
 Alpha  occ. eigenvalues --  -19.72765 -10.71362 -10.65309 -10.64699  -1.19181
 Alpha  occ. eigenvalues --   -0.92749  -0.75682  -0.67158  -0.56714  -0.56260
 Alpha  occ. eigenvalues --   -0.50700  -0.46990  -0.46369  -0.34554  -0.33879
 Alpha virt. eigenvalues --   -0.01745   0.05754   0.07176   0.08010   0.09704
 Alpha virt. eigenvalues --    0.12575   0.14076   0.15339   0.17450   0.19599
 Alpha virt. eigenvalues --    0.19981   0.21863   0.25296   0.26641   0.28756

 Mulliken charges:
               1
     1  C    0.158272
     2  O   -0.352157
     3  C   -0.045729
     4  C   -0.131467
     5  H    0.104459
     6  H    0.082124
     7  H    0.105154
     8  H    0.079344
 Sum of Mulliken charges =   0.00000

 Dipole moment (field-independent basis, Debye):
    X=             -3.4794    Y=              0.7958    Z=              0.1384  Tot=              3.5720
 Quadrupole moment (field-independent basis, Debye-Ang):
   XX=            -27.6055   YY=            -21.5853   ZZ=            -25.2308
   XY=              0.9090   XZ=             -0.1227   YZ=             -0.0852

 Normal termination of Gaussian 09 at Wed Aug 26 16:17:51 2020.
