 Gaussian 09, Revision D.01,
 Gaussian 09:  ES64L-G09RevD.01 24-Apr-2013

 --------------------
 #p B2PLYPD3/Def2QZVP
 --------------------

 --------
 acrolein
 --------
 Symbolic Z-matrix:
 Charge =  0 Multiplicity = 1

                         Standard orientation:
 ---------------------------------------------------------------------
 Center     Atomic      Atomic             Coordinates (Angstroms)
 Number     Number       Type             X           Y           Z
 ---------------------------------------------------------------------
      1          6           0       -0.669209    0.339136    0.027216
      2          8           0       -1.793990   -0.108517   -0.033527
      3          6           0        0.566714   -0.446811    0.033614
      4          6           0        1.767825    0.137091   -0.033802
      5          1           0        0.447724   -1.556218    0.033206
      6          1           0        1.923513    1.257171   -0.058570
      7          1           0        2.553786   -0.414300    0.014231
      8          1           0       -0.565086    1.404986    0.117180
 ---------------------------------------------------------------------

 SCF Done:  E(RB2PLYPD3) =  -191.601840088     A.U. after   13 cycles
 E2(B2PLYPD3) =    -0.2468448964D+00 E(B2PLYPD3) =    -0.19184868498483D+03

 The electronic state is 1-A.
 Alpha  occ. eigenvalues --  -19.72586 -10.71055 -10.64916 -10.64775  -1.19291
 Alpha  occ. eigenvalues --   -0.93156  -0.76715  -0.66803  -0.57387  -0.56474
 Alpha  occ. eigenvalues --   -0.50781  -0.46953  -0.46508  -0.34675  -0.33749
 Alpha virt. eigenvalues --   -0.01937   0.05815   0.07125   0.08373   0.09631
 Alpha virt. eigenvalues --    0.12570   0.14207   0.15432   0.17320   0.19294
 Alpha virt. eigenvalues --    0.20080   0.22466   0.25334   0.26387   0.28468

 Mulliken charges:
               1
     1  C    0.157742
     2  O   -0.350858
     3  C   -0.044807
     4  C   -0.128828
     5  H    0.098452
     6  H    0.084875
     7  H    0.109784
     8  H    0.073639
 Sum of Mulliken charges =   0.00000

 Dipole moment (field-independent basis, Debye):
    X=              3.5535    Y=              0.7367    Z=              0.1367  Tot=              3.6316
 Quadrupole moment (field-independent basis, Debye-Ang):
   XX=            -27.4675   YY=            -21.6018   ZZ=            -25.1475
   XY=             -0.8354   XZ=             -0.2292   YZ=             -0.0638

 Normal termination of Gaussian 09 at Wed Aug 26 09:48:03 2020.
