 Gaussian 09, Revision D.01,
 Gaussian 09:  ES64L-G09RevD.01 24-Apr-2013

 --------------------
 #p B2PLYPD3/Def2QZVP
 --------------------

 --------
 acrolein
 --------
 Symbolic Z-matrix:
 Charge =  0 Multiplicity = 1

                         Standard orientation:
 ---------------------------------------------------------------------
 Center     Atomic      Atomic             Coordinates (Angstroms)
 Number     Number       Type             X           Y           Z
 ---------------------------------------------------------------------
      1          6           0        0.670315    0.348277   -0.015110
      2          8           0        1.787572   -0.115659    0.018218
      3          6           0       -0.561270   -0.462390   -0.018037
      4          6           0       -1.758830    0.145223   -0.001250
      5          1           0       -0.443256   -1.559642   -0.034911
      6          1           0       -1.834198    1.248569    0.003018
      7          1           0       -2.656342   -0.398047    0.104398
      8          1           0        0.531930    1.447735   -0.011868
 ---------------------------------------------------------------------

 SCF Done:  E(RB2PLYPD3) =  -191.615247565     A.U. after   12 cycles
 E2(B2PLYPD3) =    -0.2474236453D+00 E(B2PLYPD3) =    -0.19186267121044D+03

 The electronic state is 1-A.
 Alpha  occ. eigenvalues --  -19.72716 -10.71574 -10.65576 -10.64875  -1.19496
 Alpha  occ. eigenvalues --   -0.92683  -0.75373  -0.66682  -0.56561  -0.56252
 Alpha  occ. eigenvalues --   -0.50494  -0.46997  -0.46617  -0.34520  -0.33776
 Alpha virt. eigenvalues --   -0.01785   0.05758   0.07089   0.08075   0.09699
 Alpha virt. eigenvalues --    0.12511   0.14119   0.15349   0.17316   0.19722
 Alpha virt. eigenvalues --    0.19894   0.21719   0.25297   0.26385   0.28863

 Mulliken charges:
               1
     1  C    0.156546
     2  O   -0.347654
     3  C   -0.042923
     4  C   -0.128691
     5  H    0.104877
     6  H    0.082761
     7  H    0.104304
     8  H    0.070780
 Sum of Mulliken charges =   0.00000

 Dipole moment (field-independent basis, Debye):
    X=             -3.4840    Y=              0.7398    Z=              0.0020  Tot=              3.5617
 Quadrupole moment (field-independent basis, Debye-Ang):
   XX=            -27.4980   YY=            -21.6519   ZZ=            -25.2747
   XY=              0.9056   XZ=             -0.3411   YZ=             -0.0104

 Normal termination of Gaussian 09 at Wed Aug 26 16:13:17 2020.
