 Gaussian 09, Revision D.01,
 Gaussian 09:  ES64L-G09RevD.01 24-Apr-2013

 --------------------
 #p B2PLYPD3/Def2QZVP
 --------------------

 --------
 acrolein
 --------
 Symbolic Z-matrix:
 Charge =  0 Multiplicity = 1

                         Standard orientation:
 ---------------------------------------------------------------------
 Center     Atomic      Atomic             Coordinates (Angstroms)
 Number     Number       Type             X           Y           Z
 ---------------------------------------------------------------------
      1          6           0        0.663850    0.338333   -0.008950
      2          8           0        1.786141   -0.116019    0.021195
      3          6           0       -0.558676   -0.444605   -0.037094
      4          6           0       -1.748724    0.149827    0.012857
      5          1           0       -0.447488   -1.522026   -0.017546
      6          1           0       -1.812213    1.190208   -0.000623
      7          1           0       -2.689180   -0.419712    0.090494
      8          1           0        0.521050    1.418351   -0.042762
 ---------------------------------------------------------------------

 SCF Done:  E(RB2PLYPD3) =  -191.615536178     A.U. after   12 cycles
 E2(B2PLYPD3) =    -0.2468166681D+00 E(B2PLYPD3) =    -0.19186235284635D+03

 The electronic state is 1-A.
 Alpha  occ. eigenvalues --  -19.72629 -10.71170 -10.65374 -10.64272  -1.19384
 Alpha  occ. eigenvalues --   -0.93454  -0.75821  -0.67397  -0.57068  -0.56328
 Alpha  occ. eigenvalues --   -0.50431  -0.47233  -0.46756  -0.34754  -0.33812
 Alpha virt. eigenvalues --   -0.01870   0.05766   0.07164   0.08376   0.09762
 Alpha virt. eigenvalues --    0.12655   0.14050   0.15318   0.17488   0.19907
 Alpha virt. eigenvalues --    0.20093   0.21543   0.25448   0.26434   0.28841

 Mulliken charges:
               1
     1  C    0.150489
     2  O   -0.351948
     3  C   -0.028391
     4  C   -0.132689
     5  H    0.103862
     6  H    0.088898
     7  H    0.101633
     8  H    0.068146
 Sum of Mulliken charges =   0.00000

 Dipole moment (field-independent basis, Debye):
    X=             -3.5602    Y=              0.7472    Z=             -0.0081  Tot=              3.6378
 Quadrupole moment (field-independent basis, Debye-Ang):
   XX=            -27.3915   YY=            -21.7897   ZZ=            -25.1254
   XY=              0.9103   XZ=             -0.3310   YZ=             -0.0617

 Normal termination of Gaussian 09 at Wed Aug 26 14:26:19 2020.
