 Gaussian 09, Revision D.01,
 Gaussian 09:  ES64L-G09RevD.01 24-Apr-2013

 --------------------
 #p B2PLYPD3/Def2QZVP
 --------------------

 --------
 acrolein
 --------
 Symbolic Z-matrix:
 Charge =  0 Multiplicity = 1

                         Standard orientation:
 ---------------------------------------------------------------------
 Center     Atomic      Atomic             Coordinates (Angstroms)
 Number     Number       Type             X           Y           Z
 ---------------------------------------------------------------------
      1          6           0        0.658911    0.338161    0.022726
      2          8           0        1.795813   -0.118027   -0.015477
      3          6           0       -0.563849   -0.449144    0.017342
      4          6           0       -1.750143    0.149921   -0.011861
      5          1           0       -0.453708   -1.510583    0.001586
      6          1           0       -1.807470    1.195275    0.012158
      7          1           0       -2.674784   -0.433330   -0.037453
      8          1           0        0.499941    1.459224   -0.021715
 ---------------------------------------------------------------------

 SCF Done:  E(RB2PLYPD3) =  -191.614417729     A.U. after   12 cycles
 E2(B2PLYPD3) =    -0.2478254155D+00 E(B2PLYPD3) =    -0.19186224314407D+03

 The electronic state is 1-A.
 Alpha  occ. eigenvalues --  -19.72819 -10.71861 -10.65397 -10.64265  -1.18595
 Alpha  occ. eigenvalues --   -0.93642  -0.75774  -0.67098  -0.56683  -0.56364
 Alpha  occ. eigenvalues --   -0.50170  -0.47518  -0.46410  -0.34832  -0.33814
 Alpha virt. eigenvalues --   -0.02071   0.05750   0.07054   0.08172   0.09791
 Alpha virt. eigenvalues --    0.12620   0.13851   0.15273   0.17428   0.19892
 Alpha virt. eigenvalues --    0.20144   0.21553   0.25375   0.26433   0.28873

 Mulliken charges:
               1
     1  C    0.153342
     2  O   -0.356680
     3  C   -0.027256
     4  C   -0.130749
     5  H    0.105887
     6  H    0.090949
     7  H    0.102622
     8  H    0.061884
 Sum of Mulliken charges =   0.00000

 Dipole moment (field-independent basis, Debye):
    X=             -3.6356    Y=              0.7029    Z=              0.0318  Tot=              3.7031
 Quadrupole moment (field-independent basis, Debye-Ang):
   XX=            -27.5308   YY=            -21.7816   ZZ=            -25.1862
   XY=              0.9177   XZ=              0.1395   YZ=              0.0299

 Normal termination of Gaussian 09 at Wed Aug 26 16:31:19 2020.
