 Gaussian 09, Revision D.01,
 Gaussian 09:  ES64L-G09RevD.01 24-Apr-2013

 --------------------
 #p B2PLYPD3/Def2QZVP
 --------------------

 --------
 acrolein
 --------
 Symbolic Z-matrix:
 Charge =  0 Multiplicity = 1

                         Standard orientation:
 ---------------------------------------------------------------------
 Center     Atomic      Atomic             Coordinates (Angstroms)
 Number     Number       Type             X           Y           Z
 ---------------------------------------------------------------------
      1          6           0        0.676443    0.375246    0.006776
      2          8           0        1.775905   -0.162680   -0.032092
      3          6           0       -0.537459   -0.433046    0.013852
      4          6           0       -1.728001    0.120110   -0.012942
      5          1           0       -0.564589   -1.402030    0.149680
      6          1           0       -1.688662    1.213807   -0.155393
      7          1           0       -2.815623   -0.452657   -0.023482
      8          1           0        0.395739    1.568459    0.239815
 ---------------------------------------------------------------------

 SCF Done:  E(RB2PLYPD3) =  -191.573811610     A.U. after   13 cycles
 E2(B2PLYPD3) =    -0.2502526750D+00 E(B2PLYPD3) =    -0.19182406428490D+03

 The electronic state is 1-A.
 Alpha  occ. eigenvalues --  -19.73725 -10.73642 -10.66428 -10.62813  -1.19398
 Alpha  occ. eigenvalues --   -0.93967  -0.73944  -0.67405  -0.56040  -0.55129
 Alpha  occ. eigenvalues --   -0.50072  -0.46846  -0.45639  -0.35133  -0.34085
 Alpha virt. eigenvalues --   -0.01832   0.05215   0.06310   0.07737   0.09703
 Alpha virt. eigenvalues --    0.12177   0.13188   0.15103   0.18114   0.18951
 Alpha virt. eigenvalues --    0.20134   0.20393   0.24578   0.26576   0.28562

 Mulliken charges:
               1
     1  C    0.157615
     2  O   -0.338378
     3  C   -0.029984
     4  C   -0.114983
     5  H    0.107729
     6  H    0.065883
     7  H    0.096261
     8  H    0.055858
 Sum of Mulliken charges =   0.00000

 Dipole moment (field-independent basis, Debye):
    X=             -3.4030    Y=              0.6901    Z=              0.1453  Tot=              3.4753
 Quadrupole moment (field-independent basis, Debye-Ang):
   XX=            -27.2773   YY=            -22.2541   ZZ=            -25.2824
   XY=              1.4587   XZ=              0.2819   YZ=             -0.2329

 Normal termination of Gaussian 09 at Wed Aug 26 14:31:57 2020.
