 Gaussian 09, Revision D.01,
 Gaussian 09:  ES64L-G09RevD.01 24-Apr-2013

 --------------------
 #p B2PLYPD3/Def2QZVP
 --------------------

 --------
 acrolein
 --------
 Symbolic Z-matrix:
 Charge =  0 Multiplicity = 1

                         Standard orientation:
 ---------------------------------------------------------------------
 Center     Atomic      Atomic             Coordinates (Angstroms)
 Number     Number       Type             X           Y           Z
 ---------------------------------------------------------------------
      1          6           0       -0.682679    0.366398    0.029894
      2          8           0       -1.775997   -0.130530   -0.029866
      3          6           0        0.554895   -0.430138    0.031656
      4          6           0        1.760056    0.133878   -0.027454
      5          1           0        0.406077   -1.566095    0.000334
      6          1           0        1.863897    1.169567   -0.089823
      7          1           0        2.653397   -0.430147    0.035721
      8          1           0       -0.509022    1.450083    0.088125
 ---------------------------------------------------------------------

 SCF Done:  E(RB2PLYPD3) =  -191.612821253     A.U. after   13 cycles
 E2(B2PLYPD3) =    -0.2467167267D+00 E(B2PLYPD3) =    -0.19185953798019D+03

 The electronic state is 1-A.
 Alpha  occ. eigenvalues --  -19.72929 -10.71500 -10.64784 -10.64609  -1.20124
 Alpha  occ. eigenvalues --   -0.92807  -0.75860  -0.66629  -0.56965  -0.56441
 Alpha  occ. eigenvalues --   -0.50981  -0.47078  -0.46304  -0.34623  -0.33877
 Alpha virt. eigenvalues --   -0.01672   0.05861   0.07077   0.08271   0.09812
 Alpha virt. eigenvalues --    0.12652   0.14003   0.15467   0.17142   0.19647
 Alpha virt. eigenvalues --    0.20075   0.22061   0.25583   0.26479   0.28580

 Mulliken charges:
               1
     1  C    0.158532
     2  O   -0.342956
     3  C   -0.040024
     4  C   -0.133346
     5  H    0.097981
     6  H    0.082349
     7  H    0.104309
     8  H    0.073155
 Sum of Mulliken charges =   0.00000

 Dipole moment (field-independent basis, Debye):
    X=              3.3724    Y=              0.8449    Z=              0.0803  Tot=              3.4775
 Quadrupole moment (field-independent basis, Debye-Ang):
   XX=            -27.2776   YY=            -21.7753   ZZ=            -25.1810
   XY=             -0.8784   XZ=             -0.2056   YZ=             -0.0681

 Normal termination of Gaussian 09 at Wed Aug 26 08:35:41 2020.
