 Gaussian 09, Revision D.01,
 Gaussian 09:  ES64L-G09RevD.01 24-Apr-2013

 --------------------
 #p B2PLYPD3/Def2QZVP
 --------------------

 --------
 acrolein
 --------
 Symbolic Z-matrix:
 Charge =  0 Multiplicity = 1

                         Standard orientation:
 ---------------------------------------------------------------------
 Center     Atomic      Atomic             Coordinates (Angstroms)
 Number     Number       Type             X           Y           Z
 ---------------------------------------------------------------------
      1          6           0        0.694829    0.376583    0.006224
      2          8           0        1.780164   -0.152389   -0.024234
      3          6           0       -0.558854   -0.445176    0.039594
      4          6           0       -1.747456    0.135220   -0.024518
      5          1           0       -0.522456   -1.476215    0.050706
      6          1           0       -1.852386    1.188733    0.003128
      7          1           0       -2.713267   -0.428999   -0.068397
      8          1           0        0.515688    1.535825    0.080632
 ---------------------------------------------------------------------

 SCF Done:  E(RB2PLYPD3) =  -191.608879253     A.U. after   12 cycles
 E2(B2PLYPD3) =    -0.2473736234D+00 E(B2PLYPD3) =    -0.19185625287666D+03

 The electronic state is 1-A.
 Alpha  occ. eigenvalues --  -19.73282 -10.72797 -10.64994 -10.63780  -1.20048
 Alpha  occ. eigenvalues --   -0.92769  -0.74376  -0.67125  -0.56380  -0.56171
 Alpha  occ. eigenvalues --   -0.50645  -0.47112  -0.46687  -0.34688  -0.33886
 Alpha virt. eigenvalues --   -0.01319   0.05723   0.07096   0.07887   0.09715
 Alpha virt. eigenvalues --    0.12386   0.13815   0.15430   0.17800   0.19788
 Alpha virt. eigenvalues --    0.20022   0.21218   0.25541   0.26115   0.28454

 Mulliken charges:
               1
     1  C    0.157514
     2  O   -0.335655
     3  C   -0.049424
     4  C   -0.126164
     5  H    0.110855
     6  H    0.079168
     7  H    0.091884
     8  H    0.071822
 Sum of Mulliken charges =   0.00000

 Dipole moment (field-independent basis, Debye):
    X=             -3.2952    Y=              0.8308    Z=              0.0736  Tot=              3.3991
 Quadrupole moment (field-independent basis, Debye-Ang):
   XX=            -27.3122   YY=            -21.7908   ZZ=            -25.2560
   XY=              1.1337   XZ=              0.2530   YZ=              0.0316

 Normal termination of Gaussian 09 at Wed Aug 26 09:20:57 2020.
