 Gaussian 09, Revision D.01,
 Gaussian 09:  ES64L-G09RevD.01 24-Apr-2013

 --------------------
 #p B2PLYPD3/Def2QZVP
 --------------------

 --------
 acrolein
 --------
 Symbolic Z-matrix:
 Charge =  0 Multiplicity = 1

                         Standard orientation:
 ---------------------------------------------------------------------
 Center     Atomic      Atomic             Coordinates (Angstroms)
 Number     Number       Type             X           Y           Z
 ---------------------------------------------------------------------
      1          6           0        0.701623    0.386403   -0.024328
      2          8           0        1.776499   -0.167126    0.009764
      3          6           0       -0.540650   -0.412350   -0.022976
      4          6           0       -1.772439    0.092106   -0.023696
      5          1           0       -0.463682   -1.523622    0.081864
      6          1           0       -1.831772    1.229092    0.003154
      7          1           0       -2.707122   -0.432092    0.138921
      8          1           0        0.459377    1.666675    0.123952
 ---------------------------------------------------------------------

 SCF Done:  E(RB2PLYPD3) =  -191.589042931     A.U. after   13 cycles
 E2(B2PLYPD3) =    -0.2503710178D+00 E(B2PLYPD3) =    -0.19183941394856D+03

 The electronic state is 1-A.
 Alpha  occ. eigenvalues --  -19.74073 -10.74144 -10.65836 -10.64869  -1.20561
 Alpha  occ. eigenvalues --   -0.92448  -0.74689  -0.64394  -0.56914  -0.54955
 Alpha  occ. eigenvalues --   -0.50800  -0.47494  -0.44654  -0.34791  -0.34007
 Alpha virt. eigenvalues --   -0.02033   0.05215   0.06365   0.08107   0.09737
 Alpha virt. eigenvalues --    0.11983   0.13441   0.15368   0.17001   0.19390
 Alpha virt. eigenvalues --    0.19524   0.21697   0.25050   0.26282   0.28381

 Mulliken charges:
               1
     1  C    0.172956
     2  O   -0.323057
     3  C   -0.040546
     4  C   -0.117141
     5  H    0.099382
     6  H    0.062900
     7  H    0.108562
     8  H    0.036944
 Sum of Mulliken charges =   0.00000

 Dipole moment (field-independent basis, Debye):
    X=             -3.2742    Y=              0.6455    Z=              0.1834  Tot=              3.3423
 Quadrupole moment (field-independent basis, Debye-Ang):
   XX=            -26.9739   YY=            -22.3551   ZZ=            -25.4961
   XY=              1.2133   XZ=             -0.4933   YZ=             -0.1312

 Normal termination of Gaussian 09 at Wed Aug 26 10:37:09 2020.
