 Gaussian 09, Revision D.01,
 Gaussian 09:  ES64L-G09RevD.01 24-Apr-2013

 --------------------
 #p B2PLYPD3/Def2QZVP
 --------------------

 --------
 acrolein
 --------
 Symbolic Z-matrix:
 Charge =  0 Multiplicity = 1

                         Standard orientation:
 ---------------------------------------------------------------------
 Center     Atomic      Atomic             Coordinates (Angstroms)
 Number     Number       Type             X           Y           Z
 ---------------------------------------------------------------------
      1          6           0       -0.679152    0.361828    0.071640
      2          8           0       -1.765648   -0.148699   -0.078542
      3          6           0        0.539786   -0.419019    0.036354
      4          6           0        1.756283    0.152245   -0.055642
      5          1           0        0.394330   -1.587218    0.253498
      6          1           0        1.745406    1.070001   -0.054745
      7          1           0        2.835743   -0.439198   -0.085486
      8          1           0       -0.551798    1.575682    0.200963
 ---------------------------------------------------------------------

 SCF Done:  E(RB2PLYPD3) =  -191.560807207     A.U. after   13 cycles
 E2(B2PLYPD3) =    -0.2496390909D+00 E(B2PLYPD3) =    -0.19181044629827D+03

 The electronic state is 1-A.
 Alpha  occ. eigenvalues --  -19.73245 -10.72850 -10.65704 -10.65408  -1.20015
 Alpha  occ. eigenvalues --   -0.93277  -0.75756  -0.65495  -0.57038  -0.55217
 Alpha  occ. eigenvalues --   -0.49761  -0.47540  -0.45215  -0.34490  -0.33893
 Alpha virt. eigenvalues --   -0.02108   0.05336   0.05954   0.08204   0.09659
 Alpha virt. eigenvalues --    0.11847   0.13772   0.14852   0.16838   0.19699
 Alpha virt. eigenvalues --    0.20229   0.21736   0.25080   0.25991   0.29588

 Mulliken charges:
               1
     1  C    0.149460
     2  O   -0.335068
     3  C   -0.016217
     4  C   -0.152475
     5  H    0.095014
     6  H    0.105637
     7  H    0.105342
     8  H    0.048306
 Sum of Mulliken charges =   0.00000

 Dipole moment (field-independent basis, Debye):
    X=              3.3726    Y=              0.7765    Z=              0.3887  Tot=              3.4826
 Quadrupole moment (field-independent basis, Debye-Ang):
   XX=            -26.9680   YY=            -22.1454   ZZ=            -25.3974
   XY=             -1.0791   XZ=             -0.5443   YZ=             -0.2992

 Normal termination of Gaussian 09 at Wed Aug 26 13:34:22 2020.
