 Gaussian 09, Revision D.01,
 Gaussian 09:  ES64L-G09RevD.01 24-Apr-2013

 --------------------
 #p B2PLYPD3/Def2QZVP
 --------------------

 --------
 acrolein
 --------
 Symbolic Z-matrix:
 Charge =  0 Multiplicity = 1

                         Standard orientation:
 ---------------------------------------------------------------------
 Center     Atomic      Atomic             Coordinates (Angstroms)
 Number     Number       Type             X           Y           Z
 ---------------------------------------------------------------------
      1          6           0        0.662241    0.363035    0.024139
      2          8           0        1.778018   -0.127330   -0.036142
      3          6           0       -0.545288   -0.432400    0.044172
      4          6           0       -1.747356    0.123993   -0.030883
      5          1           0       -0.428501   -1.483649    0.048729
      6          1           0       -1.844094    1.202006   -0.038982
      7          1           0       -2.678436   -0.420197   -0.050185
      8          1           0        0.509314    1.392712    0.105007
 ---------------------------------------------------------------------

 SCF Done:  E(RB2PLYPD3) =  -191.613935702     A.U. after   13 cycles
 E2(B2PLYPD3) =    -0.2467843302D+00 E(B2PLYPD3) =    -0.19186072003205D+03

 The electronic state is 1-A.
 Alpha  occ. eigenvalues --  -19.72607 -10.70834 -10.65362 -10.63760  -1.18879
 Alpha  occ. eigenvalues --   -0.93489  -0.76233  -0.68186  -0.57052  -0.56584
 Alpha  occ. eigenvalues --   -0.50746  -0.46831  -0.46408  -0.34664  -0.34064
 Alpha virt. eigenvalues --   -0.01926   0.05706   0.07394   0.08286   0.09737
 Alpha virt. eigenvalues --    0.12601   0.14180   0.15376   0.17757   0.19553
 Alpha virt. eigenvalues --    0.20087   0.21603   0.25620   0.26585   0.28913

 Mulliken charges:
               1
     1  C    0.153131
     2  O   -0.359561
     3  C   -0.036367
     4  C   -0.128585
     5  H    0.108793
     6  H    0.076965
     7  H    0.100947
     8  H    0.084678
 Sum of Mulliken charges =   0.00000

 Dipole moment (field-independent basis, Debye):
    X=             -3.5619    Y=              0.8505    Z=              0.1151  Tot=              3.6639
 Quadrupole moment (field-independent basis, Debye-Ang):
   XX=            -27.3559   YY=            -21.7294   ZZ=            -25.0660
   XY=              0.9875   XZ=              0.3524   YZ=             -0.0117

 Normal termination of Gaussian 09 at Wed Aug 26 09:28:46 2020.
