 Gaussian 09, Revision D.01,
 Gaussian 09:  ES64L-G09RevD.01 24-Apr-2013

 --------------------
 #p B2PLYPD3/Def2QZVP
 --------------------

 --------
 acrolein
 --------
 Symbolic Z-matrix:
 Charge =  0 Multiplicity = 1

                         Standard orientation:
 ---------------------------------------------------------------------
 Center     Atomic      Atomic             Coordinates (Angstroms)
 Number     Number       Type             X           Y           Z
 ---------------------------------------------------------------------
      1          6           0       -0.658971    0.337921   -0.031004
      2          8           0       -1.802409   -0.105961    0.024444
      3          6           0        0.571432   -0.454247   -0.026052
      4          6           0        1.755544    0.146860    0.019853
      5          1           0        0.427935   -1.540829   -0.016240
      6          1           0        1.865900    1.254770   -0.008819
      7          1           0        2.651400   -0.425567    0.050748
      8          1           0       -0.533995    1.376107    0.001978
 ---------------------------------------------------------------------

 SCF Done:  E(RB2PLYPD3) =  -191.612531545     A.U. after   12 cycles
 E2(B2PLYPD3) =    -0.2475523427D+00 E(B2PLYPD3) =    -0.19186008388745D+03

 The electronic state is 1-A.
 Alpha  occ. eigenvalues --  -19.72579 -10.70947 -10.65783 -10.64663  -1.18323
 Alpha  occ. eigenvalues --   -0.93322  -0.76020  -0.67492  -0.56611  -0.56501
 Alpha  occ. eigenvalues --   -0.50375  -0.46818  -0.46143  -0.34812  -0.33834
 Alpha virt. eigenvalues --   -0.02008   0.05654   0.07180   0.08120   0.09665
 Alpha virt. eigenvalues --    0.12576   0.14044   0.15280   0.17510   0.19523
 Alpha virt. eigenvalues --    0.20028   0.21739   0.25265   0.26742   0.28735

 Mulliken charges:
               1
     1  C    0.157990
     2  O   -0.363020
     3  C   -0.038238
     4  C   -0.129198
     5  H    0.104453
     6  H    0.087083
     7  H    0.103834
     8  H    0.077096
 Sum of Mulliken charges =   0.00000

 Dipole moment (field-independent basis, Debye):
    X=              3.6545    Y=              0.7646    Z=             -0.0677  Tot=              3.7342
 Quadrupole moment (field-independent basis, Debye-Ang):
   XX=            -27.6611   YY=            -21.6075   ZZ=            -25.1897
   XY=             -0.8128   XZ=              0.2149   YZ=             -0.0289

 Normal termination of Gaussian 09 at Wed Aug 26 20:34:22 2020.
