 Gaussian 09, Revision D.01,
 Gaussian 09:  ES64L-G09RevD.01 24-Apr-2013

 --------------------
 #p B2PLYPD3/Def2QZVP
 --------------------

 --------
 acrolein
 --------
 Symbolic Z-matrix:
 Charge =  0 Multiplicity = 1

                         Standard orientation:
 ---------------------------------------------------------------------
 Center     Atomic      Atomic             Coordinates (Angstroms)
 Number     Number       Type             X           Y           Z
 ---------------------------------------------------------------------
      1          6           0        0.676065    0.360174    0.003616
      2          8           0        1.786632   -0.130822   -0.016813
      3          6           0       -0.563691   -0.456222    0.014828
      4          6           0       -1.750387    0.140940   -0.006222
      5          1           0       -0.465377   -1.494677    0.047477
      6          1           0       -1.816314    1.206675   -0.056440
      7          1           0       -2.685777   -0.409900   -0.029731
      8          1           0        0.502492    1.475122    0.099869
 ---------------------------------------------------------------------

 SCF Done:  E(RB2PLYPD3) =  -191.615024367     A.U. after   12 cycles
 E2(B2PLYPD3) =    -0.2472384494D+00 E(B2PLYPD3) =    -0.19186226281624D+03

 The electronic state is 1-A.
 Alpha  occ. eigenvalues --  -19.72999 -10.72096 -10.65118 -10.63997  -1.19407
 Alpha  occ. eigenvalues --   -0.93037  -0.75063  -0.67320  -0.56522  -0.56325
 Alpha  occ. eigenvalues --   -0.50679  -0.47288  -0.46626  -0.34719  -0.33850
 Alpha virt. eigenvalues --   -0.01581   0.05780   0.07225   0.07918   0.09762
 Alpha virt. eigenvalues --    0.12581   0.13942   0.15358   0.17631   0.19660
 Alpha virt. eigenvalues --    0.20139   0.21458   0.25378   0.26475   0.28790

 Mulliken charges:
               1
     1  C    0.154996
     2  O   -0.347020
     3  C   -0.043747
     4  C   -0.128984
     5  H    0.110877
     6  H    0.082336
     7  H    0.098902
     8  H    0.072641
 Sum of Mulliken charges =   0.00000

 Dipole moment (field-independent basis, Debye):
    X=             -3.4349    Y=              0.7739    Z=              0.0438  Tot=              3.5213
 Quadrupole moment (field-independent basis, Debye-Ang):
   XX=            -27.4572   YY=            -21.7382   ZZ=            -25.1973
   XY=              0.9861   XZ=              0.2264   YZ=             -0.0691

 Normal termination of Gaussian 09 at Wed Aug 26 20:20:54 2020.
