 Gaussian 09, Revision D.01,
 Gaussian 09:  ES64L-G09RevD.01 24-Apr-2013

 --------------------
 #p B2PLYPD3/Def2QZVP
 --------------------

 --------
 acrolein
 --------
 Symbolic Z-matrix:
 Charge =  0 Multiplicity = 1

                         Standard orientation:
 ---------------------------------------------------------------------
 Center     Atomic      Atomic             Coordinates (Angstroms)
 Number     Number       Type             X           Y           Z
 ---------------------------------------------------------------------
      1          6           0        0.666993    0.332612    0.009985
      2          8           0        1.801320   -0.108274   -0.017894
      3          6           0       -0.564983   -0.462357    0.010532
      4          6           0       -1.751363    0.149533   -0.010563
      5          1           0       -0.482113   -1.520293    0.046337
      6          1           0       -1.840819    1.242460   -0.054677
      7          1           0       -2.688233   -0.401286   -0.005876
      8          1           0        0.496717    1.426586    0.097639
 ---------------------------------------------------------------------

 SCF Done:  E(RB2PLYPD3) =  -191.616012638     A.U. after   12 cycles
 E2(B2PLYPD3) =    -0.2475375718D+00 E(B2PLYPD3) =    -0.19186355020992D+03

 The electronic state is 1-A.
 Alpha  occ. eigenvalues --  -19.72806 -10.71665 -10.65852 -10.64396  -1.19058
 Alpha  occ. eigenvalues --   -0.93195  -0.75465  -0.67158  -0.56486  -0.56333
 Alpha  occ. eigenvalues --   -0.50482  -0.47133  -0.46499  -0.34763  -0.33808
 Alpha virt. eigenvalues --   -0.01921   0.05695   0.07152   0.08142   0.09647
 Alpha virt. eigenvalues --    0.12600   0.14068   0.15302   0.17598   0.19591
 Alpha virt. eigenvalues --    0.20110   0.21388   0.25255   0.26519   0.28736

 Mulliken charges:
               1
     1  C    0.154329
     2  O   -0.351410
     3  C   -0.036281
     4  C   -0.126785
     5  H    0.106655
     6  H    0.084778
     7  H    0.100336
     8  H    0.068378
 Sum of Mulliken charges =   0.00000

 Dipole moment (field-independent basis, Debye):
    X=             -3.6054    Y=              0.6918    Z=              0.0751  Tot=              3.6719
 Quadrupole moment (field-independent basis, Debye-Ang):
   XX=            -27.4711   YY=            -21.7781   ZZ=            -25.2223
   XY=              0.8199   XZ=              0.1696   YZ=             -0.0897

 Normal termination of Gaussian 09 at Wed Aug 26 15:46:00 2020.
