 Gaussian 09, Revision D.01,
 Gaussian 09:  ES64L-G09RevD.01 24-Apr-2013

 --------------------
 #p B2PLYPD3/Def2QZVP
 --------------------

 --------
 acrolein
 --------
 Symbolic Z-matrix:
 Charge =  0 Multiplicity = 1

                         Standard orientation:
 ---------------------------------------------------------------------
 Center     Atomic      Atomic             Coordinates (Angstroms)
 Number     Number       Type             X           Y           Z
 ---------------------------------------------------------------------
      1          6           0        0.673269    0.345643   -0.018124
      2          8           0        1.790862   -0.109915    0.021898
      3          6           0       -0.562699   -0.466359   -0.023901
      4          6           0       -1.755531    0.147022    0.008954
      5          1           0       -0.427698   -1.559432   -0.049264
      6          1           0       -1.890178    1.268901   -0.027613
      7          1           0       -2.680325   -0.414873    0.109992
      8          1           0        0.541076    1.426889   -0.009875
 ---------------------------------------------------------------------

 SCF Done:  E(RB2PLYPD3) =  -191.613928506     A.U. after   12 cycles
 E2(B2PLYPD3) =    -0.2473789162D+00 E(B2PLYPD3) =    -0.19186130742233D+03

 The electronic state is 1-A.
 Alpha  occ. eigenvalues --  -19.72643 -10.71314 -10.66175 -10.64947  -1.19606
 Alpha  occ. eigenvalues --   -0.92492  -0.75061  -0.66813  -0.56479  -0.55934
 Alpha  occ. eigenvalues --   -0.50504  -0.46891  -0.46375  -0.34546  -0.33699
 Alpha virt. eigenvalues --   -0.01685   0.05630   0.07112   0.08078   0.09612
 Alpha virt. eigenvalues --    0.12380   0.14102   0.15355   0.17447   0.19493
 Alpha virt. eigenvalues --    0.19955   0.21523   0.25240   0.26507   0.28633

 Mulliken charges:
               1
     1  C    0.159095
     2  O   -0.348227
     3  C   -0.047902
     4  C   -0.128220
     5  H    0.107190
     6  H    0.084985
     7  H    0.100298
     8  H    0.072782
 Sum of Mulliken charges =   0.00000

 Dipole moment (field-independent basis, Debye):
    X=             -3.4841    Y=              0.7462    Z=             -0.0452  Tot=              3.5634
 Quadrupole moment (field-independent basis, Debye-Ang):
   XX=            -27.4964   YY=            -21.6290   ZZ=            -25.3083
   XY=              0.7667   XZ=             -0.3102   YZ=             -0.0336

 Normal termination of Gaussian 09 at Wed Aug 26 15:06:47 2020.
