 Gaussian 09, Revision D.01,
 Gaussian 09:  ES64L-G09RevD.01 24-Apr-2013

 --------------------
 #p B2PLYPD3/Def2QZVP
 --------------------

 --------
 acrolein
 --------
 Symbolic Z-matrix:
 Charge =  0 Multiplicity = 1

                         Standard orientation:
 ---------------------------------------------------------------------
 Center     Atomic      Atomic             Coordinates (Angstroms)
 Number     Number       Type             X           Y           Z
 ---------------------------------------------------------------------
      1          6           0       -0.672345    0.350663    0.006332
      2          8           0       -1.783938   -0.122827   -0.010041
      3          6           0        0.555027   -0.452547    0.025857
      4          6           0        1.754343    0.144375   -0.014528
      5          1           0        0.436716   -1.523234   -0.018915
      6          1           0        1.797479    1.177453    0.013100
      7          1           0        2.703049   -0.400657   -0.023787
      8          1           0       -0.487887    1.474104    0.003961
 ---------------------------------------------------------------------

 SCF Done:  E(RB2PLYPD3) =  -191.614454494     A.U. after   12 cycles
 E2(B2PLYPD3) =    -0.2472942987D+00 E(B2PLYPD3) =    -0.19186174879260D+03

 The electronic state is 1-A.
 Alpha  occ. eigenvalues --  -19.72925 -10.71888 -10.65210 -10.64405  -1.19739
 Alpha  occ. eigenvalues --   -0.93040  -0.75489  -0.66963  -0.56549  -0.56436
 Alpha  occ. eigenvalues --   -0.50550  -0.47316  -0.46929  -0.34587  -0.33844
 Alpha virt. eigenvalues --   -0.01819   0.05808   0.07146   0.08147   0.09807
 Alpha virt. eigenvalues --    0.12629   0.13938   0.15322   0.17375   0.19927
 Alpha virt. eigenvalues --    0.20163   0.21558   0.25368   0.26387   0.28886

 Mulliken charges:
               1
     1  C    0.153845
     2  O   -0.345395
     3  C   -0.032885
     4  C   -0.132482
     5  H    0.106028
     6  H    0.086227
     7  H    0.101846
     8  H    0.062816
 Sum of Mulliken charges =   0.00000

 Dipole moment (field-independent basis, Debye):
    X=              3.4784    Y=              0.7337    Z=              0.0018  Tot=              3.5549
 Quadrupole moment (field-independent basis, Debye-Ang):
   XX=            -27.2896   YY=            -21.8550   ZZ=            -25.2159
   XY=             -0.8851   XZ=             -0.1032   YZ=              0.0730

 Normal termination of Gaussian 09 at Wed Aug 26 15:35:59 2020.
