 Gaussian 09, Revision D.01,
 Gaussian 09:  ES64L-G09RevD.01 24-Apr-2013

 --------------------
 #p B2PLYPD3/Def2QZVP
 --------------------

 --------
 acrolein
 --------
 Symbolic Z-matrix:
 Charge =  0 Multiplicity = 1

                         Standard orientation:
 ---------------------------------------------------------------------
 Center     Atomic      Atomic             Coordinates (Angstroms)
 Number     Number       Type             X           Y           Z
 ---------------------------------------------------------------------
      1          6           0        0.666052    0.338929    0.073669
      2          8           0        1.823870   -0.111159   -0.072073
      3          6           0       -0.600982   -0.489988    0.021234
      4          6           0       -1.739491    0.161049   -0.050098
      5          1           0       -0.498149   -1.533073    0.247747
      6          1           0       -1.783349    1.282235   -0.053055
      7          1           0       -2.684494   -0.402148   -0.094025
      8          1           0        0.421558    1.482314    0.207083
 ---------------------------------------------------------------------

 SCF Done:  E(RB2PLYPD3) =  -191.601989840     A.U. after   13 cycles
 E2(B2PLYPD3) =    -0.2503252704D+00 E(B2PLYPD3) =    -0.19185231510995D+03

 The electronic state is 1-A.
 Alpha  occ. eigenvalues --  -19.73491 -10.73374 -10.65843 -10.64759  -1.17395
 Alpha  occ. eigenvalues --   -0.93342  -0.74407  -0.66375  -0.56256  -0.54928
 Alpha  occ. eigenvalues --   -0.50547  -0.46970  -0.45127  -0.35160  -0.33770
 Alpha virt. eigenvalues --   -0.01780   0.05548   0.06379   0.07432   0.09575
 Alpha virt. eigenvalues --    0.12420   0.13446   0.14756   0.17572   0.19402
 Alpha virt. eigenvalues --    0.19994   0.21205   0.24747   0.26872   0.28850

 Mulliken charges:
               1
     1  C    0.159662
     2  O   -0.356433
     3  C   -0.034854
     4  C   -0.121024
     5  H    0.106772
     6  H    0.083044
     7  H    0.098415
     8  H    0.064417
 Sum of Mulliken charges =   0.00000

 Dipole moment (field-independent basis, Debye):
    X=             -3.6180    Y=              0.6788    Z=              0.4204  Tot=              3.7050
 Quadrupole moment (field-independent basis, Debye-Ang):
   XX=            -28.0465   YY=            -21.7355   ZZ=            -25.3517
   XY=              0.7472   XZ=              0.4775   YZ=             -0.2808

 Normal termination of Gaussian 09 at Wed Aug 26 12:07:15 2020.
