 Gaussian 09, Revision D.01,
 Gaussian 09:  ES64L-G09RevD.01 24-Apr-2013

 --------------------
 #p B2PLYPD3/Def2QZVP
 --------------------

 --------
 acrolein
 --------
 Symbolic Z-matrix:
 Charge =  0 Multiplicity = 1

                         Standard orientation:
 ---------------------------------------------------------------------
 Center     Atomic      Atomic             Coordinates (Angstroms)
 Number     Number       Type             X           Y           Z
 ---------------------------------------------------------------------
      1          6           0       -0.667460    0.333204   -0.031841
      2          8           0       -1.810628   -0.107900    0.038357
      3          6           0        0.577828   -0.453624   -0.033030
      4          6           0        1.752416    0.149649    0.005638
      5          1           0        0.477021   -1.544109   -0.077286
      6          1           0        1.833069    1.206419    0.037442
      7          1           0        2.652103   -0.398826    0.158300
      8          1           0       -0.453873    1.424347   -0.069906
 ---------------------------------------------------------------------

 SCF Done:  E(RB2PLYPD3) =  -191.613805204     A.U. after   13 cycles
 E2(B2PLYPD3) =    -0.2478732872D+00 E(B2PLYPD3) =    -0.19186167849091D+03

 The electronic state is 1-A.
 Alpha  occ. eigenvalues --  -19.73081 -10.72006 -10.65059 -10.64586  -1.18564
 Alpha  occ. eigenvalues --   -0.93616  -0.75943  -0.66951  -0.56713  -0.56348
 Alpha  occ. eigenvalues --   -0.50612  -0.47180  -0.46184  -0.35019  -0.33885
 Alpha virt. eigenvalues --   -0.02011   0.05773   0.07088   0.08058   0.09705
 Alpha virt. eigenvalues --    0.12784   0.13979   0.15215   0.17374   0.19706
 Alpha virt. eigenvalues --    0.20007   0.21857   0.25243   0.26604   0.28466

 Mulliken charges:
               1
     1  C    0.155506
     2  O   -0.354619
     3  C   -0.026352
     4  C   -0.125775
     5  H    0.100071
     6  H    0.083268
     7  H    0.101333
     8  H    0.066567
 Sum of Mulliken charges =   0.00000

 Dipole moment (field-independent basis, Debye):
    X=              3.6277    Y=              0.7037    Z=             -0.0458  Tot=              3.6956
 Quadrupole moment (field-independent basis, Debye-Ang):
   XX=            -27.6068   YY=            -21.8383   ZZ=            -25.1469
   XY=             -0.7362   XZ=              0.5965   YZ=              0.0334

 Normal termination of Gaussian 09 at Wed Aug 26 10:27:56 2020.
