 Gaussian 09, Revision D.01,
 Gaussian 09:  ES64L-G09RevD.01 24-Apr-2013

 --------------------
 #p B2PLYPD3/Def2QZVP
 --------------------

 --------
 acrolein
 --------
 Symbolic Z-matrix:
 Charge =  0 Multiplicity = 1

                         Standard orientation:
 ---------------------------------------------------------------------
 Center     Atomic      Atomic             Coordinates (Angstroms)
 Number     Number       Type             X           Y           Z
 ---------------------------------------------------------------------
      1          6           0        0.678413    0.354289   -0.015276
      2          8           0        1.790208   -0.117723    0.010914
      3          6           0       -0.565264   -0.453760   -0.011844
      4          6           0       -1.761259    0.140647   -0.002936
      5          1           0       -0.435752   -1.539763    0.006334
      6          1           0       -1.872532    1.218787    0.016836
      7          1           0       -2.631218   -0.410492    0.053037
      8          1           0        0.506498    1.426198    0.016819
 ---------------------------------------------------------------------

 SCF Done:  E(RB2PLYPD3) =  -191.615292274     A.U. after   12 cycles
 E2(B2PLYPD3) =    -0.2467282145D+00 E(B2PLYPD3) =    -0.19186202048842D+03

 The electronic state is 1-A.
 Alpha  occ. eigenvalues --  -19.72855 -10.71436 -10.64892 -10.64547  -1.19671
 Alpha  occ. eigenvalues --   -0.92807  -0.75798  -0.67135  -0.56817  -0.56471
 Alpha  occ. eigenvalues --   -0.50899  -0.47060  -0.46765  -0.34607  -0.33840
 Alpha virt. eigenvalues --   -0.01649   0.05825   0.07291   0.08118   0.09723
 Alpha virt. eigenvalues --    0.12697   0.14128   0.15386   0.17430   0.19748
 Alpha virt. eigenvalues --    0.19967   0.21982   0.25413   0.26597   0.28487

 Mulliken charges:
               1
     1  C    0.158796
     2  O   -0.347445
     3  C   -0.044278
     4  C   -0.132532
     5  H    0.103801
     6  H    0.083107
     7  H    0.103070
     8  H    0.075481
 Sum of Mulliken charges =   0.00000

 Dipole moment (field-independent basis, Debye):
    X=             -3.4468    Y=              0.7819    Z=              0.0313  Tot=              3.5345
 Quadrupole moment (field-independent basis, Debye-Ang):
   XX=            -27.4453   YY=            -21.6722   ZZ=            -25.1762
   XY=              0.8224   XZ=             -0.2162   YZ=             -0.0156

 Normal termination of Gaussian 09 at Wed Aug 26 15:58:04 2020.
