 Gaussian 09, Revision D.01,
 Gaussian 09:  ES64L-G09RevD.01 24-Apr-2013

 --------------------
 #p B2PLYPD3/Def2QZVP
 --------------------

 --------
 acrolein
 --------
 Symbolic Z-matrix:
 Charge =  0 Multiplicity = 1

                         Standard orientation:
 ---------------------------------------------------------------------
 Center     Atomic      Atomic             Coordinates (Angstroms)
 Number     Number       Type             X           Y           Z
 ---------------------------------------------------------------------
      1          6           0       -0.694748    0.383379   -0.025918
      2          8           0       -1.779961   -0.157905    0.025944
      3          6           0        0.564520   -0.441234   -0.073034
      4          6           0        1.755004    0.118891   -0.007670
      5          1           0        0.425402   -1.424050    0.141420
      6          1           0        1.891570    1.175795    0.068480
      7          1           0        2.680670   -0.453650    0.160782
      8          1           0       -0.506614    1.598932    0.061492
 ---------------------------------------------------------------------

 SCF Done:  E(RB2PLYPD3) =  -191.598977102     A.U. after   12 cycles
 E2(B2PLYPD3) =    -0.2482530988D+00 E(B2PLYPD3) =    -0.19184723020082D+03

 The electronic state is 1-A.
 Alpha  occ. eigenvalues --  -19.73570 -10.73347 -10.65025 -10.63742  -1.19869
 Alpha  occ. eigenvalues --   -0.92937  -0.74562  -0.66533  -0.56611  -0.55737
 Alpha  occ. eigenvalues --   -0.50890  -0.47303  -0.46269  -0.34935  -0.33703
 Alpha virt. eigenvalues --   -0.01512   0.05576   0.06943   0.07723   0.09811
 Alpha virt. eigenvalues --    0.12250   0.13380   0.15170   0.17936   0.19604
 Alpha virt. eigenvalues --    0.19775   0.21634   0.24791   0.26566   0.28486

 Mulliken charges:
               1
     1  C    0.162899
     2  O   -0.337477
     3  C   -0.051124
     4  C   -0.113051
     5  H    0.113816
     6  H    0.078386
     7  H    0.090712
     8  H    0.055838
 Sum of Mulliken charges =   0.00000

 Dipole moment (field-independent basis, Debye):
    X=              3.2879    Y=              0.8043    Z=              0.2614  Tot=              3.3950
 Quadrupole moment (field-independent basis, Debye-Ang):
   XX=            -27.2925   YY=            -22.0349   ZZ=            -25.2094
   XY=             -0.9205   XZ=              0.7202   YZ=             -0.2065

 Normal termination of Gaussian 09 at Wed Aug 26 11:00:07 2020.
