 Gaussian 09, Revision D.01,
 Gaussian 09:  ES64L-G09RevD.01 24-Apr-2013

 --------------------
 #p B2PLYPD3/Def2QZVP
 --------------------

 --------
 acrolein
 --------
 Symbolic Z-matrix:
 Charge =  0 Multiplicity = 1

                         Standard orientation:
 ---------------------------------------------------------------------
 Center     Atomic      Atomic             Coordinates (Angstroms)
 Number     Number       Type             X           Y           Z
 ---------------------------------------------------------------------
      1          6           0        0.671264    0.342853    0.004200
      2          8           0        1.792692   -0.113095    0.008554
      3          6           0       -0.562088   -0.466905   -0.022342
      4          6           0       -1.757453    0.145319    0.005693
      5          1           0       -0.472709   -1.520232   -0.017082
      6          1           0       -1.844748    1.274892   -0.021780
      7          1           0       -2.656197   -0.408591    0.071338
      8          1           0        0.521785    1.431089   -0.026207
 ---------------------------------------------------------------------

 SCF Done:  E(RB2PLYPD3) =  -191.614313828     A.U. after   12 cycles
 E2(B2PLYPD3) =    -0.2472907959D+00 E(B2PLYPD3) =    -0.19186160462418D+03

 The electronic state is 1-A.
 Alpha  occ. eigenvalues --  -19.72707 -10.71491 -10.65883 -10.64409  -1.19445
 Alpha  occ. eigenvalues --   -0.92771  -0.75290  -0.67193  -0.56614  -0.56178
 Alpha  occ. eigenvalues --   -0.50539  -0.47160  -0.46634  -0.34536  -0.33769
 Alpha virt. eigenvalues --   -0.01776   0.05689   0.07235   0.08071   0.09656
 Alpha virt. eigenvalues --    0.12481   0.14076   0.15361   0.17642   0.19529
 Alpha virt. eigenvalues --    0.19966   0.21545   0.25291   0.26420   0.28819

 Mulliken charges:
               1
     1  C    0.156666
     2  O   -0.348432
     3  C   -0.046107
     4  C   -0.128825
     5  H    0.108231
     6  H    0.082543
     7  H    0.103155
     8  H    0.072769
 Sum of Mulliken charges =   0.00000

 Dipole moment (field-independent basis, Debye):
    X=             -3.5131    Y=              0.7172    Z=              0.0076  Tot=              3.5856
 Quadrupole moment (field-independent basis, Debye-Ang):
   XX=            -27.5244   YY=            -21.6475   ZZ=            -25.2538
   XY=              0.9305   XZ=             -0.1890   YZ=             -0.0668

 Normal termination of Gaussian 09 at Wed Aug 26 16:35:06 2020.
