 Gaussian 09, Revision D.01,
 Gaussian 09:  ES64L-G09RevD.01 24-Apr-2013

 --------------------
 #p B2PLYPD3/Def2QZVP
 --------------------

 --------
 acrolein
 --------
 Symbolic Z-matrix:
 Charge =  0 Multiplicity = 1

                         Standard orientation:
 ---------------------------------------------------------------------
 Center     Atomic      Atomic             Coordinates (Angstroms)
 Number     Number       Type             X           Y           Z
 ---------------------------------------------------------------------
      1          6           0        0.664788    0.337929    0.017786
      2          8           0        1.796653   -0.109998   -0.021173
      3          6           0       -0.570647   -0.466695    0.032719
      4          6           0       -1.738385    0.146017   -0.018168
      5          1           0       -0.486737   -1.515690   -0.008106
      6          1           0       -1.871349    1.272836   -0.024617
      7          1           0       -2.640025   -0.416099   -0.032563
      8          1           0        0.490358    1.435439    0.040642
 ---------------------------------------------------------------------

 SCF Done:  E(RB2PLYPD3) =  -191.613814856     A.U. after   12 cycles
 E2(B2PLYPD3) =    -0.2472928205D+00 E(B2PLYPD3) =    -0.19186110767672D+03

 The electronic state is 1-A.
 Alpha  occ. eigenvalues --  -19.72802 -10.71701 -10.65614 -10.64104  -1.19007
 Alpha  occ. eigenvalues --   -0.93434  -0.75297  -0.67097  -0.56687  -0.56127
 Alpha  occ. eigenvalues --   -0.50574  -0.46873  -0.46501  -0.34995  -0.33765
 Alpha virt. eigenvalues --   -0.01611   0.05666   0.07171   0.08081   0.09636
 Alpha virt. eigenvalues --    0.12559   0.13980   0.15306   0.17657   0.19492
 Alpha virt. eigenvalues --    0.19998   0.21576   0.25418   0.26520   0.28540

 Mulliken charges:
               1
     1  C    0.156747
     2  O   -0.351937
     3  C   -0.042424
     4  C   -0.122161
     5  H    0.107896
     6  H    0.083111
     7  H    0.098466
     8  H    0.070302
 Sum of Mulliken charges =   0.00000

 Dipole moment (field-independent basis, Debye):
    X=             -3.5738    Y=              0.6936    Z=              0.0240  Tot=              3.6406
 Quadrupole moment (field-independent basis, Debye-Ang):
   XX=            -27.5948   YY=            -21.6621   ZZ=            -25.1909
   XY=              0.8022   XZ=              0.2323   YZ=              0.0329

 Normal termination of Gaussian 09 at Wed Aug 26 20:16:34 2020.
