 Gaussian 09, Revision D.01,
 Gaussian 09:  ES64L-G09RevD.01 24-Apr-2013

 --------------------
 #p B2PLYPD3/Def2QZVP
 --------------------

 --------
 acrolein
 --------
 Symbolic Z-matrix:
 Charge =  0 Multiplicity = 1

                         Standard orientation:
 ---------------------------------------------------------------------
 Center     Atomic      Atomic             Coordinates (Angstroms)
 Number     Number       Type             X           Y           Z
 ---------------------------------------------------------------------
      1          6           0       -0.662017    0.319828    0.014955
      2          8           0       -1.795380   -0.100687   -0.015629
      3          6           0        0.567388   -0.470028    0.045239
      4          6           0        1.742276    0.157901   -0.025101
      5          1           0        0.513534   -1.562034   -0.059198
      6          1           0        1.847806    1.251266    0.027388
      7          1           0        2.600818   -0.394465   -0.033361
      8          1           0       -0.485000    1.464521   -0.020364
 ---------------------------------------------------------------------

 SCF Done:  E(RB2PLYPD3) =  -191.610871143     A.U. after   12 cycles
 E2(B2PLYPD3) =    -0.2475099444D+00 E(B2PLYPD3) =    -0.19185838108782D+03

 The electronic state is 1-A.
 Alpha  occ. eigenvalues --  -19.72804 -10.71932 -10.65178 -10.64733  -1.19522
 Alpha  occ. eigenvalues --   -0.93440  -0.75816  -0.66146  -0.56944  -0.56170
 Alpha  occ. eigenvalues --   -0.50295  -0.47441  -0.46777  -0.34903  -0.33586
 Alpha virt. eigenvalues --   -0.01851   0.05852   0.06861   0.08185   0.09684
 Alpha virt. eigenvalues --    0.12736   0.13976   0.15174   0.17348   0.19891
 Alpha virt. eigenvalues --    0.19984   0.21795   0.24998   0.26514   0.28436

 Mulliken charges:
               1
     1  C    0.154715
     2  O   -0.342737
     3  C   -0.032978
     4  C   -0.121294
     5  H    0.100156
     6  H    0.087886
     7  H    0.101967
     8  H    0.052285
 Sum of Mulliken charges =   0.00000

 Dipole moment (field-independent basis, Debye):
    X=              3.6099    Y=              0.5903    Z=             -0.0189  Tot=              3.6579
 Quadrupole moment (field-independent basis, Debye-Ang):
   XX=            -27.4514   YY=            -21.7761   ZZ=            -25.2048
   XY=             -0.7521   XZ=             -0.1593   YZ=              0.1591

 Normal termination of Gaussian 09 at Wed Aug 26 20:03:42 2020.
