 Gaussian 09, Revision D.01,
 Gaussian 09:  ES64L-G09RevD.01 24-Apr-2013

 --------------------
 #p B2PLYPD3/Def2QZVP
 --------------------

 --------
 acrolein
 --------
 Symbolic Z-matrix:
 Charge =  0 Multiplicity = 1

                         Standard orientation:
 ---------------------------------------------------------------------
 Center     Atomic      Atomic             Coordinates (Angstroms)
 Number     Number       Type             X           Y           Z
 ---------------------------------------------------------------------
      1          6           0        0.661382    0.346588    0.017327
      2          8           0        1.786375   -0.125476   -0.021515
      3          6           0       -0.549299   -0.438592    0.008862
      4          6           0       -1.751843    0.142497   -0.007169
      5          1           0       -0.446999   -1.501020    0.061985
      6          1           0       -1.792491    1.187536   -0.055819
      7          1           0       -2.713531   -0.441814   -0.029331
      8          1           0        0.500583    1.456151    0.081166
 ---------------------------------------------------------------------

 SCF Done:  E(RB2PLYPD3) =  -191.613293342     A.U. after   13 cycles
 E2(B2PLYPD3) =    -0.2478082649D+00 E(B2PLYPD3) =    -0.19186110160655D+03

 The electronic state is 1-A.
 Alpha  occ. eigenvalues --  -19.72772 -10.71659 -10.65764 -10.64156  -1.18923
 Alpha  occ. eigenvalues --   -0.93495  -0.75715  -0.67196  -0.56720  -0.56159
 Alpha  occ. eigenvalues --   -0.50199  -0.47231  -0.46532  -0.34670  -0.33926
 Alpha virt. eigenvalues --   -0.02130   0.05684   0.07039   0.08276   0.09790
 Alpha virt. eigenvalues --    0.12532   0.13849   0.15272   0.17544   0.19776
 Alpha virt. eigenvalues --    0.20176   0.21342   0.25429   0.26391   0.29046

 Mulliken charges:
               1
     1  C    0.149709
     2  O   -0.354730
     3  C   -0.025686
     4  C   -0.132089
     5  H    0.106285
     6  H    0.087471
     7  H    0.102749
     8  H    0.066292
 Sum of Mulliken charges =   0.00000

 Dipole moment (field-independent basis, Debye):
    X=             -3.5980    Y=              0.7425    Z=              0.0770  Tot=              3.6746
 Quadrupole moment (field-independent basis, Debye-Ang):
   XX=            -27.4063   YY=            -21.8366   ZZ=            -25.2007
   XY=              1.0243   XZ=              0.2330   YZ=             -0.1035

 Normal termination of Gaussian 09 at Wed Aug 26 16:13:27 2020.
