 Gaussian 09, Revision D.01,
 Gaussian 09:  ES64L-G09RevD.01 24-Apr-2013

 --------------------
 #p B2PLYPD3/Def2QZVP
 --------------------

 --------
 acrolein
 --------
 Symbolic Z-matrix:
 Charge =  0 Multiplicity = 1

                         Standard orientation:
 ---------------------------------------------------------------------
 Center     Atomic      Atomic             Coordinates (Angstroms)
 Number     Number       Type             X           Y           Z
 ---------------------------------------------------------------------
      1          6           0        0.682075    0.340735   -0.046414
      2          8           0        1.794672   -0.102541    0.041316
      3          6           0       -0.564219   -0.482378   -0.048720
      4          6           0       -1.768733    0.157356    0.003536
      5          1           0       -0.409239   -1.566059    0.000364
      6          1           0       -1.891904    1.283050    0.038610
      7          1           0       -2.667496   -0.433420    0.172885
      8          1           0        0.516523    1.442477    0.007208
 ---------------------------------------------------------------------

 SCF Done:  E(RB2PLYPD3) =  -191.610541288     A.U. after   12 cycles
 E2(B2PLYPD3) =    -0.2480389382D+00 E(B2PLYPD3) =    -0.19185858022610D+03

 The electronic state is 1-A.
 Alpha  occ. eigenvalues --  -19.72808 -10.71607 -10.66557 -10.65347  -1.20084
 Alpha  occ. eigenvalues --   -0.91843  -0.74737  -0.66489  -0.56104  -0.55725
 Alpha  occ. eigenvalues --   -0.50424  -0.46988  -0.46896  -0.34226  -0.33583
 Alpha virt. eigenvalues --   -0.01823   0.05619   0.07088   0.07889   0.09628
 Alpha virt. eigenvalues --    0.12391   0.13887   0.15380   0.17498   0.19394
 Alpha virt. eigenvalues --    0.19827   0.21578   0.24713   0.26681   0.28401

 Mulliken charges:
               1
     1  C    0.164190
     2  O   -0.342316
     3  C   -0.053836
     4  C   -0.129940
     5  H    0.108857
     6  H    0.089185
     7  H    0.100127
     8  H    0.063735
 Sum of Mulliken charges =   0.00000

 Dipole moment (field-independent basis, Debye):
    X=             -3.4078    Y=              0.6876    Z=              0.0448  Tot=              3.4767
 Quadrupole moment (field-independent basis, Debye-Ang):
   XX=            -27.6172   YY=            -21.6151   ZZ=            -25.4135
   XY=              0.6313   XZ=             -0.6974   YZ=             -0.0613

 Normal termination of Gaussian 09 at Wed Aug 26 09:04:24 2020.
