 Gaussian 09, Revision D.01,
 Gaussian 09:  ES64L-G09RevD.01 24-Apr-2013

 --------------------
 #p B2PLYPD3/Def2QZVP
 --------------------

 --------
 acrolein
 --------
 Symbolic Z-matrix:
 Charge =  0 Multiplicity = 1

                         Standard orientation:
 ---------------------------------------------------------------------
 Center     Atomic      Atomic             Coordinates (Angstroms)
 Number     Number       Type             X           Y           Z
 ---------------------------------------------------------------------
      1          6           0       -0.695431    0.359720    0.078344
      2          8           0       -1.785436   -0.108682   -0.039351
      3          6           0        0.586362   -0.504534   -0.014341
      4          6           0        1.764616    0.161716   -0.024498
      5          1           0        0.522962   -1.565927    0.052827
      6          1           0        1.914723    1.328179   -0.104074
      7          1           0        2.524052   -0.350066    0.103718
      8          1           0       -0.611525    1.355865    0.025307
 ---------------------------------------------------------------------

 SCF Done:  E(RB2PLYPD3) =  -191.572402346     A.U. after   13 cycles
 E2(B2PLYPD3) =    -0.2461779977D+00 E(B2PLYPD3) =    -0.19181858034364D+03

 The electronic state is 1-A.
 Alpha  occ. eigenvalues --  -19.72570 -10.70669 -10.64823 -10.64267  -1.20560
 Alpha  occ. eigenvalues --   -0.91933  -0.75607  -0.68497  -0.57143  -0.56358
 Alpha  occ. eigenvalues --   -0.50817  -0.47508  -0.46824  -0.34244  -0.33196
 Alpha virt. eigenvalues --   -0.01084   0.05800   0.07260   0.07538   0.09503
 Alpha virt. eigenvalues --    0.12502   0.14641   0.15451   0.17728   0.19308
 Alpha virt. eigenvalues --    0.19963   0.22341   0.24814   0.26274   0.28480

 Mulliken charges:
               1
     1  C    0.167620
     2  O   -0.334071
     3  C   -0.081186
     4  C   -0.144271
     5  H    0.106438
     6  H    0.081666
     7  H    0.110176
     8  H    0.093628
 Sum of Mulliken charges =   0.00000

 Dipole moment (field-independent basis, Debye):
    X=              3.1915    Y=              0.8291    Z=              0.2537  Tot=              3.3071
 Quadrupole moment (field-independent basis, Debye-Ang):
   XX=            -27.7095   YY=            -21.1506   ZZ=            -25.1531
   XY=             -0.9547   XZ=             -0.0533   YZ=             -0.2664

 Normal termination of Gaussian 09 at Wed Aug 26 14:51:21 2020.
