 Gaussian 09, Revision D.01,
 Gaussian 09:  ES64L-G09RevD.01 24-Apr-2013

 --------------------
 #p B2PLYPD3/Def2QZVP
 --------------------

 --------
 acrolein
 --------
 Symbolic Z-matrix:
 Charge =  0 Multiplicity = 1

                         Standard orientation:
 ---------------------------------------------------------------------
 Center     Atomic      Atomic             Coordinates (Angstroms)
 Number     Number       Type             X           Y           Z
 ---------------------------------------------------------------------
      1          6           0        0.643571    0.285193   -0.056650
      2          8           0        1.801019   -0.063491    0.055266
      3          6           0       -0.559810   -0.466602   -0.041036
      4          6           0       -1.761068    0.151764    0.008216
      5          1           0       -0.314630   -1.623152    0.023455
      6          1           0       -1.926902    1.216804    0.266331
      7          1           0       -2.634879   -0.348192    0.001316
      8          1           0        0.532104    1.440336   -0.196413
 ---------------------------------------------------------------------

 SCF Done:  E(RB2PLYPD3) =  -191.591444551     A.U. after   14 cycles
 E2(B2PLYPD3) =    -0.2489923954D+00 E(B2PLYPD3) =    -0.19184043694628D+03

 The electronic state is 1-A.
 Alpha  occ. eigenvalues --  -19.72551 -10.71384 -10.66273 -10.66133  -1.19111
 Alpha  occ. eigenvalues --   -0.93532  -0.77388  -0.64819  -0.57929  -0.55650
 Alpha  occ. eigenvalues --   -0.50249  -0.46801  -0.46343  -0.34657  -0.33105
 Alpha virt. eigenvalues --   -0.03047   0.05625   0.06658   0.08538   0.09700
 Alpha virt. eigenvalues --    0.12610   0.14055   0.15325   0.16414   0.19505
 Alpha virt. eigenvalues --    0.20247   0.21795   0.24740   0.26381   0.28151

 Mulliken charges:
               1
     1  C    0.159227
     2  O   -0.349603
     3  C   -0.030392
     4  C   -0.104041
     5  H    0.095193
     6  H    0.092896
     7  H    0.104665
     8  H    0.032055
 Sum of Mulliken charges =   0.00000

 Dipole moment (field-independent basis, Debye):
    X=             -3.8129    Y=              0.4412    Z=              0.0178  Tot=              3.8383
 Quadrupole moment (field-independent basis, Debye-Ang):
   XX=            -27.0287   YY=            -22.1828   ZZ=            -25.2320
   XY=              0.1263   XZ=             -0.7532   YZ=              0.2466

 Normal termination of Gaussian 09 at Wed Aug 26 11:43:43 2020.
