 Gaussian 09, Revision D.01,
 Gaussian 09:  ES64L-G09RevD.01 24-Apr-2013

 --------------------
 #p B2PLYPD3/Def2QZVP
 --------------------

 --------
 acrolein
 --------
 Symbolic Z-matrix:
 Charge =  0 Multiplicity = 1

                         Standard orientation:
 ---------------------------------------------------------------------
 Center     Atomic      Atomic             Coordinates (Angstroms)
 Number     Number       Type             X           Y           Z
 ---------------------------------------------------------------------
      1          6           0        0.665106    0.338112    0.016418
      2          8           0        1.804091   -0.104298   -0.018623
      3          6           0       -0.556742   -0.472458   -0.012199
      4          6           0       -1.766356    0.149601   -0.003235
      5          1           0       -0.421655   -1.565926    0.107416
      6          1           0       -1.852620    1.288438   -0.044708
      7          1           0       -2.717035   -0.425974   -0.015508
      8          1           0        0.506533    1.446324    0.095884
 ---------------------------------------------------------------------

 SCF Done:  E(RB2PLYPD3) =  -191.609730333     A.U. after   13 cycles
 E2(B2PLYPD3) =    -0.2492002453D+00 E(B2PLYPD3) =    -0.19185893057789D+03

 The electronic state is 1-A.
 Alpha  occ. eigenvalues --  -19.72755 -10.71819 -10.67115 -10.65382  -1.18744
 Alpha  occ. eigenvalues --   -0.92377  -0.75043  -0.66268  -0.56022  -0.55595
 Alpha  occ. eigenvalues --   -0.50042  -0.46819  -0.46071  -0.34412  -0.33742
 Alpha virt. eigenvalues --   -0.02270   0.05490   0.06822   0.07900   0.09593
 Alpha virt. eigenvalues --    0.12261   0.13787   0.15188   0.17451   0.19396
 Alpha virt. eigenvalues --    0.19998   0.21224   0.24825   0.26623   0.28934

 Mulliken charges:
               1
     1  C    0.158568
     2  O   -0.353808
     3  C   -0.041865
     4  C   -0.126666
     5  H    0.107810
     6  H    0.086123
     7  H    0.103510
     8  H    0.066328
 Sum of Mulliken charges =   0.00000

 Dipole moment (field-independent basis, Debye):
    X=             -3.6289    Y=              0.6924    Z=              0.1418  Tot=              3.6971
 Quadrupole moment (field-independent basis, Debye-Ang):
   XX=            -27.5954   YY=            -21.6922   ZZ=            -25.4699
   XY=              0.7620   XZ=              0.1456   YZ=             -0.1838

 Normal termination of Gaussian 09 at Wed Aug 26 08:35:46 2020.
