 Gaussian 09, Revision D.01,
 Gaussian 09:  ES64L-G09RevD.01 24-Apr-2013

 --------------------
 #p B2PLYPD3/Def2QZVP
 --------------------

 --------
 acrolein
 --------
 Symbolic Z-matrix:
 Charge =  0 Multiplicity = 1

                         Standard orientation:
 ---------------------------------------------------------------------
 Center     Atomic      Atomic             Coordinates (Angstroms)
 Number     Number       Type             X           Y           Z
 ---------------------------------------------------------------------
      1          6           0        0.674341    0.342785    0.027008
      2          8           0        1.794765   -0.124241   -0.039605
      3          6           0       -0.557935   -0.444918    0.028844
      4          6           0       -1.752144    0.139002   -0.039787
      5          1           0       -0.477795   -1.443164    0.123947
      6          1           0       -1.803735    1.205048   -0.030287
      7          1           0       -2.734003   -0.429199   -0.025712
      8          1           0        0.471841    1.440029    0.152503
 ---------------------------------------------------------------------

 SCF Done:  E(RB2PLYPD3) =  -191.609081380     A.U. after   13 cycles
 E2(B2PLYPD3) =    -0.2474443107D+00 E(B2PLYPD3) =    -0.19185652569061D+03

 The electronic state is 1-A.
 Alpha  occ. eigenvalues --  -19.73052 -10.71892 -10.65842 -10.63517  -1.19342
 Alpha  occ. eigenvalues --   -0.93453  -0.75374  -0.67905  -0.56437  -0.56271
 Alpha  occ. eigenvalues --   -0.50772  -0.47485  -0.46439  -0.34790  -0.33922
 Alpha virt. eigenvalues --   -0.01915   0.05665   0.07190   0.08250   0.09709
 Alpha virt. eigenvalues --    0.12546   0.13804   0.15297   0.18016   0.19569
 Alpha virt. eigenvalues --    0.20104   0.21139   0.25318   0.26518   0.28923

 Mulliken charges:
               1
     1  C    0.150748
     2  O   -0.348724
     3  C   -0.030135
     4  C   -0.129168
     5  H    0.109491
     6  H    0.082396
     7  H    0.097972
     8  H    0.067420
 Sum of Mulliken charges =   0.00000

 Dipole moment (field-independent basis, Debye):
    X=             -3.5260    Y=              0.7217    Z=              0.2340  Tot=              3.6067
 Quadrupole moment (field-independent basis, Debye-Ang):
   XX=            -27.3462   YY=            -21.9635   ZZ=            -25.1488
   XY=              0.9594   XZ=              0.2255   YZ=             -0.1180

 Normal termination of Gaussian 09 at Wed Aug 26 08:40:59 2020.
