 Gaussian 09, Revision D.01,
 Gaussian 09:  ES64L-G09RevD.01 24-Apr-2013

 --------------------
 #p B2PLYPD3/Def2QZVP
 --------------------

 --------
 acrolein
 --------
 Symbolic Z-matrix:
 Charge =  0 Multiplicity = 1

                         Standard orientation:
 ---------------------------------------------------------------------
 Center     Atomic      Atomic             Coordinates (Angstroms)
 Number     Number       Type             X           Y           Z
 ---------------------------------------------------------------------
      1          6           0        0.655097    0.312429    0.028195
      2          8           0        1.805502   -0.082561   -0.031415
      3          6           0       -0.582346   -0.497129    0.070564
      4          6           0       -1.729019    0.156807   -0.055649
      5          1           0       -0.512903   -1.534017   -0.077236
      6          1           0       -1.908596    1.299144    0.004169
      7          1           0       -2.505716   -0.375790    0.016103
      8          1           0        0.420807    1.438502    0.049624
 ---------------------------------------------------------------------

 SCF Done:  E(RB2PLYPD3) =  -191.588637884     A.U. after   13 cycles
 E2(B2PLYPD3) =    -0.2479127022D+00 E(B2PLYPD3) =    -0.19183655058585D+03

 The electronic state is 1-A.
 Alpha  occ. eigenvalues --  -19.72888 -10.71981 -10.64756 -10.64389  -1.18944
 Alpha  occ. eigenvalues --   -0.94031  -0.76389  -0.66662  -0.57463  -0.55478
 Alpha  occ. eigenvalues --   -0.50432  -0.47876  -0.46357  -0.35182  -0.33464
 Alpha virt. eigenvalues --   -0.01846   0.05745   0.07081   0.07780   0.09602
 Alpha virt. eigenvalues --    0.12784   0.13730   0.15173   0.17671   0.19345
 Alpha virt. eigenvalues --    0.19973   0.22123   0.24726   0.26856   0.27905

 Mulliken charges:
               1
     1  C    0.157092
     2  O   -0.348108
     3  C   -0.041060
     4  C   -0.114536
     5  H    0.105786
     6  H    0.083422
     7  H    0.102685
     8  H    0.054719
 Sum of Mulliken charges =   0.00000

 Dipole moment (field-independent basis, Debye):
    X=             -3.6734    Y=              0.5280    Z=              0.0550  Tot=              3.7116
 Quadrupole moment (field-independent basis, Debye-Ang):
   XX=            -27.6686   YY=            -21.6644   ZZ=            -25.1110
   XY=              0.4369   XZ=              0.1729   YZ=              0.1708

 Normal termination of Gaussian 09 at Wed Aug 26 13:27:48 2020.
