 Gaussian 09, Revision D.01,
 Gaussian 09:  ES64L-G09RevD.01 24-Apr-2013

 --------------------
 #p B2PLYPD3/Def2QZVP
 --------------------

 --------
 acrolein
 --------
 Symbolic Z-matrix:
 Charge =  0 Multiplicity = 1

                         Standard orientation:
 ---------------------------------------------------------------------
 Center     Atomic      Atomic             Coordinates (Angstroms)
 Number     Number       Type             X           Y           Z
 ---------------------------------------------------------------------
      1          6           0       -0.659968    0.342940   -0.037535
      2          8           0       -1.802552   -0.109489    0.037169
      3          6           0        0.589171   -0.473985   -0.045425
      4          6           0        1.743394    0.157479    0.039733
      5          1           0        0.524503   -1.511538   -0.054399
      6          1           0        1.859318    1.273164   -0.048114
      7          1           0        2.525561   -0.414981    0.093161
      8          1           0       -0.524552    1.370658   -0.028632
 ---------------------------------------------------------------------

 SCF Done:  E(RB2PLYPD3) =  -191.598773436     A.U. after   13 cycles
 E2(B2PLYPD3) =    -0.2469404999D+00 E(B2PLYPD3) =    -0.19184571393576D+03

 The electronic state is 1-A.
 Alpha  occ. eigenvalues --  -19.72603 -10.71140 -10.64333 -10.63979  -1.18079
 Alpha  occ. eigenvalues --   -0.93821  -0.76270  -0.68233  -0.57752  -0.56154
 Alpha  occ. eigenvalues --   -0.50395  -0.48034  -0.45827  -0.34875  -0.33780
 Alpha virt. eigenvalues --   -0.01557   0.05794   0.07284   0.07788   0.09658
 Alpha virt. eigenvalues --    0.12757   0.14213   0.15262   0.17713   0.19636
 Alpha virt. eigenvalues --    0.20071   0.22186   0.24975   0.26726   0.28359

 Mulliken charges:
               1
     1  C    0.152283
     2  O   -0.361660
     3  C   -0.046846
     4  C   -0.128456
     5  H    0.105392
     6  H    0.089555
     7  H    0.100723
     8  H    0.089009
 Sum of Mulliken charges =   0.00000

 Dipole moment (field-independent basis, Debye):
    X=              3.6030    Y=              0.7715    Z=             -0.1500  Tot=              3.6877
 Quadrupole moment (field-independent basis, Debye-Ang):
   XX=            -27.9865   YY=            -21.3166   ZZ=            -25.0353
   XY=             -0.9507   XZ=              0.2905   YZ=             -0.0792

 Normal termination of Gaussian 09 at Wed Aug 26 08:35:45 2020.
