 Gaussian 09, Revision D.01,
 Gaussian 09:  ES64L-G09RevD.01 24-Apr-2013

 --------------------
 #p B2PLYPD3/Def2QZVP
 --------------------

 --------
 acrolein
 --------
 Symbolic Z-matrix:
 Charge =  0 Multiplicity = 1

                         Standard orientation:
 ---------------------------------------------------------------------
 Center     Atomic      Atomic             Coordinates (Angstroms)
 Number     Number       Type             X           Y           Z
 ---------------------------------------------------------------------
      1          6           0       -0.673274    0.338349    0.006889
      2          8           0       -1.798676   -0.103972   -0.024987
      3          6           0        0.569660   -0.466533    0.013514
      4          6           0        1.762943    0.140903   -0.010160
      5          1           0        0.394274   -1.598910    0.070411
      6          1           0        1.936765    1.272294   -0.103514
      7          1           0        2.649229   -0.396470   -0.001227
      8          1           0       -0.546826    1.478544    0.172766
 ---------------------------------------------------------------------

 SCF Done:  E(RB2PLYPD3) =  -191.605608204     A.U. after   13 cycles
 E2(B2PLYPD3) =    -0.2482199116D+00 E(B2PLYPD3) =    -0.19185382811603D+03

 The electronic state is 1-A.
 Alpha  occ. eigenvalues --  -19.72892 -10.72057 -10.65945 -10.65627  -1.19601
 Alpha  occ. eigenvalues --   -0.92511  -0.75361  -0.65334  -0.56912  -0.55433
 Alpha  occ. eigenvalues --   -0.50561  -0.46716  -0.46070  -0.34771  -0.33528
 Alpha virt. eigenvalues --   -0.01823   0.05653   0.06750   0.08022   0.09545
 Alpha virt. eigenvalues --    0.12348   0.14100   0.15301   0.16930   0.19305
 Alpha virt. eigenvalues --    0.20080   0.21813   0.24926   0.26518   0.28373

 Mulliken charges:
               1
     1  C    0.165196
     2  O   -0.343153
     3  C   -0.052182
     4  C   -0.120817
     5  H    0.103358
     6  H    0.084889
     7  H    0.104272
     8  H    0.058436
 Sum of Mulliken charges =   0.00000

 Dipole moment (field-independent basis, Debye):
    X=              3.5180    Y=              0.6423    Z=              0.0887  Tot=              3.5772
 Quadrupole moment (field-independent basis, Debye-Ang):
   XX=            -27.3209   YY=            -21.7936   ZZ=            -25.3833
   XY=             -0.5711   XZ=             -0.2851   YZ=             -0.1654

 Normal termination of Gaussian 09 at Wed Aug 26 08:36:22 2020.
