 Gaussian 09, Revision D.01,
 Gaussian 09:  ES64L-G09RevD.01 24-Apr-2013

 --------------------
 #p B2PLYPD3/Def2QZVP
 --------------------

 --------
 acrolein
 --------
 Symbolic Z-matrix:
 Charge =  0 Multiplicity = 1

                         Standard orientation:
 ---------------------------------------------------------------------
 Center     Atomic      Atomic             Coordinates (Angstroms)
 Number     Number       Type             X           Y           Z
 ---------------------------------------------------------------------
      1          6           0       -0.672816    0.346585    0.005489
      2          8           0       -1.797094   -0.110413   -0.013751
      3          6           0        0.563988   -0.465489    0.007104
      4          6           0        1.766391    0.149883   -0.014612
      5          1           0        0.430621   -1.569996    0.046696
      6          1           0        1.866090    1.246323   -0.035229
      7          1           0        2.634714   -0.427670    0.017945
      8          1           0       -0.500059    1.448776    0.092709
 ---------------------------------------------------------------------

 SCF Done:  E(RB2PLYPD3) =  -191.613603098     A.U. after   12 cycles
 E2(B2PLYPD3) =    -0.2479221937D+00 E(B2PLYPD3) =    -0.19186152529169D+03

 The electronic state is 1-A.
 Alpha  occ. eigenvalues --  -19.72855 -10.71782 -10.65600 -10.65123  -1.19306
 Alpha  occ. eigenvalues --   -0.92530  -0.75535  -0.66404  -0.56510  -0.56062
 Alpha  occ. eigenvalues --   -0.50444  -0.47218  -0.46503  -0.34439  -0.33757
 Alpha virt. eigenvalues --   -0.01925   0.05760   0.06988   0.08017   0.09691
 Alpha virt. eigenvalues --    0.12565   0.13953   0.15346   0.17239   0.19541
 Alpha virt. eigenvalues --    0.20077   0.21808   0.25144   0.26553   0.28534

 Mulliken charges:
               1
     1  C    0.160211
     2  O   -0.348751
     3  C   -0.044419
     4  C   -0.133201
     5  H    0.103647
     6  H    0.089029
     7  H    0.105655
     8  H    0.067828
 Sum of Mulliken charges =   0.00000

 Dipole moment (field-independent basis, Debye):
    X=              3.5167    Y=              0.7170    Z=              0.0952  Tot=              3.5903
 Quadrupole moment (field-independent basis, Debye-Ang):
   XX=            -27.5909   YY=            -21.6198   ZZ=            -25.3339
   XY=             -0.7661   XZ=             -0.0616   YZ=             -0.0835

 Normal termination of Gaussian 09 at Wed Aug 26 13:01:47 2020.
