 Gaussian 09, Revision D.01,
 Gaussian 09:  ES64L-G09RevD.01 24-Apr-2013

 --------------------
 #p B2PLYPD3/Def2QZVP
 --------------------

 --------
 acrolein
 --------
 Symbolic Z-matrix:
 Charge =  0 Multiplicity = 1

                         Standard orientation:
 ---------------------------------------------------------------------
 Center     Atomic      Atomic             Coordinates (Angstroms)
 Number     Number       Type             X           Y           Z
 ---------------------------------------------------------------------
      1          6           0        0.667835    0.351584    0.014684
      2          8           0        1.782905   -0.130250   -0.038530
      3          6           0       -0.544931   -0.435525    0.040505
      4          6           0       -1.750844    0.146601   -0.015267
      5          1           0       -0.452605   -1.551709    0.088106
      6          1           0       -1.766179    1.172405   -0.093121
      7          1           0       -2.744622   -0.449625   -0.094539
      8          1           0        0.467812    1.494970    0.168254
 ---------------------------------------------------------------------

 SCF Done:  E(RB2PLYPD3) =  -191.604495819     A.U. after   12 cycles
 E2(B2PLYPD3) =    -0.2487578243D+00 E(B2PLYPD3) =    -0.19185325364352D+03

 The electronic state is 1-A.
 Alpha  occ. eigenvalues --  -19.73069 -10.72282 -10.65938 -10.64742  -1.19400
 Alpha  occ. eigenvalues --   -0.93252  -0.75359  -0.66198  -0.56381  -0.55837
 Alpha  occ. eigenvalues --   -0.50053  -0.47074  -0.46285  -0.34683  -0.33905
 Alpha virt. eigenvalues --   -0.02142   0.05624   0.06581   0.08131   0.09795
 Alpha virt. eigenvalues --    0.12464   0.13735   0.15269   0.17169   0.19441
 Alpha virt. eigenvalues --    0.20431   0.21174   0.25221   0.26347   0.28854

 Mulliken charges:
               1
     1  C    0.153465
     2  O   -0.345949
     3  C   -0.025245
     4  C   -0.130727
     5  H    0.101187
     6  H    0.087222
     7  H    0.103336
     8  H    0.056712
 Sum of Mulliken charges =   0.00000

 Dipole moment (field-independent basis, Debye):
    X=             -3.5252    Y=              0.7070    Z=              0.0647  Tot=              3.5960
 Quadrupole moment (field-independent basis, Debye-Ang):
   XX=            -27.3617   YY=            -21.9559   ZZ=            -25.3179
   XY=              1.0311   XZ=              0.5292   YZ=             -0.0919

 Normal termination of Gaussian 09 at Wed Aug 26 10:01:54 2020.
