 Gaussian 09, Revision D.01,
 Gaussian 09:  ES64L-G09RevD.01 24-Apr-2013

 --------------------
 #p B2PLYPD3/Def2QZVP
 --------------------

 --------
 acrolein
 --------
 Symbolic Z-matrix:
 Charge =  0 Multiplicity = 1

                         Standard orientation:
 ---------------------------------------------------------------------
 Center     Atomic      Atomic             Coordinates (Angstroms)
 Number     Number       Type             X           Y           Z
 ---------------------------------------------------------------------
      1          6           0       -0.665231    0.341644    0.013399
      2          8           0       -1.791908   -0.108485   -0.013390
      3          6           0        0.559455   -0.458311    0.028887
      4          6           0        1.757771    0.148664   -0.016897
      5          1           0        0.412989   -1.575770   -0.035478
      6          1           0        1.832387    1.235670   -0.012417
      7          1           0        2.663024   -0.426156   -0.005883
      8          1           0       -0.485103    1.442156    0.008565
 ---------------------------------------------------------------------

 SCF Done:  E(RB2PLYPD3) =  -191.614352902     A.U. after   12 cycles
 E2(B2PLYPD3) =    -0.2479148218D+00 E(B2PLYPD3) =    -0.19186226772380D+03

 The electronic state is 1-A.
 Alpha  occ. eigenvalues --  -19.72794 -10.71587 -10.65817 -10.65050  -1.19294
 Alpha  occ. eigenvalues --   -0.92882  -0.75613  -0.66355  -0.56431  -0.56165
 Alpha  occ. eigenvalues --   -0.50374  -0.46917  -0.46578  -0.34608  -0.33782
 Alpha virt. eigenvalues --   -0.01997   0.05738   0.06922   0.08163   0.09744
 Alpha virt. eigenvalues --    0.12572   0.13854   0.15292   0.17203   0.19780
 Alpha virt. eigenvalues --    0.19970   0.21656   0.25252   0.26550   0.28713

 Mulliken charges:
               1
     1  C    0.158713
     2  O   -0.350663
     3  C   -0.035258
     4  C   -0.131292
     5  H    0.101383
     6  H    0.088030
     7  H    0.105949
     8  H    0.063138
 Sum of Mulliken charges =   0.00000

 Dipole moment (field-independent basis, Debye):
    X=              3.5561    Y=              0.7081    Z=             -0.0019  Tot=              3.6259
 Quadrupole moment (field-independent basis, Debye-Ang):
   XX=            -27.5198   YY=            -21.7231   ZZ=            -25.3076
   XY=             -0.7610   XZ=             -0.1212   YZ=              0.0616

 Normal termination of Gaussian 09 at Wed Aug 26 18:51:05 2020.
