 Gaussian 09, Revision D.01,
 Gaussian 09:  ES64L-G09RevD.01 24-Apr-2013

 --------------------
 #p B2PLYPD3/Def2QZVP
 --------------------

 --------
 acrolein
 --------
 Symbolic Z-matrix:
 Charge =  0 Multiplicity = 1

                         Standard orientation:
 ---------------------------------------------------------------------
 Center     Atomic      Atomic             Coordinates (Angstroms)
 Number     Number       Type             X           Y           Z
 ---------------------------------------------------------------------
      1          6           0       -0.675180    0.349811    0.008150
      2          8           0       -1.789119   -0.118986   -0.005533
      3          6           0        0.570833   -0.463942   -0.012387
      4          6           0        1.755987    0.150790   -0.008331
      5          1           0        0.453365   -1.504592    0.056260
      6          1           0        1.862028    1.237843   -0.000615
      7          1           0        2.646362   -0.421374    0.029777
      8          1           0       -0.558640    1.420050    0.034253
 ---------------------------------------------------------------------

 SCF Done:  E(RB2PLYPD3) =  -191.615482713     A.U. after   12 cycles
 E2(B2PLYPD3) =    -0.2465064527D+00 E(B2PLYPD3) =    -0.19186198916552D+03

 The electronic state is 1-A.
 Alpha  occ. eigenvalues --  -19.72636 -10.71238 -10.65230 -10.64227  -1.19537
 Alpha  occ. eigenvalues --   -0.92819  -0.75293  -0.67712  -0.56807  -0.56421
 Alpha  occ. eigenvalues --   -0.50675  -0.47484  -0.46594  -0.34613  -0.33698
 Alpha virt. eigenvalues --   -0.01504   0.05790   0.07374   0.08033   0.09703
 Alpha virt. eigenvalues --    0.12597   0.14040   0.15362   0.17751   0.19650
 Alpha virt. eigenvalues --    0.19991   0.21711   0.25332   0.26516   0.28708

 Mulliken charges:
               1
     1  C    0.154106
     2  O   -0.349025
     3  C   -0.050419
     4  C   -0.130628
     5  H    0.110687
     6  H    0.087360
     7  H    0.099498
     8  H    0.078422
 Sum of Mulliken charges =   0.00000

 Dipole moment (field-independent basis, Debye):
    X=              3.4442    Y=              0.7863    Z=              0.1127  Tot=              3.5346
 Quadrupole moment (field-independent basis, Debye-Ang):
   XX=            -27.5546   YY=            -21.5682   ZZ=            -25.1668
   XY=             -0.9236   XZ=              0.0817   YZ=             -0.0930

 Normal termination of Gaussian 09 at Wed Aug 26 15:15:15 2020.
