 Gaussian 09, Revision D.01,
 Gaussian 09:  ES64L-G09RevD.01 24-Apr-2013

 --------------------
 #p B2PLYPD3/Def2QZVP
 --------------------

 --------
 acrolein
 --------
 Symbolic Z-matrix:
 Charge =  0 Multiplicity = 1

                         Standard orientation:
 ---------------------------------------------------------------------
 Center     Atomic      Atomic             Coordinates (Angstroms)
 Number     Number       Type             X           Y           Z
 ---------------------------------------------------------------------
      1          6           0       -0.668215    0.337545    0.025077
      2          8           0       -1.784502   -0.119533   -0.022928
      3          6           0        0.555698   -0.447261    0.017645
      4          6           0        1.753135    0.142497   -0.026553
      5          1           0        0.441556   -1.499224    0.017033
      6          1           0        1.811171    1.213932   -0.059052
      7          1           0        2.698500   -0.421213    0.049656
      8          1           0       -0.518926    1.466077    0.078767
 ---------------------------------------------------------------------

 SCF Done:  E(RB2PLYPD3) =  -191.615242096     A.U. after   13 cycles
 E2(B2PLYPD3) =    -0.2471934343D+00 E(B2PLYPD3) =    -0.19186243553047D+03

 The electronic state is 1-A.
 Alpha  occ. eigenvalues --  -19.72803 -10.71669 -10.65760 -10.64155  -1.19746
 Alpha  occ. eigenvalues --   -0.93242  -0.75458  -0.66904  -0.56485  -0.56448
 Alpha  occ. eigenvalues --   -0.50493  -0.47218  -0.46955  -0.34718  -0.33749
 Alpha virt. eigenvalues --   -0.01920   0.05745   0.07138   0.08391   0.09789
 Alpha virt. eigenvalues --    0.12499   0.13892   0.15377   0.17535   0.19619
 Alpha virt. eigenvalues --    0.20064   0.21473   0.25484   0.26330   0.28955

 Mulliken charges:
               1
     1  C    0.154518
     2  O   -0.346031
     3  C   -0.032753
     4  C   -0.128381
     5  H    0.106502
     6  H    0.086074
     7  H    0.102439
     8  H    0.057632
 Sum of Mulliken charges =   0.00000

 Dipole moment (field-independent basis, Debye):
    X=              3.5136    Y=              0.6815    Z=              0.1104  Tot=              3.5808
 Quadrupole moment (field-independent basis, Debye-Ang):
   XX=            -27.2958   YY=            -21.8963   ZZ=            -25.1986
   XY=             -0.9217   XZ=             -0.0674   YZ=             -0.0896

 Normal termination of Gaussian 09 at Wed Aug 26 15:06:57 2020.
