 Gaussian 09, Revision D.01,
 Gaussian 09:  ES64L-G09RevD.01 24-Apr-2013

 --------------------
 #p B2PLYPD3/Def2QZVP
 --------------------

 --------
 acrolein
 --------
 Symbolic Z-matrix:
 Charge =  0 Multiplicity = 1

                         Standard orientation:
 ---------------------------------------------------------------------
 Center     Atomic      Atomic             Coordinates (Angstroms)
 Number     Number       Type             X           Y           Z
 ---------------------------------------------------------------------
      1          6           0        0.661049    0.360842    0.031137
      2          8           0        1.787198   -0.137618   -0.036401
      3          6           0       -0.542354   -0.433030    0.015832
      4          6           0       -1.752009    0.134983   -0.036684
      5          1           0       -0.453358   -1.557115    0.141987
      6          1           0       -1.753786    1.165676   -0.002572
      7          1           0       -2.758719   -0.422184   -0.024954
      8          1           0        0.468159    1.537796    0.115041
 ---------------------------------------------------------------------

 SCF Done:  E(RB2PLYPD3) =  -191.600406558     A.U. after   13 cycles
 E2(B2PLYPD3) =    -0.2499112652D+00 E(B2PLYPD3) =    -0.19185031782311D+03

 The electronic state is 1-A.
 Alpha  occ. eigenvalues --  -19.73147 -10.72801 -10.65904 -10.64962  -1.18433
 Alpha  occ. eigenvalues --   -0.93422  -0.75476  -0.65881  -0.56052  -0.55947
 Alpha  occ. eigenvalues --   -0.49953  -0.46944  -0.45629  -0.34623  -0.34070
 Alpha virt. eigenvalues --   -0.02389   0.05590   0.06342   0.08099   0.09761
 Alpha virt. eigenvalues --    0.12320   0.13736   0.15149   0.17022   0.19845
 Alpha virt. eigenvalues --    0.20249   0.21206   0.25342   0.26137   0.29272

 Mulliken charges:
               1
     1  C    0.152202
     2  O   -0.352331
     3  C   -0.019899
     4  C   -0.126516
     5  H    0.100458
     6  H    0.083287
     7  H    0.105163
     8  H    0.057635
 Sum of Mulliken charges =   0.00000

 Dipole moment (field-independent basis, Debye):
    X=             -3.6269    Y=              0.7510    Z=              0.2515  Tot=              3.7123
 Quadrupole moment (field-independent basis, Debye-Ang):
   XX=            -27.3209   YY=            -21.9731   ZZ=            -25.3826
   XY=              1.0947   XZ=              0.1519   YZ=             -0.1291

 Normal termination of Gaussian 09 at Wed Aug 26 09:50:36 2020.
