 Gaussian 09, Revision D.01,
 Gaussian 09:  ES64L-G09RevD.01 24-Apr-2013

 --------------------
 #p B2PLYPD3/Def2QZVP
 --------------------

 --------
 acrolein
 --------
 Symbolic Z-matrix:
 Charge =  0 Multiplicity = 1

                         Standard orientation:
 ---------------------------------------------------------------------
 Center     Atomic      Atomic             Coordinates (Angstroms)
 Number     Number       Type             X           Y           Z
 ---------------------------------------------------------------------
      1          6           0        0.669527    0.378163    0.058266
      2          8           0        1.781084   -0.144630   -0.040873
      3          6           0       -0.559059   -0.438282    0.013949
      4          6           0       -1.745816    0.126454   -0.037400
      5          1           0       -0.470018   -1.531109    0.075961
      6          1           0       -1.793556    1.242019   -0.061584
      7          1           0       -2.704430   -0.416298    0.039100
      8          1           0        0.531420    1.464420    0.064621
 ---------------------------------------------------------------------

 SCF Done:  E(RB2PLYPD3) =  -191.611598744     A.U. after   12 cycles
 E2(B2PLYPD3) =    -0.2482738757D+00 E(B2PLYPD3) =    -0.19185987261935D+03

 The electronic state is 1-A.
 Alpha  occ. eigenvalues --  -19.72956 -10.72049 -10.65551 -10.64307  -1.18391
 Alpha  occ. eigenvalues --   -0.93130  -0.75047  -0.66902  -0.56266  -0.56234
 Alpha  occ. eigenvalues --   -0.50439  -0.46209  -0.45767  -0.34849  -0.34076
 Alpha virt. eigenvalues --   -0.01791   0.05639   0.06980   0.07813   0.09722
 Alpha virt. eigenvalues --    0.12284   0.14163   0.15334   0.17434   0.19547
 Alpha virt. eigenvalues --    0.19847   0.21426   0.25546   0.26353   0.29274

 Mulliken charges:
               1
     1  C    0.154906
     2  O   -0.355013
     3  C   -0.040673
     4  C   -0.122963
     5  H    0.105001
     6  H    0.070714
     7  H    0.102197
     8  H    0.085831
 Sum of Mulliken charges =   0.00000

 Dipole moment (field-independent basis, Debye):
    X=             -3.4531    Y=              0.8897    Z=              0.2372  Tot=              3.5737
 Quadrupole moment (field-independent basis, Debye-Ang):
   XX=            -27.6113   YY=            -21.6347   ZZ=            -25.2761
   XY=              1.2729   XZ=              0.1213   YZ=             -0.1523

 Normal termination of Gaussian 09 at Wed Aug 26 09:42:28 2020.
