 Gaussian 09, Revision D.01,
 Gaussian 09:  ES64L-G09RevD.01 24-Apr-2013

 --------------------
 #p B2PLYPD3/Def2QZVP
 --------------------

 --------
 acrolein
 --------
 Symbolic Z-matrix:
 Charge =  0 Multiplicity = 1

                         Standard orientation:
 ---------------------------------------------------------------------
 Center     Atomic      Atomic             Coordinates (Angstroms)
 Number     Number       Type             X           Y           Z
 ---------------------------------------------------------------------
      1          6           0       -0.676931    0.352345    0.024641
      2          8           0       -1.780592   -0.128289   -0.017406
      3          6           0        0.546423   -0.426837    0.022742
      4          6           0        1.764593    0.135817   -0.014631
      5          1           0        0.447806   -1.515458   -0.004969
      6          1           0        1.813487    1.168815    0.012987
      7          1           0        2.687936   -0.426776   -0.038183
      8          1           0       -0.509001    1.431780   -0.027096
 ---------------------------------------------------------------------

 SCF Done:  E(RB2PLYPD3) =  -191.614523103     A.U. after   12 cycles
 E2(B2PLYPD3) =    -0.2467728841D+00 E(B2PLYPD3) =    -0.19186129598718D+03

 The electronic state is 1-A.
 Alpha  occ. eigenvalues --  -19.72802 -10.71284 -10.65115 -10.64287  -1.19934
 Alpha  occ. eigenvalues --   -0.93101  -0.76110  -0.67223  -0.56994  -0.56584
 Alpha  occ. eigenvalues --   -0.50845  -0.47105  -0.46811  -0.34516  -0.33965
 Alpha virt. eigenvalues --   -0.01987   0.05826   0.07216   0.08424   0.09815
 Alpha virt. eigenvalues --    0.12657   0.14098   0.15388   0.17499   0.19831
 Alpha virt. eigenvalues --    0.20122   0.21684   0.25478   0.26511   0.28875

 Mulliken charges:
               1
     1  C    0.151164
     2  O   -0.345513
     3  C   -0.028624
     4  C   -0.137337
     5  H    0.100552
     6  H    0.084015
     7  H    0.106196
     8  H    0.069546
 Sum of Mulliken charges =   0.00000

 Dipole moment (field-independent basis, Debye):
    X=              3.4826    Y=              0.7908    Z=              0.0296  Tot=              3.5714
 Quadrupole moment (field-independent basis, Debye-Ang):
   XX=            -27.1814   YY=            -21.8872   ZZ=            -25.1414
   XY=             -1.0431   XZ=             -0.1610   YZ=              0.0470

 Normal termination of Gaussian 09 at Wed Aug 26 20:25:45 2020.
