 Gaussian 09, Revision D.01,
 Gaussian 09:  ES64L-G09RevD.01 24-Apr-2013

 --------------------
 #p B2PLYPD3/Def2QZVP
 --------------------

 --------
 acrolein
 --------
 Symbolic Z-matrix:
 Charge =  0 Multiplicity = 1

                         Standard orientation:
 ---------------------------------------------------------------------
 Center     Atomic      Atomic             Coordinates (Angstroms)
 Number     Number       Type             X           Y           Z
 ---------------------------------------------------------------------
      1          6           0       -0.654275    0.346383   -0.073555
      2          8           0       -1.779760   -0.109025    0.050959
      3          6           0        0.561587   -0.475583    0.003680
      4          6           0        1.751423    0.162061    0.004186
      5          1           0        0.398312   -1.569952   -0.038092
      6          1           0        1.814528    1.307799    0.267686
      7          1           0        2.662296   -0.457705   -0.071791
      8          1           0       -0.589460    1.394881   -0.171337
 ---------------------------------------------------------------------

 SCF Done:  E(RB2PLYPD3) =  -191.601612163     A.U. after   14 cycles
 E2(B2PLYPD3) =    -0.2485623331D+00 E(B2PLYPD3) =    -0.19185017449590D+03

 The electronic state is 1-A.
 Alpha  occ. eigenvalues --  -19.72286 -10.70829 -10.66919 -10.65102  -1.18698
 Alpha  occ. eigenvalues --   -0.92456  -0.74775  -0.67093  -0.56159  -0.55554
 Alpha  occ. eigenvalues --   -0.49817  -0.46805  -0.46011  -0.34273  -0.33527
 Alpha virt. eigenvalues --   -0.02025   0.05362   0.06959   0.07552   0.09721
 Alpha virt. eigenvalues --    0.12318   0.13858   0.15237   0.17304   0.18854
 Alpha virt. eigenvalues --    0.20226   0.21515   0.24388   0.26535   0.28796

 Mulliken charges:
               1
     1  C    0.158408
     2  O   -0.358747
     3  C   -0.049719
     4  C   -0.131561
     5  H    0.110070
     6  H    0.091889
     7  H    0.100898
     8  H    0.078763
 Sum of Mulliken charges =   0.00000

 Dipole moment (field-independent basis, Debye):
    X=              3.4814    Y=              0.7480    Z=             -0.1396  Tot=              3.5636
 Quadrupole moment (field-independent basis, Debye-Ang):
   XX=            -28.0290   YY=            -21.3651   ZZ=            -25.3278
   XY=             -1.0176   XZ=              0.4866   YZ=              0.4040

 Normal termination of Gaussian 09 at Wed Aug 26 11:01:39 2020.
