 Gaussian 09, Revision D.01,
 Gaussian 09:  ES64L-G09RevD.01 24-Apr-2013

 --------------------
 #p B2PLYPD3/Def2QZVP
 --------------------

 --------
 acrolein
 --------
 Symbolic Z-matrix:
 Charge =  0 Multiplicity = 1

                         Standard orientation:
 ---------------------------------------------------------------------
 Center     Atomic      Atomic             Coordinates (Angstroms)
 Number     Number       Type             X           Y           Z
 ---------------------------------------------------------------------
      1          6           0       -0.674902    0.351971    0.012935
      2          8           0       -1.771182   -0.129568   -0.011925
      3          6           0        0.545331   -0.436297    0.021580
      4          6           0        1.758562    0.136734   -0.014771
      5          1           0        0.443072   -1.493290   -0.013695
      6          1           0        1.812308    1.213793    0.003837
      7          1           0        2.691829   -0.435135   -0.012182
      8          1           0       -0.551695    1.436726   -0.001027
 ---------------------------------------------------------------------

 SCF Done:  E(RB2PLYPD3) =  -191.616475896     A.U. after   13 cycles
 E2(B2PLYPD3) =    -0.2463884252D+00 E(B2PLYPD3) =    -0.19186286432073D+03

 The electronic state is 1-A.
 Alpha  occ. eigenvalues --  -19.72590 -10.71043 -10.65627 -10.64011  -1.20281
 Alpha  occ. eigenvalues --   -0.92906  -0.75501  -0.67390  -0.56908  -0.56405
 Alpha  occ. eigenvalues --   -0.50641  -0.47254  -0.46959  -0.34483  -0.33839
 Alpha virt. eigenvalues --   -0.01743   0.05777   0.07285   0.08451   0.09795
 Alpha virt. eigenvalues --    0.12498   0.14023   0.15405   0.17729   0.19785
 Alpha virt. eigenvalues --    0.19918   0.21478   0.25566   0.26376   0.29054

 Mulliken charges:
               1
     1  C    0.151449
     2  O   -0.343606
     3  C   -0.038289
     4  C   -0.134034
     5  H    0.106796
     6  H    0.083047
     7  H    0.104071
     8  H    0.070566
 Sum of Mulliken charges =   0.00000

 Dipole moment (field-independent basis, Debye):
    X=              3.4194    Y=              0.7746    Z=              0.0192  Tot=              3.5061
 Quadrupole moment (field-independent basis, Debye-Ang):
   XX=            -27.2288   YY=            -21.7955   ZZ=            -25.1643
   XY=             -1.1221   XZ=             -0.0919   YZ=              0.0433

 Normal termination of Gaussian 09 at Wed Aug 26 09:45:40 2020.
