 Gaussian 09, Revision D.01,
 Gaussian 09:  ES64L-G09RevD.01 24-Apr-2013

 --------------------
 #p B2PLYPD3/Def2QZVP
 --------------------

 --------
 acrolein
 --------
 Symbolic Z-matrix:
 Charge =  0 Multiplicity = 1

                         Standard orientation:
 ---------------------------------------------------------------------
 Center     Atomic      Atomic             Coordinates (Angstroms)
 Number     Number       Type             X           Y           Z
 ---------------------------------------------------------------------
      1          6           0       -0.662995    0.341007   -0.012176
      2          8           0       -1.796668   -0.111979    0.015183
      3          6           0        0.572837   -0.463821   -0.013613
      4          6           0        1.743404    0.148346    0.002459
      5          1           0        0.467999   -1.527021   -0.036766
      6          1           0        1.844464    1.237038    0.003284
      7          1           0        2.613766   -0.417950    0.073417
      8          1           0       -0.472363    1.450574   -0.021425
 ---------------------------------------------------------------------

 SCF Done:  E(RB2PLYPD3) =  -191.614656016     A.U. after   12 cycles
 E2(B2PLYPD3) =    -0.2474030975D+00 E(B2PLYPD3) =    -0.19186205911325D+03

 The electronic state is 1-A.
 Alpha  occ. eigenvalues --  -19.72897 -10.71897 -10.65002 -10.64232  -1.18856
 Alpha  occ. eigenvalues --   -0.93531  -0.75621  -0.66945  -0.56851  -0.56184
 Alpha  occ. eigenvalues --   -0.50511  -0.47432  -0.46412  -0.34945  -0.33769
 Alpha virt. eigenvalues --   -0.01702   0.05778   0.07133   0.08055   0.09732
 Alpha virt. eigenvalues --    0.12706   0.13933   0.15279   0.17432   0.19781
 Alpha virt. eigenvalues --    0.19968   0.21824   0.25437   0.26554   0.28515

 Mulliken charges:
               1
     1  C    0.156930
     2  O   -0.353148
     3  C   -0.036276
     4  C   -0.127345
     5  H    0.105441
     6  H    0.086876
     7  H    0.101188
     8  H    0.066336
 Sum of Mulliken charges =   0.00000

 Dipole moment (field-independent basis, Debye):
    X=              3.5731    Y=              0.6925    Z=             -0.0217  Tot=              3.6397
 Quadrupole moment (field-independent basis, Debye-Ang):
   XX=            -27.6531   YY=            -21.6612   ZZ=            -25.1629
   XY=             -0.7886   XZ=              0.2387   YZ=              0.0031

 Normal termination of Gaussian 09 at Wed Aug 26 15:53:15 2020.
