 Gaussian 09, Revision D.01,
 Gaussian 09:  ES64L-G09RevD.01 24-Apr-2013

 --------------------
 #p B2PLYPD3/Def2QZVP
 --------------------

 --------
 acrolein
 --------
 Symbolic Z-matrix:
 Charge =  0 Multiplicity = 1

                         Standard orientation:
 ---------------------------------------------------------------------
 Center     Atomic      Atomic             Coordinates (Angstroms)
 Number     Number       Type             X           Y           Z
 ---------------------------------------------------------------------
      1          6           0        0.678122    0.367717   -0.001431
      2          8           0        1.773524   -0.140031   -0.009005
      3          6           0       -0.545862   -0.437675    0.011610
      4          6           0       -1.744002    0.123651   -0.028208
      5          1           0       -0.488201   -1.414822    0.038516
      6          1           0       -1.820825    1.181642   -0.003115
      7          1           0       -2.719964   -0.397585    0.057086
      8          1           0        0.511251    1.428853    0.087731
 ---------------------------------------------------------------------

 SCF Done:  E(RB2PLYPD3) =  -191.606207334     A.U. after   13 cycles
 E2(B2PLYPD3) =    -0.2461234842D+00 E(B2PLYPD3) =    -0.19185233081816D+03

 The electronic state is 1-A.
 Alpha  occ. eigenvalues --  -19.72827 -10.71346 -10.65053 -10.62880  -1.19819
 Alpha  occ. eigenvalues --   -0.93467  -0.75451  -0.68903  -0.57214  -0.56512
 Alpha  occ. eigenvalues --   -0.51021  -0.47101  -0.46861  -0.34689  -0.34044
 Alpha virt. eigenvalues --   -0.01582   0.05751   0.07569   0.08205   0.09721
 Alpha virt. eigenvalues --    0.12572   0.14232   0.15424   0.18231   0.19629
 Alpha virt. eigenvalues --    0.19993   0.21334   0.25662   0.26432   0.28919

 Mulliken charges:
               1
     1  C    0.148519
     2  O   -0.346691
     3  C   -0.043730
     4  C   -0.123986
     5  H    0.115066
     6  H    0.072515
     7  H    0.092636
     8  H    0.085671
 Sum of Mulliken charges =   0.00000

 Dipole moment (field-independent basis, Debye):
    X=             -3.3982    Y=              0.8603    Z=              0.1330  Tot=              3.5079
 Quadrupole moment (field-independent basis, Debye-Ang):
   XX=            -27.2074   YY=            -21.8380   ZZ=            -25.0039
   XY=              1.1064   XZ=             -0.1167   YZ=             -0.0344

 Normal termination of Gaussian 09 at Wed Aug 26 09:06:45 2020.
