 Gaussian 09, Revision D.01,
 Gaussian 09:  ES64L-G09RevD.01 24-Apr-2013

 --------------------
 #p B2PLYPD3/Def2QZVP
 --------------------

 --------
 acrolein
 --------
 Symbolic Z-matrix:
 Charge =  0 Multiplicity = 1

                         Standard orientation:
 ---------------------------------------------------------------------
 Center     Atomic      Atomic             Coordinates (Angstroms)
 Number     Number       Type             X           Y           Z
 ---------------------------------------------------------------------
      1          6           0        0.673928    0.342731   -0.011776
      2          8           0        1.788358   -0.113496    0.005216
      3          6           0       -0.566341   -0.455951   -0.004149
      4          6           0       -1.752068    0.143820   -0.005039
      5          1           0       -0.457889   -1.533294    0.014155
      6          1           0       -1.885117    1.264735    0.013758
      7          1           0       -2.642288   -0.420726    0.028948
      8          1           0        0.545315    1.413655    0.027186
 ---------------------------------------------------------------------

 SCF Done:  E(RB2PLYPD3) =  -191.615096229     A.U. after   12 cycles
 E2(B2PLYPD3) =    -0.2465146340D+00 E(B2PLYPD3) =    -0.19186161086276D+03

 The electronic state is 1-A.
 Alpha  occ. eigenvalues --  -19.72641 -10.71131 -10.65527 -10.64410  -1.19803
 Alpha  occ. eigenvalues --   -0.92937  -0.75429  -0.67089  -0.56678  -0.56420
 Alpha  occ. eigenvalues --   -0.50734  -0.46887  -0.46673  -0.34781  -0.33730
 Alpha virt. eigenvalues --   -0.01529   0.05729   0.07218   0.08276   0.09645
 Alpha virt. eigenvalues --    0.12532   0.14160   0.15370   0.17582   0.19491
 Alpha virt. eigenvalues --    0.19981   0.21739   0.25495   0.26499   0.28570

 Mulliken charges:
               1
     1  C    0.157897
     2  O   -0.346519
     3  C   -0.046841
     4  C   -0.127919
     5  H    0.105028
     6  H    0.083126
     7  H    0.101676
     8  H    0.073553
 Sum of Mulliken charges =   0.00000

 Dipole moment (field-independent basis, Debye):
    X=             -3.4673    Y=              0.7420    Z=              0.0338  Tot=              3.5460
 Quadrupole moment (field-independent basis, Debye-Ang):
   XX=            -27.4568   YY=            -21.6499   ZZ=            -25.1852
   XY=              0.8769   XZ=             -0.1231   YZ=             -0.0078

 Normal termination of Gaussian 09 at Wed Aug 26 13:16:03 2020.
