 Gaussian 09, Revision D.01,
 Gaussian 09:  ES64L-G09RevD.01 24-Apr-2013

 --------------------
 #p B2PLYPD3/Def2QZVP
 --------------------

 --------
 acrolein
 --------
 Symbolic Z-matrix:
 Charge =  0 Multiplicity = 1

                         Standard orientation:
 ---------------------------------------------------------------------
 Center     Atomic      Atomic             Coordinates (Angstroms)
 Number     Number       Type             X           Y           Z
 ---------------------------------------------------------------------
      1          6           0       -0.669831    0.338351    0.016364
      2          8           0       -1.789454   -0.107534   -0.016907
      3          6           0        0.565450   -0.455931   -0.002606
      4          6           0        1.755491    0.136671   -0.017950
      5          1           0        0.407645   -1.541681    0.083156
      6          1           0        1.866036    1.248971   -0.006509
      7          1           0        2.633167   -0.401609    0.013284
      8          1           0       -0.497872    1.440047    0.070477
 ---------------------------------------------------------------------

 SCF Done:  E(RB2PLYPD3) =  -191.613892377     A.U. after   12 cycles
 E2(B2PLYPD3) =    -0.2469317489D+00 E(B2PLYPD3) =    -0.19186082412554D+03

 The electronic state is 1-A.
 Alpha  occ. eigenvalues --  -19.72846 -10.71496 -10.65335 -10.64596  -1.19814
 Alpha  occ. eigenvalues --   -0.93093  -0.75825  -0.66468  -0.57135  -0.55999
 Alpha  occ. eigenvalues --   -0.50943  -0.47129  -0.46491  -0.34845  -0.33720
 Alpha virt. eigenvalues --   -0.01711   0.05770   0.07129   0.08345   0.09715
 Alpha virt. eigenvalues --    0.12598   0.14038   0.15299   0.17336   0.19613
 Alpha virt. eigenvalues --    0.19988   0.21907   0.25391   0.26622   0.28616

 Mulliken charges:
               1
     1  C    0.161110
     2  O   -0.345851
     3  C   -0.038680
     4  C   -0.127501
     5  H    0.101549
     6  H    0.082622
     7  H    0.105372
     8  H    0.061379
 Sum of Mulliken charges =   0.00000

 Dipole moment (field-independent basis, Debye):
    X=              3.4967    Y=              0.6823    Z=              0.1596  Tot=              3.5662
 Quadrupole moment (field-independent basis, Debye-Ang):
   XX=            -27.3521   YY=            -21.8261   ZZ=            -25.1856
   XY=             -0.6987   XZ=             -0.0128   YZ=             -0.1138

 Normal termination of Gaussian 09 at Wed Aug 26 11:50:14 2020.
