 Gaussian 09, Revision D.01,
 Gaussian 09:  ES64L-G09RevD.01 24-Apr-2013

 --------------------
 #p B2PLYPD3/Def2QZVP
 --------------------

 --------
 acrolein
 --------
 Symbolic Z-matrix:
 Charge =  0 Multiplicity = 1

                         Standard orientation:
 ---------------------------------------------------------------------
 Center     Atomic      Atomic             Coordinates (Angstroms)
 Number     Number       Type             X           Y           Z
 ---------------------------------------------------------------------
      1          6           0       -0.681744    0.353658    0.018838
      2          8           0       -1.780521   -0.130563   -0.020613
      3          6           0        0.555022   -0.443379    0.005757
      4          6           0        1.755193    0.145440   -0.023027
      5          1           0        0.440000   -1.514761    0.072243
      6          1           0        1.833791    1.191982   -0.024435
      7          1           0        2.745984   -0.432257    0.023887
      8          1           0       -0.546433    1.465234    0.083800
 ---------------------------------------------------------------------

 SCF Done:  E(RB2PLYPD3) =  -191.613296956     A.U. after   12 cycles
 E2(B2PLYPD3) =    -0.2469880107D+00 E(B2PLYPD3) =    -0.19186028496684D+03

 The electronic state is 1-A.
 Alpha  occ. eigenvalues --  -19.72844 -10.71664 -10.65753 -10.64411  -1.20168
 Alpha  occ. eigenvalues --   -0.92727  -0.74978  -0.66999  -0.56864  -0.55863
 Alpha  occ. eigenvalues --   -0.50499  -0.47167  -0.46629  -0.34600  -0.33818
 Alpha virt. eigenvalues --   -0.01635   0.05685   0.07092   0.08257   0.09739
 Alpha virt. eigenvalues --    0.12375   0.14005   0.15376   0.17562   0.19782
 Alpha virt. eigenvalues --    0.20050   0.21268   0.25448   0.26334   0.28846

 Mulliken charges:
               1
     1  C    0.152701
     2  O   -0.341434
     3  C   -0.039493
     4  C   -0.132035
     5  H    0.107600
     6  H    0.087234
     7  H    0.096773
     8  H    0.068655
 Sum of Mulliken charges =   0.00000

 Dipole moment (field-independent basis, Debye):
    X=              3.3832    Y=              0.7892    Z=              0.1583  Tot=              3.4776
 Quadrupole moment (field-independent basis, Debye-Ang):
   XX=            -27.2829   YY=            -21.8295   ZZ=            -25.2550
   XY=             -0.9686   XZ=             -0.0389   YZ=             -0.1128

 Normal termination of Gaussian 09 at Wed Aug 26 11:11:47 2020.
