 Gaussian 09, Revision D.01,
 Gaussian 09:  ES64L-G09RevD.01 24-Apr-2013

 --------------------
 #p B2PLYPD3/Def2QZVP
 --------------------

 --------
 acrolein
 --------
 Symbolic Z-matrix:
 Charge =  0 Multiplicity = 1

                         Standard orientation:
 ---------------------------------------------------------------------
 Center     Atomic      Atomic             Coordinates (Angstroms)
 Number     Number       Type             X           Y           Z
 ---------------------------------------------------------------------
      1          6           0        0.671940    0.335352   -0.007745
      2          8           0        1.795127   -0.105771    0.007149
      3          6           0       -0.564915   -0.452241   -0.020799
      4          6           0       -1.761703    0.148560   -0.005411
      5          1           0       -0.433280   -1.537946    0.042314
      6          1           0       -1.866150    1.217217    0.020413
      7          1           0       -2.640167   -0.417764    0.058845
      8          1           0        0.506646    1.394637    0.024976
 ---------------------------------------------------------------------

 SCF Done:  E(RB2PLYPD3) =  -191.615422359     A.U. after   12 cycles
 E2(B2PLYPD3) =    -0.2466507961D+00 E(B2PLYPD3) =    -0.19186207315513D+03

 The electronic state is 1-A.
 Alpha  occ. eigenvalues --  -19.72707 -10.71030 -10.65235 -10.64594  -1.19643
 Alpha  occ. eigenvalues --   -0.93050  -0.76110  -0.67259  -0.56798  -0.56646
 Alpha  occ. eigenvalues --   -0.50778  -0.47288  -0.46744  -0.34658  -0.33772
 Alpha virt. eigenvalues --   -0.01875   0.05813   0.07252   0.08360   0.09717
 Alpha virt. eigenvalues --    0.12758   0.14076   0.15344   0.17503   0.19783
 Alpha virt. eigenvalues --    0.19975   0.21896   0.25319   0.26677   0.28488

 Mulliken charges:
               1
     1  C    0.156599
     2  O   -0.349546
     3  C   -0.036156
     4  C   -0.133262
     5  H    0.101442
     6  H    0.087643
     7  H    0.103868
     8  H    0.069412
 Sum of Mulliken charges =   0.00000

 Dipole moment (field-independent basis, Debye):
    X=             -3.5351    Y=              0.7321    Z=              0.0915  Tot=              3.6113
 Quadrupole moment (field-independent basis, Debye-Ang):
   XX=            -27.4272   YY=            -21.7482   ZZ=            -25.1406
   XY=              0.7427   XZ=             -0.2409   YZ=             -0.0706

 Normal termination of Gaussian 09 at Wed Aug 26 16:34:27 2020.
