 Gaussian 09, Revision D.01,
 Gaussian 09:  ES64L-G09RevD.01 24-Apr-2013

 --------------------
 #p B2PLYPD3/Def2QZVP
 --------------------

 --------
 acrolein
 --------
 Symbolic Z-matrix:
 Charge =  0 Multiplicity = 1

                         Standard orientation:
 ---------------------------------------------------------------------
 Center     Atomic      Atomic             Coordinates (Angstroms)
 Number     Number       Type             X           Y           Z
 ---------------------------------------------------------------------
      1          6           0        0.672227    0.346632   -0.001026
      2          8           0        1.790634   -0.118907    0.010948
      3          6           0       -0.568996   -0.458935   -0.026385
      4          6           0       -1.755648    0.157253    0.015444
      5          1           0       -0.444395   -1.527717   -0.013796
      6          1           0       -1.816477    1.232137   -0.039134
      7          1           0       -2.713198   -0.428351    0.054396
      8          1           0        0.563498    1.405488   -0.017244
 ---------------------------------------------------------------------

 SCF Done:  E(RB2PLYPD3) =  -191.614489718     A.U. after   12 cycles
 E2(B2PLYPD3) =    -0.2470480986D+00 E(B2PLYPD3) =    -0.19186153781672D+03

 The electronic state is 1-A.
 Alpha  occ. eigenvalues --  -19.72599 -10.71128 -10.65901 -10.64529  -1.19362
 Alpha  occ. eigenvalues --   -0.92775  -0.75059  -0.67641  -0.56838  -0.55904
 Alpha  occ. eigenvalues --   -0.50387  -0.47066  -0.46563  -0.34595  -0.33765
 Alpha virt. eigenvalues --   -0.01658   0.05684   0.07211   0.08047   0.09707
 Alpha virt. eigenvalues --    0.12477   0.13978   0.15342   0.17620   0.19773
 Alpha virt. eigenvalues --    0.19972   0.21335   0.25266   0.26469   0.28928

 Mulliken charges:
               1
     1  C    0.153546
     2  O   -0.351731
     3  C   -0.043297
     4  C   -0.132998
     5  H    0.108620
     6  H    0.089218
     7  H    0.099397
     8  H    0.077245
 Sum of Mulliken charges =   0.00000

 Dipole moment (field-independent basis, Debye):
    X=             -3.4688    Y=              0.7962    Z=             -0.0295  Tot=              3.5592
 Quadrupole moment (field-independent basis, Debye-Ang):
   XX=            -27.5918   YY=            -21.6120   ZZ=            -25.2420
   XY=              0.9967   XZ=             -0.1273   YZ=             -0.0832

 Normal termination of Gaussian 09 at Wed Aug 26 14:55:14 2020.
