 Gaussian 09, Revision D.01,
 Gaussian 09:  ES64L-G09RevD.01 24-Apr-2013

 --------------------
 #p B2PLYPD3/Def2QZVP
 --------------------

 --------
 acrolein
 --------
 Symbolic Z-matrix:
 Charge =  0 Multiplicity = 1

                         Standard orientation:
 ---------------------------------------------------------------------
 Center     Atomic      Atomic             Coordinates (Angstroms)
 Number     Number       Type             X           Y           Z
 ---------------------------------------------------------------------
      1          6           0        0.671204    0.329383   -0.029834
      2          8           0        1.806500   -0.106496    0.033182
      3          6           0       -0.585533   -0.441872   -0.042507
      4          6           0       -1.766449    0.157926    0.021314
      5          1           0       -0.423483   -1.531125   -0.047983
      6          1           0       -1.792657    1.205898   -0.033683
      7          1           0       -2.638677   -0.449877    0.135370
      8          1           0        0.487488    1.354450   -0.013002
 ---------------------------------------------------------------------

 SCF Done:  E(RB2PLYPD3) =  -191.610839133     A.U. after   13 cycles
 E2(B2PLYPD3) =    -0.2469822276D+00 E(B2PLYPD3) =    -0.19185782136033D+03

 The electronic state is 1-A.
 Alpha  occ. eigenvalues --  -19.72884 -10.70973 -10.65103 -10.64436  -1.19026
 Alpha  occ. eigenvalues --   -0.93547  -0.76296  -0.67608  -0.57153  -0.56345
 Alpha  occ. eigenvalues --   -0.50822  -0.47285  -0.46411  -0.34886  -0.33837
 Alpha virt. eigenvalues --   -0.01907   0.05833   0.07222   0.08271   0.09792
 Alpha virt. eigenvalues --    0.12807   0.13711   0.15301   0.17491   0.19764
 Alpha virt. eigenvalues --    0.20075   0.21861   0.25186   0.26965   0.28596

 Mulliken charges:
               1
     1  C    0.157535
     2  O   -0.356174
     3  C   -0.025806
     4  C   -0.143396
     5  H    0.095813
     6  H    0.092563
     7  H    0.110006
     8  H    0.069457
 Sum of Mulliken charges =   0.00000

 Dipole moment (field-independent basis, Debye):
    X=             -3.5527    Y=              0.7444    Z=             -0.0654  Tot=              3.6305
 Quadrupole moment (field-independent basis, Debye-Ang):
   XX=            -27.7035   YY=            -21.7764   ZZ=            -25.0868
   XY=              0.8609   XZ=             -0.4250   YZ=             -0.0910

 Normal termination of Gaussian 09 at Wed Aug 26 11:05:09 2020.
