 Gaussian 09, Revision D.01,
 Gaussian 09:  ES64L-G09RevD.01 24-Apr-2013

 --------------------
 #p B2PLYPD3/Def2QZVP
 --------------------

 --------
 acrolein
 --------
 Symbolic Z-matrix:
 Charge =  0 Multiplicity = 1

                         Standard orientation:
 ---------------------------------------------------------------------
 Center     Atomic      Atomic             Coordinates (Angstroms)
 Number     Number       Type             X           Y           Z
 ---------------------------------------------------------------------
      1          6           0       -0.715003    0.376558    0.040311
      2          8           0       -1.773630   -0.161993   -0.037369
      3          6           0        0.560425   -0.427079   -0.003638
      4          6           0        1.768686    0.129557   -0.044713
      5          1           0        0.431020   -1.424362    0.193797
      6          1           0        1.792788    1.155674   -0.008143
      7          1           0        2.710976   -0.512678    0.041395
      8          1           0       -0.430395    1.603093    0.120144
 ---------------------------------------------------------------------

 SCF Done:  E(RB2PLYPD3) =  -191.591947303     A.U. after   12 cycles
 E2(B2PLYPD3) =    -0.2480667811D+00 E(B2PLYPD3) =    -0.19184001408387D+03

 The electronic state is 1-A.
 Alpha  occ. eigenvalues --  -19.74081 -10.73501 -10.64994 -10.63572  -1.21676
 Alpha  occ. eigenvalues --   -0.92589  -0.74337  -0.66299  -0.56501  -0.55615
 Alpha  occ. eigenvalues --   -0.50898  -0.48266  -0.46906  -0.34626  -0.33623
 Alpha virt. eigenvalues --   -0.01384   0.05654   0.06848   0.07940   0.09992
 Alpha virt. eigenvalues --    0.12306   0.12946   0.15119   0.17859   0.19685
 Alpha virt. eigenvalues --    0.19997   0.21353   0.25187   0.26367   0.28409

 Mulliken charges:
               1
     1  C    0.162311
     2  O   -0.316772
     3  C   -0.033551
     4  C   -0.136486
     5  H    0.102433
     6  H    0.084437
     7  H    0.101081
     8  H    0.036547
 Sum of Mulliken charges =   0.00000

 Dipole moment (field-independent basis, Debye):
    X=              3.0766    Y=              0.6637    Z=              0.3589  Tot=              3.1678
 Quadrupole moment (field-independent basis, Debye-Ang):
   XX=            -27.1689   YY=            -22.2736   ZZ=            -25.2817
   XY=             -1.0663   XZ=              0.0706   YZ=             -0.2630

 Normal termination of Gaussian 09 at Wed Aug 26 14:34:10 2020.
