 Gaussian 09, Revision D.01,
 Gaussian 09:  ES64L-G09RevD.01 24-Apr-2013

 --------------------
 #p B2PLYPD3/Def2QZVP
 --------------------

 --------
 acrolein
 --------
 Symbolic Z-matrix:
 Charge =  0 Multiplicity = 1

                         Standard orientation:
 ---------------------------------------------------------------------
 Center     Atomic      Atomic             Coordinates (Angstroms)
 Number     Number       Type             X           Y           Z
 ---------------------------------------------------------------------
      1          6           0       -0.669321    0.355363    0.004206
      2          8           0       -1.781595   -0.129001    0.010331
      3          6           0        0.550723   -0.443422   -0.025701
      4          6           0        1.754913    0.130509    0.001680
      5          1           0        0.437899   -1.487508   -0.007609
      6          1           0        1.841238    1.226971    0.009889
      7          1           0        2.662892   -0.442229    0.073727
      8          1           0       -0.507163    1.480075   -0.039762
 ---------------------------------------------------------------------

 SCF Done:  E(RB2PLYPD3) =  -191.615176179     A.U. after   13 cycles
 E2(B2PLYPD3) =    -0.2474143372D+00 E(B2PLYPD3) =    -0.19186259051628D+03

 The electronic state is 1-A.
 Alpha  occ. eigenvalues --  -19.72852 -10.71820 -10.65628 -10.63999  -1.19430
 Alpha  occ. eigenvalues --   -0.93138  -0.75474  -0.66951  -0.56643  -0.56239
 Alpha  occ. eigenvalues --   -0.50539  -0.47085  -0.46786  -0.34653  -0.33854
 Alpha virt. eigenvalues --   -0.01879   0.05721   0.07193   0.08201   0.09782
 Alpha virt. eigenvalues --    0.12471   0.13863   0.15363   0.17631   0.19666
 Alpha virt. eigenvalues --    0.19912   0.21612   0.25528   0.26339   0.28828

 Mulliken charges:
               1
     1  C    0.157732
     2  O   -0.349357
     3  C   -0.039494
     4  C   -0.128388
     5  H    0.108885
     6  H    0.082432
     7  H    0.102938
     8  H    0.065253
 Sum of Mulliken charges =   0.00000

 Dipole moment (field-independent basis, Debye):
    X=              3.4997    Y=              0.7346    Z=              0.0370  Tot=              3.5762
 Quadrupole moment (field-independent basis, Debye-Ang):
   XX=            -27.3900   YY=            -21.7879   ZZ=            -25.2095
   XY=             -0.9909   XZ=              0.2603   YZ=             -0.0520

 Normal termination of Gaussian 09 at Wed Aug 26 09:02:30 2020.
