 Gaussian 09, Revision D.01,
 Gaussian 09:  ES64L-G09RevD.01 24-Apr-2013

 --------------------
 #p B2PLYPD3/Def2QZVP
 --------------------

 --------
 acrolein
 --------
 Symbolic Z-matrix:
 Charge =  0 Multiplicity = 1

                         Standard orientation:
 ---------------------------------------------------------------------
 Center     Atomic      Atomic             Coordinates (Angstroms)
 Number     Number       Type             X           Y           Z
 ---------------------------------------------------------------------
      1          6           0       -0.667669    0.335845    0.042344
      2          8           0       -1.784714   -0.098487   -0.019082
      3          6           0        0.569797   -0.460106   -0.007657
      4          6           0        1.754002    0.151329   -0.017807
      5          1           0        0.370012   -1.589322    0.011293
      6          1           0        1.873377    1.236453   -0.060669
      7          1           0        2.671719   -0.384144    0.085671
      8          1           0       -0.574172    1.362502    0.015077
 ---------------------------------------------------------------------

 SCF Done:  E(RB2PLYPD3) =  -191.608068015     A.U. after   12 cycles
 E2(B2PLYPD3) =    -0.2463888936D+00 E(B2PLYPD3) =    -0.19185445690834D+03

 The electronic state is 1-A.
 Alpha  occ. eigenvalues --  -19.72418 -10.70349 -10.65537 -10.65141  -1.19977
 Alpha  occ. eigenvalues --   -0.92786  -0.75729  -0.67384  -0.57146  -0.56080
 Alpha  occ. eigenvalues --   -0.50734  -0.46945  -0.46323  -0.34743  -0.33554
 Alpha virt. eigenvalues --   -0.01641   0.05759   0.07166   0.08291   0.09673
 Alpha virt. eigenvalues --    0.12595   0.14255   0.15356   0.17257   0.19657
 Alpha virt. eigenvalues --    0.19898   0.21762   0.25388   0.26695   0.28722

 Mulliken charges:
               1
     1  C    0.163579
     2  O   -0.349322
     3  C   -0.043725
     4  C   -0.129525
     5  H    0.100306
     6  H    0.086534
     7  H    0.101872
     8  H    0.070282
 Sum of Mulliken charges =   0.00000

 Dipole moment (field-independent basis, Debye):
    X=              3.4591    Y=              0.7771    Z=              0.1301  Tot=              3.5477
 Quadrupole moment (field-independent basis, Debye-Ang):
   XX=            -27.3898   YY=            -21.6763   ZZ=            -25.1597
   XY=             -0.6274   XZ=              0.0394   YZ=             -0.1393

 Normal termination of Gaussian 09 at Wed Aug 26 09:14:57 2020.
