 Gaussian 09, Revision D.01,
 Gaussian 09:  ES64L-G09RevD.01 24-Apr-2013

 --------------------
 #p B2PLYPD3/Def2QZVP
 --------------------

 --------
 acrolein
 --------
 Symbolic Z-matrix:
 Charge =  0 Multiplicity = 1

                         Standard orientation:
 ---------------------------------------------------------------------
 Center     Atomic      Atomic             Coordinates (Angstroms)
 Number     Number       Type             X           Y           Z
 ---------------------------------------------------------------------
      1          6           0       -0.665790    0.351810   -0.017659
      2          8           0       -1.789657   -0.129045    0.022609
      3          6           0        0.562000   -0.442680   -0.026398
      4          6           0        1.745844    0.137365    0.015827
      5          1           0        0.482598   -1.493255   -0.051701
      6          1           0        1.818718    1.207754   -0.020478
      7          1           0        2.639060   -0.439996    0.085864
      8          1           0       -0.475440    1.478881   -0.025177
 ---------------------------------------------------------------------

 SCF Done:  E(RB2PLYPD3) =  -191.614412753     A.U. after   12 cycles
 E2(B2PLYPD3) =    -0.2475532045D+00 E(B2PLYPD3) =    -0.19186196595789D+03

 The electronic state is 1-A.
 Alpha  occ. eigenvalues --  -19.72995 -10.72135 -10.64992 -10.63838  -1.18861
 Alpha  occ. eigenvalues --   -0.93686  -0.75624  -0.67050  -0.56829  -0.56249
 Alpha  occ. eigenvalues --   -0.50475  -0.47385  -0.46457  -0.34899  -0.33923
 Alpha virt. eigenvalues --   -0.01824   0.05778   0.07092   0.08152   0.09796
 Alpha virt. eigenvalues --    0.12638   0.13819   0.15312   0.17537   0.19852
 Alpha virt. eigenvalues --    0.19995   0.21666   0.25538   0.26419   0.28739

 Mulliken charges:
               1
     1  C    0.154674
     2  O   -0.352409
     3  C   -0.029885
     4  C   -0.129513
     5  H    0.105035
     6  H    0.084315
     7  H    0.102399
     8  H    0.065384
 Sum of Mulliken charges =   0.00000

 Dipole moment (field-independent basis, Debye):
    X=              3.5568    Y=              0.7291    Z=             -0.0672  Tot=              3.6314
 Quadrupole moment (field-independent basis, Debye-Ang):
   XX=            -27.5325   YY=            -21.7723   ZZ=            -25.1451
   XY=             -1.0155   XZ=              0.2588   YZ=             -0.0268

 Normal termination of Gaussian 09 at Wed Aug 26 14:19:29 2020.
