 Gaussian 09, Revision D.01,
 Gaussian 09:  ES64L-G09RevD.01 24-Apr-2013

 --------------------
 #p B2PLYPD3/Def2QZVP
 --------------------

 --------
 acrolein
 --------
 Symbolic Z-matrix:
 Charge =  0 Multiplicity = 1

                         Standard orientation:
 ---------------------------------------------------------------------
 Center     Atomic      Atomic             Coordinates (Angstroms)
 Number     Number       Type             X           Y           Z
 ---------------------------------------------------------------------
      1          6           0       -0.680055    0.347450    0.042330
      2          8           0       -1.793806   -0.101274   -0.038832
      3          6           0        0.555698   -0.481843    0.024014
      4          6           0        1.772400    0.138023   -0.034035
      5          1           0        0.434532   -1.584296    0.037838
      6          1           0        1.956224    1.316604   -0.091026
      7          1           0        2.610527   -0.385652    0.047817
      8          1           0       -0.539092    1.441756    0.122167
 ---------------------------------------------------------------------

 SCF Done:  E(RB2PLYPD3) =  -191.599724923     A.U. after   13 cycles
 E2(B2PLYPD3) =    -0.2479217999D+00 E(B2PLYPD3) =    -0.19184764672300D+03

 The electronic state is 1-A.
 Alpha  occ. eigenvalues --  -19.72702 -10.71539 -10.66066 -10.65495  -1.19884
 Alpha  occ. eigenvalues --   -0.91877  -0.75599  -0.66385  -0.56851  -0.55477
 Alpha  occ. eigenvalues --   -0.50702  -0.46725  -0.46538  -0.34175  -0.33642
 Alpha virt. eigenvalues --   -0.01913   0.05545   0.07091   0.07981   0.09487
 Alpha virt. eigenvalues --    0.12266   0.14237   0.15489   0.17248   0.19104
 Alpha virt. eigenvalues --    0.20016   0.22009   0.24970   0.26354   0.28514

 Mulliken charges:
               1
     1  C    0.161609
     2  O   -0.342149
     3  C   -0.059113
     4  C   -0.127752
     5  H    0.106754
     6  H    0.079151
     7  H    0.106696
     8  H    0.074804
 Sum of Mulliken charges =   0.00000

 Dipole moment (field-independent basis, Debye):
    X=              3.4592    Y=              0.6911    Z=              0.1760  Tot=              3.5320
 Quadrupole moment (field-independent basis, Debye-Ang):
   XX=            -27.4264   YY=            -21.5381   ZZ=            -25.4089
   XY=             -0.6784   XZ=             -0.2097   YZ=             -0.1374

 Normal termination of Gaussian 09 at Wed Aug 26 21:18:59 2020.
