 Gaussian 09, Revision D.01,
 Gaussian 09:  ES64L-G09RevD.01 24-Apr-2013

 --------------------
 #p B2PLYPD3/Def2QZVP
 --------------------

 --------
 acrolein
 --------
 Symbolic Z-matrix:
 Charge =  0 Multiplicity = 1

                         Standard orientation:
 ---------------------------------------------------------------------
 Center     Atomic      Atomic             Coordinates (Angstroms)
 Number     Number       Type             X           Y           Z
 ---------------------------------------------------------------------
      1          6           0        0.669282    0.336748   -0.012133
      2          8           0        1.787085   -0.111886    0.018552
      3          6           0       -0.559456   -0.460275   -0.019030
      4          6           0       -1.752710    0.147745    0.000718
      5          1           0       -0.452714   -1.536486   -0.049739
      6          1           0       -1.847746    1.230976   -0.009929
      7          1           0       -2.654211   -0.407376    0.114244
      8          1           0        0.515297    1.462661   -0.020326
 ---------------------------------------------------------------------

 SCF Done:  E(RB2PLYPD3) =  -191.615929713     A.U. after   12 cycles
 E2(B2PLYPD3) =    -0.2471291042D+00 E(B2PLYPD3) =    -0.19186305881676D+03

 The electronic state is 1-A.
 Alpha  occ. eigenvalues --  -19.72756 -10.71660 -10.65518 -10.64572  -1.19829
 Alpha  occ. eigenvalues --   -0.92991  -0.75476  -0.66606  -0.56612  -0.56378
 Alpha  occ. eigenvalues --   -0.50477  -0.47412  -0.46822  -0.34646  -0.33661
 Alpha virt. eigenvalues --   -0.01802   0.05788   0.07101   0.08276   0.09719
 Alpha virt. eigenvalues --    0.12572   0.14035   0.15332   0.17402   0.19789
 Alpha virt. eigenvalues --    0.19928   0.21697   0.25362   0.26368   0.28684

 Mulliken charges:
               1
     1  C    0.155967
     2  O   -0.344103
     3  C   -0.037406
     4  C   -0.128200
     5  H    0.105359
     6  H    0.086635
     7  H    0.102089
     8  H    0.059659
 Sum of Mulliken charges =   0.00000

 Dipole moment (field-independent basis, Debye):
    X=             -3.5087    Y=              0.6715    Z=             -0.0146  Tot=              3.5724
 Quadrupole moment (field-independent basis, Debye-Ang):
   XX=            -27.3812   YY=            -21.7802   ZZ=            -25.2158
   XY=              0.8072   XZ=             -0.3341   YZ=             -0.0136

 Normal termination of Gaussian 09 at Wed Aug 26 18:37:19 2020.
