 Gaussian 09, Revision D.01,
 Gaussian 09:  ES64L-G09RevD.01 24-Apr-2013

 --------------------
 #p B2PLYPD3/Def2QZVP
 --------------------

 --------
 acrolein
 --------
 Symbolic Z-matrix:
 Charge =  0 Multiplicity = 1

                         Standard orientation:
 ---------------------------------------------------------------------
 Center     Atomic      Atomic             Coordinates (Angstroms)
 Number     Number       Type             X           Y           Z
 ---------------------------------------------------------------------
      1          6           0        0.665422    0.355186    0.042634
      2          8           0        1.789900   -0.139147   -0.043262
      3          6           0       -0.547871   -0.409706    0.013278
      4          6           0       -1.763573    0.129337   -0.039054
      5          1           0       -0.474688   -1.493207    0.153780
      6          1           0       -1.764951    1.152019   -0.036821
      7          1           0       -2.723564   -0.430877   -0.006502
      8          1           0        0.520134    1.436335    0.134490
 ---------------------------------------------------------------------

 SCF Done:  E(RB2PLYPD3) =  -191.608104867     A.U. after   12 cycles
 E2(B2PLYPD3) =    -0.2481508882D+00 E(B2PLYPD3) =    -0.19185625575546D+03

 The electronic state is 1-A.
 Alpha  occ. eigenvalues --  -19.72890 -10.71662 -10.65281 -10.64191  -1.18394
 Alpha  occ. eigenvalues --   -0.93783  -0.76402  -0.67295  -0.57093  -0.56401
 Alpha  occ. eigenvalues --   -0.50598  -0.47061  -0.45592  -0.34664  -0.34204
 Alpha virt. eigenvalues --   -0.02412   0.05718   0.06931   0.08373   0.09769
 Alpha virt. eigenvalues --    0.12533   0.14032   0.15198   0.17602   0.19753
 Alpha virt. eigenvalues --    0.20139   0.21419   0.25390   0.26500   0.29379

 Mulliken charges:
               1
     1  C    0.142450
     2  O   -0.356606
     3  C   -0.016103
     4  C   -0.131605
     5  H    0.097931
     6  H    0.079895
     7  H    0.108398
     8  H    0.075640
 Sum of Mulliken charges =   0.00000

 Dipole moment (field-independent basis, Debye):
    X=             -3.6360    Y=              0.8452    Z=              0.2918  Tot=              3.7443
 Quadrupole moment (field-independent basis, Debye-Ang):
   XX=            -27.2686   YY=            -21.9665   ZZ=            -25.1340
   XY=              1.2740   XZ=              0.1845   YZ=             -0.1770

 Normal termination of Gaussian 09 at Wed Aug 26 09:06:01 2020.
