 Gaussian 09, Revision D.01,
 Gaussian 09:  ES64L-G09RevD.01 24-Apr-2013

 --------------------
 #p B2PLYPD3/Def2QZVP
 --------------------

 --------
 acrolein
 --------
 Symbolic Z-matrix:
 Charge =  0 Multiplicity = 1

                         Standard orientation:
 ---------------------------------------------------------------------
 Center     Atomic      Atomic             Coordinates (Angstroms)
 Number     Number       Type             X           Y           Z
 ---------------------------------------------------------------------
      1          6           0        0.702124    0.365307   -0.082966
      2          8           0        1.755617   -0.142014    0.071649
      3          6           0       -0.514160   -0.407518   -0.089911
      4          6           0       -1.774314    0.138606    0.013095
      5          1           0       -0.385134   -1.521635    0.013559
      6          1           0       -1.846926    1.095326    0.069264
      7          1           0       -2.869795   -0.448548    0.242580
      8          1           0        0.575015    1.432598    0.060095
 ---------------------------------------------------------------------

 SCF Done:  E(RB2PLYPD3) =  -191.575832150     A.U. after   13 cycles
 E2(B2PLYPD3) =    -0.2476620426D+00 E(B2PLYPD3) =    -0.19182349419263D+03

 The electronic state is 1-A.
 Alpha  occ. eigenvalues --  -19.72743 -10.70901 -10.66434 -10.65076  -1.21696
 Alpha  occ. eigenvalues --   -0.92107  -0.75868  -0.67411  -0.58018  -0.55096
 Alpha  occ. eigenvalues --   -0.49754  -0.48025  -0.45714  -0.34272  -0.33590
 Alpha virt. eigenvalues --   -0.02203   0.05154   0.07084   0.08190   0.09744
 Alpha virt. eigenvalues --    0.12030   0.14242   0.15455   0.17637   0.19358
 Alpha virt. eigenvalues --    0.19895   0.21660   0.24573   0.26538   0.28888

 Mulliken charges:
               1
     1  C    0.158048
     2  O   -0.331340
     3  C   -0.043257
     4  C   -0.142027
     5  H    0.106676
     6  H    0.094297
     7  H    0.091931
     8  H    0.065673
 Sum of Mulliken charges =   0.00000

 Dipole moment (field-independent basis, Debye):
    X=             -3.2109    Y=              0.9173    Z=              0.0508  Tot=              3.3398
 Quadrupole moment (field-independent basis, Debye-Ang):
   XX=            -26.7797   YY=            -22.1200   ZZ=            -25.2636
   XY=              0.9767   XZ=             -1.0786   YZ=             -0.0832

 Normal termination of Gaussian 09 at Wed Aug 26 14:25:00 2020.
