 Gaussian 09, Revision D.01,
 Gaussian 09:  ES64L-G09RevD.01 24-Apr-2013

 --------------------
 #p B2PLYPD3/Def2QZVP
 --------------------

 --------
 acrolein
 --------
 Symbolic Z-matrix:
 Charge =  0 Multiplicity = 1

                         Standard orientation:
 ---------------------------------------------------------------------
 Center     Atomic      Atomic             Coordinates (Angstroms)
 Number     Number       Type             X           Y           Z
 ---------------------------------------------------------------------
      1          6           0        0.665858    0.355738    0.035691
      2          8           0        1.779927   -0.141213   -0.051946
      3          6           0       -0.558205   -0.420097   -0.004416
      4          6           0       -1.746592    0.162654   -0.005192
      5          1           0       -0.451729   -1.530725    0.255741
      6          1           0       -1.682179    0.999692   -0.174173
      7          1           0       -2.745531   -0.425575   -0.082738
      8          1           0        0.473660    1.496540    0.260233
 ---------------------------------------------------------------------

 SCF Done:  E(RB2PLYPD3) =  -191.545222472     A.U. after   14 cycles
 E2(B2PLYPD3) =    -0.2487743981D+00 E(B2PLYPD3) =    -0.19179399687022D+03

 The electronic state is 1-A.
 Alpha  occ. eigenvalues --  -19.73311 -10.72611 -10.64708 -10.63619  -1.19140
 Alpha  occ. eigenvalues --   -0.94848  -0.76655  -0.66970  -0.57609  -0.55798
 Alpha  occ. eigenvalues --   -0.50343  -0.47641  -0.45530  -0.35139  -0.33928
 Alpha virt. eigenvalues --   -0.02213   0.05803   0.06149   0.08011   0.09865
 Alpha virt. eigenvalues --    0.12512   0.13715   0.14456   0.16916   0.19116
 Alpha virt. eigenvalues --    0.20976   0.22566   0.24044   0.26855   0.28639

 Mulliken charges:
               1
     1  C    0.140238
     2  O   -0.344174
     3  C   -0.005680
     4  C   -0.192359
     5  H    0.095866
     6  H    0.136343
     7  H    0.108336
     8  H    0.061431
 Sum of Mulliken charges =   0.00000

 Dipole moment (field-independent basis, Debye):
    X=             -3.4643    Y=              0.7647    Z=              0.2140  Tot=              3.5541
 Quadrupole moment (field-independent basis, Debye-Ang):
   XX=            -27.3061   YY=            -22.1543   ZZ=            -24.9968
   XY=              1.1744   XZ=              0.5811   YZ=             -0.3894

 Normal termination of Gaussian 09 at Wed Aug 26 14:37:41 2020.
