 Gaussian 09, Revision D.01,
 Gaussian 09:  ES64L-G09RevD.01 24-Apr-2013

 --------------------
 #p B2PLYPD3/Def2QZVP
 --------------------

 --------
 acrolein
 --------
 Symbolic Z-matrix:
 Charge =  0 Multiplicity = 1

                         Standard orientation:
 ---------------------------------------------------------------------
 Center     Atomic      Atomic             Coordinates (Angstroms)
 Number     Number       Type             X           Y           Z
 ---------------------------------------------------------------------
      1          6           0        0.671596    0.378940   -0.025030
      2          8           0        1.757662   -0.147339    0.034357
      3          6           0       -0.547240   -0.402338   -0.037318
      4          6           0       -1.753046    0.131753   -0.017734
      5          1           0       -0.312881   -1.590455   -0.071301
      6          1           0       -1.673659    1.117828   -0.010107
      7          1           0       -2.822913   -0.437268    0.263184
      8          1           0        0.520300    1.438479    0.023857
 ---------------------------------------------------------------------

 SCF Done:  E(RB2PLYPD3) =  -191.577915663     A.U. after   13 cycles
 E2(B2PLYPD3) =    -0.2483966012D+00 E(B2PLYPD3) =    -0.19182631226379D+03

 The electronic state is 1-A.
 Alpha  occ. eigenvalues --  -19.72950 -10.71288 -10.65728 -10.64993  -1.19926
 Alpha  occ. eigenvalues --   -0.93726  -0.75575  -0.66766  -0.57073  -0.55208
 Alpha  occ. eigenvalues --   -0.50220  -0.47227  -0.44317  -0.34861  -0.34214
 Alpha virt. eigenvalues --   -0.01953   0.05296   0.06593   0.08255   0.09855
 Alpha virt. eigenvalues --    0.12116   0.13790   0.15215   0.16894   0.19004
 Alpha virt. eigenvalues --    0.20324   0.21378   0.25695   0.26718   0.28655

 Mulliken charges:
               1
     1  C    0.154460
     2  O   -0.348034
     3  C   -0.024607
     4  C   -0.134937
     5  H    0.089694
     6  H    0.083557
     7  H    0.107847
     8  H    0.072020
 Sum of Mulliken charges =   0.00000

 Dipole moment (field-independent basis, Debye):
    X=             -3.2980    Y=              0.9593    Z=              0.0752  Tot=              3.4355
 Quadrupole moment (field-independent basis, Debye-Ang):
   XX=            -27.2463   YY=            -22.0582   ZZ=            -25.2029
   XY=              1.2166   XZ=             -0.8334   YZ=             -0.0700

 Normal termination of Gaussian 09 at Wed Aug 26 10:42:48 2020.
