 Gaussian 09, Revision D.01,
 Gaussian 09:  ES64L-G09RevD.01 24-Apr-2013

 --------------------
 #p B2PLYPD3/Def2QZVP
 --------------------

 --------
 acrolein
 --------
 Symbolic Z-matrix:
 Charge =  0 Multiplicity = 1

                         Standard orientation:
 ---------------------------------------------------------------------
 Center     Atomic      Atomic             Coordinates (Angstroms)
 Number     Number       Type             X           Y           Z
 ---------------------------------------------------------------------
      1          6           0        0.681757    0.362795   -0.026464
      2          8           0        1.774265   -0.138543    0.014430
      3          6           0       -0.545959   -0.444094   -0.008655
      4          6           0       -1.749803    0.130852   -0.009993
      5          1           0       -0.485740   -1.443907    0.025290
      6          1           0       -1.805370    1.214862    0.064196
      7          1           0       -2.700902   -0.437407    0.041896
      8          1           0        0.481926    1.477480    0.023848
 ---------------------------------------------------------------------

 SCF Done:  E(RB2PLYPD3) =  -191.609762228     A.U. after   13 cycles
 E2(B2PLYPD3) =    -0.2469121217D+00 E(B2PLYPD3) =    -0.19185667434951D+03

 The electronic state is 1-A.
 Alpha  occ. eigenvalues --  -19.73017 -10.71909 -10.65530 -10.63308  -1.20199
 Alpha  occ. eigenvalues --   -0.93068  -0.74956  -0.67761  -0.56568  -0.56300
 Alpha  occ. eigenvalues --   -0.50736  -0.47360  -0.46964  -0.34588  -0.33917
 Alpha virt. eigenvalues --   -0.01615   0.05722   0.07320   0.08143   0.09783
 Alpha virt. eigenvalues --    0.12519   0.13838   0.15411   0.18042   0.19780
 Alpha virt. eigenvalues --    0.19853   0.21222   0.25590   0.26339   0.28824

 Mulliken charges:
               1
     1  C    0.155398
     2  O   -0.340534
     3  C   -0.041846
     4  C   -0.128601
     5  H    0.111325
     6  H    0.076984
     7  H    0.097563
     8  H    0.069710
 Sum of Mulliken charges =   0.00000

 Dipole moment (field-independent basis, Debye):
    X=             -3.3624    Y=              0.7586    Z=              0.0598  Tot=              3.4475
 Quadrupole moment (field-independent basis, Debye-Ang):
   XX=            -27.3065   YY=            -21.8568   ZZ=            -25.1611
   XY=              1.1345   XZ=             -0.2880   YZ=              0.0307

 Normal termination of Gaussian 09 at Wed Aug 26 10:12:57 2020.
