 Gaussian 09, Revision D.01,
 Gaussian 09:  ES64L-G09RevD.01 24-Apr-2013

 --------------------
 #p B2PLYPD3/Def2QZVP
 --------------------

 --------
 acrolein
 --------
 Symbolic Z-matrix:
 Charge =  0 Multiplicity = 1

                         Standard orientation:
 ---------------------------------------------------------------------
 Center     Atomic      Atomic             Coordinates (Angstroms)
 Number     Number       Type             X           Y           Z
 ---------------------------------------------------------------------
      1          6           0       -0.671737    0.351735    0.016384
      2          8           0       -1.779478   -0.124243   -0.017871
      3          6           0        0.539963   -0.439029    0.021475
      4          6           0        1.756867    0.128835   -0.020125
      5          1           0        0.418493   -1.496084    0.043262
      6          1           0        1.826533    1.214337    0.049713
      7          1           0        2.735869   -0.423944   -0.056528
      8          1           0       -0.495626    1.450392    0.000122
 ---------------------------------------------------------------------

 SCF Done:  E(RB2PLYPD3) =  -191.614187910     A.U. after   13 cycles
 E2(B2PLYPD3) =    -0.2473991644D+00 E(B2PLYPD3) =    -0.19186158707405D+03

 The electronic state is 1-A.
 Alpha  occ. eigenvalues --  -19.72783 -10.71415 -10.66251 -10.64169  -1.19838
 Alpha  occ. eigenvalues --   -0.92959  -0.75473  -0.67115  -0.56595  -0.56093
 Alpha  occ. eigenvalues --   -0.50586  -0.47164  -0.46516  -0.34488  -0.33939
 Alpha virt. eigenvalues --   -0.02009   0.05629   0.07217   0.08351   0.09749
 Alpha virt. eigenvalues --    0.12405   0.13990   0.15370   0.17641   0.19745
 Alpha virt. eigenvalues --    0.20000   0.21232   0.25438   0.26436   0.28928

 Mulliken charges:
               1
     1  C    0.155749
     2  O   -0.347638
     3  C   -0.033580
     4  C   -0.130824
     5  H    0.107336
     6  H    0.080798
     7  H    0.102131
     8  H    0.066027
 Sum of Mulliken charges =   0.00000

 Dipole moment (field-independent basis, Debye):
    X=              3.5064    Y=              0.7454    Z=              0.0877  Tot=              3.5859
 Quadrupole moment (field-independent basis, Debye-Ang):
   XX=            -27.1736   YY=            -21.9312   ZZ=            -25.2334
   XY=             -0.9382   XZ=             -0.1297   YZ=              0.0436

 Normal termination of Gaussian 09 at Wed Aug 26 16:39:55 2020.
