 Gaussian 09, Revision D.01,
 Gaussian 09:  ES64L-G09RevD.01 24-Apr-2013

 --------------------
 #p B2PLYPD3/Def2QZVP
 --------------------

 --------
 acrolein
 --------
 Symbolic Z-matrix:
 Charge =  0 Multiplicity = 1

                         Standard orientation:
 ---------------------------------------------------------------------
 Center     Atomic      Atomic             Coordinates (Angstroms)
 Number     Number       Type             X           Y           Z
 ---------------------------------------------------------------------
      1          6           0       -0.647069   -0.343309    0.030274
      2          8           0       -1.794762    0.101591   -0.049863
      3          6           0        0.603391    0.463007    0.031235
      4          6           0        1.735938   -0.151582   -0.025819
      5          1           0        0.381491    1.645247    0.101628
      6          1           0        1.800889   -1.217801   -0.169346
      7          1           0        2.529707    0.349491   -0.015871
      8          1           0       -0.507553   -1.398360    0.268353
 ---------------------------------------------------------------------

 SCF Done:  E(RB2PLYPD3) =  -191.584920670     A.U. after   14 cycles
 E2(B2PLYPD3) =    -0.2476120343D+00 E(B2PLYPD3) =    -0.19183253270423D+03

 The electronic state is 1-A.
 Alpha  occ. eigenvalues --  -19.72884 -10.71675 -10.65256 -10.63224  -1.18088
 Alpha  occ. eigenvalues --   -0.94376  -0.76603  -0.66115  -0.57957  -0.56494
 Alpha  occ. eigenvalues --   -0.50791  -0.46326  -0.45558  -0.35516  -0.33708
 Alpha virt. eigenvalues --   -0.01486   0.05900   0.06670   0.07767   0.09685
 Alpha virt. eigenvalues --    0.12920   0.14167   0.15150   0.16595   0.19145
 Alpha virt. eigenvalues --    0.20465   0.22622   0.24953   0.26949   0.28501

 Mulliken charges:
               1
     1  C    0.160583
     2  O   -0.360521
     3  C   -0.042282
     4  C   -0.124534
     5  H    0.096395
     6  H    0.084627
     7  H    0.109427
     8  H    0.076306
 Sum of Mulliken charges =   0.00000

 Dipole moment (field-independent basis, Debye):
    X=              3.5501    Y=             -0.7440    Z=              0.1724  Tot=              3.6313
 Quadrupole moment (field-independent basis, Debye-Ang):
   XX=            -27.8439   YY=            -21.5668   ZZ=            -25.0217
   XY=              0.6034   XZ=             -0.5379   YZ=              0.2207

 Normal termination of Gaussian 09 at Wed Aug 26 12:16:08 2020.
