 Gaussian 09, Revision D.01,
 Gaussian 09:  ES64L-G09RevD.01 24-Apr-2013

 --------------------
 #p B2PLYPD3/Def2QZVP
 --------------------

 --------
 acrolein
 --------
 Symbolic Z-matrix:
 Charge =  0 Multiplicity = 1

                         Standard orientation:
 ---------------------------------------------------------------------
 Center     Atomic      Atomic             Coordinates (Angstroms)
 Number     Number       Type             X           Y           Z
 ---------------------------------------------------------------------
      1          6           0        0.672702    0.341316   -0.026792
      2          8           0        1.779766   -0.113143    0.023104
      3          6           0       -0.567058   -0.461634   -0.012345
      4          6           0       -1.747098    0.149571    0.003944
      5          1           0       -0.449346   -1.518098   -0.027588
      6          1           0       -1.860364    1.258679    0.057826
      7          1           0       -2.635778   -0.419832    0.038887
      8          1           0        0.556079    1.408876   -0.042795
 ---------------------------------------------------------------------

 SCF Done:  E(RB2PLYPD3) =  -191.615476363     A.U. after   12 cycles
 E2(B2PLYPD3) =    -0.2459569277D+00 E(B2PLYPD3) =    -0.19186143329063D+03

 The electronic state is 1-A.
 Alpha  occ. eigenvalues --  -19.72532 -10.70895 -10.65336 -10.64147  -1.20161
 Alpha  occ. eigenvalues --   -0.92960  -0.75298  -0.67444  -0.56706  -0.56595
 Alpha  occ. eigenvalues --   -0.50776  -0.47109  -0.47017  -0.34747  -0.33629
 Alpha virt. eigenvalues --   -0.01348   0.05782   0.07338   0.08278   0.09699
 Alpha virt. eigenvalues --    0.12603   0.14117   0.15366   0.17685   0.19562
 Alpha virt. eigenvalues --    0.19975   0.21735   0.25485   0.26491   0.28665

 Mulliken charges:
               1
     1  C    0.155972
     2  O   -0.344474
     3  C   -0.047916
     4  C   -0.129666
     5  H    0.107486
     6  H    0.085636
     7  H    0.100287
     8  H    0.072674
 Sum of Mulliken charges =   0.00000

 Dipole moment (field-independent basis, Debye):
    X=             -3.4095    Y=              0.7364    Z=             -0.0394  Tot=              3.4883
 Quadrupole moment (field-independent basis, Debye-Ang):
   XX=            -27.4735   YY=            -21.6091   ZZ=            -25.1309
   XY=              0.8889   XZ=             -0.2896   YZ=              0.0761

 Normal termination of Gaussian 09 at Wed Aug 26 15:24:14 2020.
