 Gaussian 09, Revision D.01,
 Gaussian 09:  ES64L-G09RevD.01 24-Apr-2013

 --------------------
 #p B2PLYPD3/Def2QZVP
 --------------------

 --------
 acrolein
 --------
 Symbolic Z-matrix:
 Charge =  0 Multiplicity = 1

                         Standard orientation:
 ---------------------------------------------------------------------
 Center     Atomic      Atomic             Coordinates (Angstroms)
 Number     Number       Type             X           Y           Z
 ---------------------------------------------------------------------
      1          6           0        0.676065    0.365477    0.008206
      2          8           0        1.779336   -0.134721   -0.009634
      3          6           0       -0.562057   -0.446558    0.026224
      4          6           0       -1.747796    0.137641   -0.015646
      5          1           0       -0.451690   -1.477711   -0.025417
      6          1           0       -1.818606    1.188402    0.017514
      7          1           0       -2.690825   -0.410747   -0.019646
      8          1           0        0.529162    1.438459   -0.008089
 ---------------------------------------------------------------------

 SCF Done:  E(RB2PLYPD3) =  -191.615218980     A.U. after   12 cycles
 E2(B2PLYPD3) =    -0.2463861021D+00 E(B2PLYPD3) =    -0.19186160508250D+03

 The electronic state is 1-A.
 Alpha  occ. eigenvalues --  -19.72807 -10.71469 -10.64853 -10.63690  -1.19504
 Alpha  occ. eigenvalues --   -0.93191  -0.75331  -0.68034  -0.56940  -0.56451
 Alpha  occ. eigenvalues --   -0.50823  -0.47181  -0.46714  -0.34749  -0.33901
 Alpha virt. eigenvalues --   -0.01460   0.05799   0.07448   0.08015   0.09791
 Alpha virt. eigenvalues --    0.12604   0.14046   0.15362   0.17801   0.19899
 Alpha virt. eigenvalues --    0.19991   0.21546   0.25488   0.26527   0.28878

 Mulliken charges:
               1
     1  C    0.151331
     2  O   -0.349619
     3  C   -0.043804
     4  C   -0.130036
     5  H    0.111560
     6  H    0.081277
     7  H    0.097458
     8  H    0.081833
 Sum of Mulliken charges =   0.00000

 Dipole moment (field-independent basis, Debye):
    X=             -3.4068    Y=              0.8519    Z=              0.0014  Tot=              3.5117
 Quadrupole moment (field-independent basis, Debye-Ang):
   XX=            -27.4046   YY=            -21.6976   ZZ=            -25.0968
   XY=              1.0444   XZ=              0.0836   YZ=              0.0803

 Normal termination of Gaussian 09 at Wed Aug 26 09:16:51 2020.
