 Gaussian 09, Revision D.01,
 Gaussian 09:  ES64L-G09RevD.01 24-Apr-2013

 --------------------
 #p B2PLYPD3/Def2QZVP
 --------------------

 --------
 acrolein
 --------
 Symbolic Z-matrix:
 Charge =  0 Multiplicity = 1

                         Standard orientation:
 ---------------------------------------------------------------------
 Center     Atomic      Atomic             Coordinates (Angstroms)
 Number     Number       Type             X           Y           Z
 ---------------------------------------------------------------------
      1          6           0       -0.682985    0.344766    0.026945
      2          8           0       -1.792910   -0.116379   -0.031082
      3          6           0        0.567164   -0.460178   -0.005846
      4          6           0        1.758563    0.153973   -0.003500
      5          1           0        0.427526   -1.547858    0.135587
      6          1           0        1.853546    1.171767   -0.090510
      7          1           0        2.689354   -0.411295   -0.038259
      8          1           0       -0.483599    1.487053    0.136247
 ---------------------------------------------------------------------

 SCF Done:  E(RB2PLYPD3) =  -191.610752106     A.U. after   13 cycles
 E2(B2PLYPD3) =    -0.2474922639D+00 E(B2PLYPD3) =    -0.19185824437019D+03

 The electronic state is 1-A.
 Alpha  occ. eigenvalues --  -19.73161 -10.72255 -10.65069 -10.64907  -1.20143
 Alpha  occ. eigenvalues --   -0.92708  -0.75325  -0.66326  -0.56602  -0.56217
 Alpha  occ. eigenvalues --   -0.50640  -0.47510  -0.46673  -0.34711  -0.33633
 Alpha virt. eigenvalues --   -0.01703   0.05853   0.06946   0.07993   0.09743
 Alpha virt. eigenvalues --    0.12657   0.13843   0.15082   0.17312   0.19696
 Alpha virt. eigenvalues --    0.20262   0.21791   0.24849   0.26663   0.28450

 Mulliken charges:
               1
     1  C    0.157316
     2  O   -0.337422
     3  C   -0.038133
     4  C   -0.129798
     5  H    0.104267
     6  H    0.088892
     7  H    0.098098
     8  H    0.056779
 Sum of Mulliken charges =   0.00000

 Dipole moment (field-independent basis, Debye):
    X=              3.4120    Y=              0.6949    Z=              0.1471  Tot=              3.4852
 Quadrupole moment (field-independent basis, Debye-Ang):
   XX=            -27.3245   YY=            -21.9116   ZZ=            -25.2475
   XY=             -0.6664   XZ=             -0.3199   YZ=             -0.2516

 Normal termination of Gaussian 09 at Wed Aug 26 09:20:40 2020.
