 Gaussian 09, Revision D.01,
 Gaussian 09:  ES64L-G09RevD.01 24-Apr-2013

 --------------------
 #p B2PLYPD3/Def2QZVP
 --------------------

 --------
 acrolein
 --------
 Symbolic Z-matrix:
 Charge =  0 Multiplicity = 1

                         Standard orientation:
 ---------------------------------------------------------------------
 Center     Atomic      Atomic             Coordinates (Angstroms)
 Number     Number       Type             X           Y           Z
 ---------------------------------------------------------------------
      1          6           0        0.680666    0.324230   -0.085150
      2          8           0        1.767027   -0.092933    0.074950
      3          6           0       -0.566736   -0.491200   -0.090321
      4          6           0       -1.739663    0.159404    0.060115
      5          1           0       -0.535831   -1.551729   -0.036867
      6          1           0       -1.800141    1.393570   -0.056246
      7          1           0       -2.606530   -0.356562    0.194652
      8          1           0        0.560689    1.303583   -0.009005
 ---------------------------------------------------------------------

 SCF Done:  E(RB2PLYPD3) =  -191.586655843     A.U. after   13 cycles
 E2(B2PLYPD3) =    -0.2457438941D+00 E(B2PLYPD3) =    -0.19183239973706D+03

 The electronic state is 1-A.
 Alpha  occ. eigenvalues --  -19.72278 -10.69832 -10.66170 -10.64358  -1.21542
 Alpha  occ. eigenvalues --   -0.92329  -0.75328  -0.68228  -0.56839  -0.56563
 Alpha  occ. eigenvalues --   -0.50989  -0.47683  -0.46026  -0.34366  -0.33588
 Alpha virt. eigenvalues --   -0.01050   0.05498   0.07298   0.07974   0.09599
 Alpha virt. eigenvalues --    0.12323   0.14490   0.15360   0.17901   0.19208
 Alpha virt. eigenvalues --    0.20022   0.21426   0.24280   0.27027   0.29065

 Mulliken charges:
               1
     1  C    0.166475
     2  O   -0.331948
     3  C   -0.058683
     4  C   -0.135095
     5  H    0.103303
     6  H    0.074291
     7  H    0.105876
     8  H    0.075782
 Sum of Mulliken charges =   0.00000

 Dipole moment (field-independent basis, Debye):
    X=             -3.2615    Y=              0.6599    Z=             -0.1674  Tot=              3.3318
 Quadrupole moment (field-independent basis, Debye-Ang):
   XX=            -27.4977   YY=            -21.5115   ZZ=            -25.1390
   XY=              1.0775   XZ=             -0.7757   YZ=             -0.1816

 Normal termination of Gaussian 09 at Wed Aug 26 10:36:33 2020.
