 Gaussian 09, Revision D.01,
 Gaussian 09:  ES64L-G09RevD.01 24-Apr-2013

 --------------------
 #p B2PLYPD3/Def2QZVP
 --------------------

 --------
 acrolein
 --------
 Symbolic Z-matrix:
 Charge =  0 Multiplicity = 1

                         Standard orientation:
 ---------------------------------------------------------------------
 Center     Atomic      Atomic             Coordinates (Angstroms)
 Number     Number       Type             X           Y           Z
 ---------------------------------------------------------------------
      1          6           0       -0.667757   -0.322185    0.048066
      2          8           0       -1.813229    0.091278   -0.048139
      3          6           0        0.559843    0.436024   -0.012364
      4          6           0        1.749519   -0.148495   -0.038428
      5          1           0        0.475709    1.598378    0.196628
      6          1           0        1.944130   -1.266077   -0.082388
      7          1           0        2.726544    0.438181    0.045584
      8          1           0       -0.490179   -1.292772    0.241645
 ---------------------------------------------------------------------

 SCF Done:  E(RB2PLYPD3) =  -191.594705814     A.U. after   13 cycles
 E2(B2PLYPD3) =    -0.2482119918D+00 E(B2PLYPD3) =    -0.19184291780569D+03

 The electronic state is 1-A.
 Alpha  occ. eigenvalues --  -19.72748 -10.70560 -10.66869 -10.65335  -1.18762
 Alpha  occ. eigenvalues --   -0.93358  -0.76431  -0.66885  -0.57135  -0.55316
 Alpha  occ. eigenvalues --   -0.50639  -0.46442  -0.44605  -0.35041  -0.33980
 Alpha virt. eigenvalues --   -0.02222   0.05429   0.06326   0.08317   0.09413
 Alpha virt. eigenvalues --    0.12520   0.14194   0.15061   0.17622   0.18871
 Alpha virt. eigenvalues --    0.20078   0.21373   0.24714   0.27439   0.28395

 Mulliken charges:
               1
     1  C    0.160120
     2  O   -0.354926
     3  C   -0.031549
     4  C   -0.122017
     5  H    0.092431
     6  H    0.081581
     7  H    0.096337
     8  H    0.078024
 Sum of Mulliken charges =   0.00000

 Dipole moment (field-independent basis, Debye):
    X=              3.6923    Y=             -0.7919    Z=              0.3982  Tot=              3.7972
 Quadrupole moment (field-independent basis, Debye-Ang):
   XX=            -27.5046   YY=            -21.8838   ZZ=            -25.2197
   XY=              0.5696   XZ=             -0.1677   YZ=              0.3431

 Normal termination of Gaussian 09 at Wed Aug 26 14:39:47 2020.
