 Gaussian 09, Revision D.01,
 Gaussian 09:  ES64L-G09RevD.01 24-Apr-2013

 --------------------
 #p B2PLYPD3/Def2QZVP
 --------------------

 --------
 acrolein
 --------
 Symbolic Z-matrix:
 Charge =  0 Multiplicity = 1

                         Standard orientation:
 ---------------------------------------------------------------------
 Center     Atomic      Atomic             Coordinates (Angstroms)
 Number     Number       Type             X           Y           Z
 ---------------------------------------------------------------------
      1          6           0       -0.681593    0.344197    0.077544
      2          8           0       -1.755337   -0.127964   -0.048223
      3          6           0        0.504618   -0.420357    0.016941
      4          6           0        1.761464    0.125578   -0.045930
      5          1           0        0.402807   -1.457892    0.036036
      6          1           0        1.857627    1.215939   -0.096360
      7          1           0        2.775406   -0.497847    0.096463
      8          1           0       -0.500080    1.467001    0.058319
 ---------------------------------------------------------------------

 SCF Done:  E(RB2PLYPD3) =  -191.598432172     A.U. after   13 cycles
 E2(B2PLYPD3) =    -0.2475378535D+00 E(B2PLYPD3) =    -0.19184597002506D+03

 The electronic state is 1-A.
 Alpha  occ. eigenvalues --  -19.72692 -10.70936 -10.67424 -10.63880  -1.21579
 Alpha  occ. eigenvalues --   -0.92548  -0.75341  -0.66939  -0.56764  -0.55793
 Alpha  occ. eigenvalues --   -0.50090  -0.48111  -0.46493  -0.34255  -0.33516
 Alpha virt. eigenvalues --   -0.02451   0.05398   0.07181   0.08689   0.09841
 Alpha virt. eigenvalues --    0.12137   0.13858   0.15480   0.17980   0.19456
 Alpha virt. eigenvalues --    0.19663   0.21072   0.25540   0.26257   0.28940

 Mulliken charges:
               1
     1  C    0.157605
     2  O   -0.331603
     3  C   -0.030254
     4  C   -0.135717
     5  H    0.108464
     6  H    0.083811
     7  H    0.099765
     8  H    0.047929
 Sum of Mulliken charges =   0.00000

 Dipole moment (field-independent basis, Debye):
    X=              3.3746    Y=              0.6757    Z=              0.2444  Tot=              3.4502
 Quadrupole moment (field-independent basis, Debye-Ang):
   XX=            -26.8750   YY=            -22.1139   ZZ=            -25.2783
   XY=             -0.9515   XZ=             -0.0959   YZ=             -0.2245

 Normal termination of Gaussian 09 at Wed Aug 26 10:35:27 2020.
