 Gaussian 09, Revision D.01,
 Gaussian 09:  ES64L-G09RevD.01 24-Apr-2013

 --------------------
 #p B2PLYPD3/Def2QZVP
 --------------------

 --------
 acrolein
 --------
 Symbolic Z-matrix:
 Charge =  0 Multiplicity = 1

                         Standard orientation:
 ---------------------------------------------------------------------
 Center     Atomic      Atomic             Coordinates (Angstroms)
 Number     Number       Type             X           Y           Z
 ---------------------------------------------------------------------
      1          6           0       -0.670168    0.335499    0.006955
      2          8           0       -1.799689   -0.108033   -0.025798
      3          6           0        0.569913   -0.465532    0.026025
      4          6           0        1.763196    0.147375   -0.024736
      5          1           0        0.452760   -1.485745    0.073987
      6          1           0        1.883798    1.218093   -0.039078
      7          1           0        2.594947   -0.408697   -0.021963
      8          1           0       -0.511641    1.436563    0.143969
 ---------------------------------------------------------------------

 SCF Done:  E(RB2PLYPD3) =  -191.609233746     A.U. after   12 cycles
 E2(B2PLYPD3) =    -0.2469251360D+00 E(B2PLYPD3) =    -0.19185615888173D+03

 The electronic state is 1-A.
 Alpha  occ. eigenvalues --  -19.72812 -10.71650 -10.64777 -10.64170  -1.19253
 Alpha  occ. eigenvalues --   -0.93215  -0.76236  -0.67439  -0.57250  -0.56394
 Alpha  occ. eigenvalues --   -0.50737  -0.48360  -0.46440  -0.34636  -0.33623
 Alpha virt. eigenvalues --   -0.01901   0.05865   0.07316   0.08153   0.09708
 Alpha virt. eigenvalues --    0.12777   0.14014   0.15341   0.17684   0.19537
 Alpha virt. eigenvalues --    0.20157   0.21995   0.25154   0.26601   0.28452

 Mulliken charges:
               1
     1  C    0.157449
     2  O   -0.350343
     3  C   -0.046290
     4  C   -0.127926
     5  H    0.109510
     6  H    0.089652
     7  H    0.101999
     8  H    0.065949
 Sum of Mulliken charges =   0.00000

 Dipole moment (field-independent basis, Debye):
    X=              3.5655    Y=              0.6753    Z=              0.1258  Tot=              3.6311
 Quadrupole moment (field-independent basis, Debye-Ang):
   XX=            -27.4485   YY=            -21.7166   ZZ=            -25.1091
   XY=             -0.7244   XZ=             -0.2197   YZ=             -0.0764

 Normal termination of Gaussian 09 at Wed Aug 26 09:21:02 2020.
