 Gaussian 09, Revision D.01,
 Gaussian 09:  ES64L-G09RevD.01 24-Apr-2013

 --------------------
 #p B2PLYPD3/Def2QZVP
 --------------------

 --------
 acrolein
 --------
 Symbolic Z-matrix:
 Charge =  0 Multiplicity = 1

                         Standard orientation:
 ---------------------------------------------------------------------
 Center     Atomic      Atomic             Coordinates (Angstroms)
 Number     Number       Type             X           Y           Z
 ---------------------------------------------------------------------
      1          6           0        0.701566    0.369533   -0.047464
      2          8           0        1.777720   -0.147178    0.073033
      3          6           0       -0.519239   -0.409597   -0.080028
      4          6           0       -1.787892    0.129274    0.017688
      5          1           0       -0.397031   -1.516729   -0.155850
      6          1           0       -1.823221    1.053205    0.041686
      7          1           0       -2.821276   -0.447498    0.296186
      8          1           0        0.453159    1.553181   -0.107464
 ---------------------------------------------------------------------

 SCF Done:  E(RB2PLYPD3) =  -191.568529233     A.U. after   13 cycles
 E2(B2PLYPD3) =    -0.2496230841D+00 E(B2PLYPD3) =    -0.19181815231670D+03

 The electronic state is 1-A.
 Alpha  occ. eigenvalues --  -19.73507 -10.72778 -10.65869 -10.65236  -1.20768
 Alpha  occ. eigenvalues --   -0.92460  -0.76327  -0.66236  -0.56773  -0.55555
 Alpha  occ. eigenvalues --   -0.50018  -0.47889  -0.46250  -0.34206  -0.33690
 Alpha virt. eigenvalues --   -0.02671   0.05337   0.06755   0.08241   0.09766
 Alpha virt. eigenvalues --    0.12132   0.13576   0.15247   0.17198   0.18922
 Alpha virt. eigenvalues --    0.20381   0.22205   0.25000   0.25829   0.28620

 Mulliken charges:
               1
     1  C    0.153304
     2  O   -0.331978
     3  C   -0.020003
     4  C   -0.152278
     5  H    0.101943
     6  H    0.099600
     7  H    0.102395
     8  H    0.047017
 Sum of Mulliken charges =   0.00000

 Dipole moment (field-independent basis, Debye):
    X=             -3.3700    Y=              0.7669    Z=             -0.0672  Tot=              3.4568
 Quadrupole moment (field-independent basis, Debye-Ang):
   XX=            -26.7980   YY=            -22.3377   ZZ=            -25.3419
   XY=              0.8753   XZ=             -1.1145   YZ=              0.0196

 Normal termination of Gaussian 09 at Wed Aug 26 14:32:37 2020.
