 Gaussian 09, Revision D.01,
 Gaussian 09:  ES64L-G09RevD.01 24-Apr-2013

 --------------------
 #p B2PLYPD3/Def2QZVP
 --------------------

 --------
 acrolein
 --------
 Symbolic Z-matrix:
 Charge =  0 Multiplicity = 1

                         Standard orientation:
 ---------------------------------------------------------------------
 Center     Atomic      Atomic             Coordinates (Angstroms)
 Number     Number       Type             X           Y           Z
 ---------------------------------------------------------------------
      1          6           0        0.666926    0.349270    0.043561
      2          8           0        1.808871   -0.115596   -0.028027
      3          6           0       -0.581402   -0.472129    0.038702
      4          6           0       -1.756415    0.156783   -0.021483
      5          1           0       -0.446547   -1.539575   -0.031248
      6          1           0       -1.842420    1.224336    0.013646
      7          1           0       -2.627012   -0.439466   -0.067430
      8          1           0        0.470352    1.475927   -0.055430
 ---------------------------------------------------------------------

 SCF Done:  E(RB2PLYPD3) =  -191.610832506     A.U. after   13 cycles
 E2(B2PLYPD3) =    -0.2488256251D+00 E(B2PLYPD3) =    -0.19185965813062D+03

 The electronic state is 1-A.
 Alpha  occ. eigenvalues --  -19.73097 -10.72511 -10.65205 -10.64795  -1.18130
 Alpha  occ. eigenvalues --   -0.93094  -0.75310  -0.66718  -0.56562  -0.55851
 Alpha  occ. eigenvalues --   -0.50194  -0.47640  -0.45928  -0.34782  -0.33719
 Alpha virt. eigenvalues --   -0.01944   0.05752   0.06978   0.07537   0.09758
 Alpha virt. eigenvalues --    0.12637   0.13696   0.15240   0.17329   0.19723
 Alpha virt. eigenvalues --    0.20056   0.21755   0.24818   0.26807   0.28455

 Mulliken charges:
               1
     1  C    0.161374
     2  O   -0.357463
     3  C   -0.043254
     4  C   -0.129900
     5  H    0.109391
     6  H    0.092869
     7  H    0.101629
     8  H    0.065353
 Sum of Mulliken charges =   0.00000

 Dipole moment (field-independent basis, Debye):
    X=             -3.5889    Y=              0.7143    Z=              0.0155  Tot=              3.6593
 Quadrupole moment (field-independent basis, Debye-Ang):
   XX=            -27.8546   YY=            -21.5907   ZZ=            -25.3058
   XY=              0.7729   XZ=              0.2817   YZ=              0.0950

 Normal termination of Gaussian 09 at Wed Aug 26 08:44:28 2020.
