 Gaussian 09, Revision D.01,
 Gaussian 09:  ES64L-G09RevD.01 24-Apr-2013

 --------------------
 #p B2PLYPD3/Def2QZVP
 --------------------

 --------
 acrolein
 --------
 Symbolic Z-matrix:
 Charge =  0 Multiplicity = 1

                         Standard orientation:
 ---------------------------------------------------------------------
 Center     Atomic      Atomic             Coordinates (Angstroms)
 Number     Number       Type             X           Y           Z
 ---------------------------------------------------------------------
      1          6           0        0.680677    0.390946    0.059917
      2          8           0        1.764341   -0.163739   -0.072057
      3          6           0       -0.570721   -0.408935    0.119400
      4          6           0       -1.711599    0.142282   -0.067452
      5          1           0       -0.498716   -1.531076    0.024785
      6          1           0       -1.743053    1.085074    0.011592
      7          1           0       -2.786759   -0.415093   -0.178145
      8          1           0        0.523657    1.425248    0.047032
 ---------------------------------------------------------------------

 SCF Done:  E(RB2PLYPD3) =  -191.579338599     A.U. after   13 cycles
 E2(B2PLYPD3) =    -0.2471738406D+00 E(B2PLYPD3) =    -0.19182651243918D+03

 The electronic state is 1-A.
 Alpha  occ. eigenvalues --  -19.73094 -10.71809 -10.64009 -10.63750  -1.18950
 Alpha  occ. eigenvalues --   -0.94368  -0.75524  -0.68274  -0.57983  -0.55275
 Alpha  occ. eigenvalues --   -0.50413  -0.46600  -0.45197  -0.35389  -0.34225
 Alpha virt. eigenvalues --   -0.01173   0.05516   0.06956   0.07723   0.09857
 Alpha virt. eigenvalues --    0.12323   0.13944   0.15182   0.17472   0.19607
 Alpha virt. eigenvalues --    0.20594   0.21765   0.24296   0.26757   0.28788

 Mulliken charges:
               1
     1  C    0.147616
     2  O   -0.350505
     3  C   -0.036640
     4  C   -0.125294
     5  H    0.100754
     6  H    0.082848
     7  H    0.088500
     8  H    0.092721
 Sum of Mulliken charges =   0.00000

 Dipole moment (field-independent basis, Debye):
    X=             -3.3002    Y=              1.0884    Z=              0.1381  Tot=              3.4778
 Quadrupole moment (field-independent basis, Debye-Ang):
   XX=            -27.4446   YY=            -21.7538   ZZ=            -25.0271
   XY=              1.3070   XZ=              0.7217   YZ=              0.1877

 Normal termination of Gaussian 09 at Wed Aug 26 13:52:41 2020.
