 Gaussian 09, Revision D.01,
 Gaussian 09:  ES64L-G09RevD.01 24-Apr-2013

 --------------------
 #p B2PLYPD3/Def2QZVP
 --------------------

 --------
 acrolein
 --------
 Symbolic Z-matrix:
 Charge =  0 Multiplicity = 1

                         Standard orientation:
 ---------------------------------------------------------------------
 Center     Atomic      Atomic             Coordinates (Angstroms)
 Number     Number       Type             X           Y           Z
 ---------------------------------------------------------------------
      1          6           0       -0.651960    0.351164   -0.059504
      2          8           0       -1.775875   -0.138566    0.072795
      3          6           0        0.549760   -0.383616   -0.096539
      4          6           0        1.747634    0.114108    0.075027
      5          1           0        0.368467   -1.465391   -0.132741
      6          1           0        1.729516    1.053290   -0.087052
      7          1           0        2.697913   -0.421641    0.186626
      8          1           0       -0.461503    1.452331   -0.063098
 ---------------------------------------------------------------------

 SCF Done:  E(RB2PLYPD3) =  -191.588789589     A.U. after   14 cycles
 E2(B2PLYPD3) =    -0.2481023460D+00 E(B2PLYPD3) =    -0.19183689193499D+03

 The electronic state is 1-A.
 Alpha  occ. eigenvalues --  -19.73017 -10.71633 -10.64324 -10.63736  -1.18372
 Alpha  occ. eigenvalues --   -0.95244  -0.77605  -0.67323  -0.57394  -0.57039
 Alpha  occ. eigenvalues --   -0.51155  -0.47276  -0.45473  -0.34964  -0.34193
 Alpha virt. eigenvalues --   -0.02580   0.05809   0.07124   0.08533   0.10030
 Alpha virt. eigenvalues --    0.12574   0.13952   0.15057   0.17058   0.19667
 Alpha virt. eigenvalues --    0.20994   0.22050   0.24466   0.26615   0.29062

 Mulliken charges:
               1
     1  C    0.152402
     2  O   -0.361075
     3  C    0.003141
     4  C   -0.137951
     5  H    0.090574
     6  H    0.087734
     7  H    0.110227
     8  H    0.054948
 Sum of Mulliken charges =   0.00000

 Dipole moment (field-independent basis, Debye):
    X=              3.6985    Y=              0.7803    Z=             -0.2660  Tot=              3.7892
 Quadrupole moment (field-independent basis, Debye-Ang):
   XX=            -26.9698   YY=            -22.3192   ZZ=            -24.8783
   XY=             -1.0849   XZ=              0.6412   YZ=             -0.1275

 Normal termination of Gaussian 09 at Wed Aug 26 11:08:51 2020.
