 Gaussian 09, Revision D.01,
 Gaussian 09:  ES64L-G09RevD.01 24-Apr-2013

 --------------------
 #p B2PLYPD3/Def2QZVP
 --------------------

 --------
 acrolein
 --------
 Symbolic Z-matrix:
 Charge =  0 Multiplicity = 1

                         Standard orientation:
 ---------------------------------------------------------------------
 Center     Atomic      Atomic             Coordinates (Angstroms)
 Number     Number       Type             X           Y           Z
 ---------------------------------------------------------------------
      1          6           0        0.658090    0.322367   -0.020338
      2          8           0        1.786389   -0.095557    0.016289
      3          6           0       -0.562832   -0.455432   -0.019708
      4          6           0       -1.757207    0.150145    0.013477
      5          1           0       -0.421003   -1.584547   -0.033645
      6          1           0       -1.822904    1.221629   -0.074457
      7          1           0       -2.615002   -0.362867    0.095376
      8          1           0        0.539484    1.387766    0.041831
 ---------------------------------------------------------------------

 SCF Done:  E(RB2PLYPD3) =  -191.608814629     A.U. after   13 cycles
 E2(B2PLYPD3) =    -0.2465385183D+00 E(B2PLYPD3) =    -0.19185535314782D+03

 The electronic state is 1-A.
 Alpha  occ. eigenvalues --  -19.72428 -10.70691 -10.65052 -10.64917  -1.19713
 Alpha  occ. eigenvalues --   -0.93359  -0.76628  -0.66819  -0.57322  -0.56808
 Alpha  occ. eigenvalues --   -0.50789  -0.47127  -0.46753  -0.34652  -0.33637
 Alpha virt. eigenvalues --   -0.01984   0.05879   0.07090   0.08500   0.09728
 Alpha virt. eigenvalues --    0.12763   0.14319   0.15320   0.17124   0.19727
 Alpha virt. eigenvalues --    0.20238   0.22081   0.25216   0.26577   0.28859

 Mulliken charges:
               1
     1  C    0.155639
     2  O   -0.348845
     3  C   -0.030435
     4  C   -0.129624
     5  H    0.095548
     6  H    0.087669
     7  H    0.108267
     8  H    0.061781
 Sum of Mulliken charges =   0.00000

 Dipole moment (field-independent basis, Debye):
    X=             -3.5916    Y=              0.6821    Z=             -0.0537  Tot=              3.6562
 Quadrupole moment (field-independent basis, Debye-Ang):
   XX=            -27.3129   YY=            -21.7789   ZZ=            -25.0899
   XY=              0.7366   XZ=             -0.1781   YZ=             -0.0818

 Normal termination of Gaussian 09 at Wed Aug 26 09:56:16 2020.
