 Gaussian 09, Revision D.01,
 Gaussian 09:  ES64L-G09RevD.01 24-Apr-2013

 --------------------
 #p B2PLYPD3/Def2QZVP
 --------------------

 --------
 acrolein
 --------
 Symbolic Z-matrix:
 Charge =  0 Multiplicity = 1

                         Standard orientation:
 ---------------------------------------------------------------------
 Center     Atomic      Atomic             Coordinates (Angstroms)
 Number     Number       Type             X           Y           Z
 ---------------------------------------------------------------------
      1          6           0       -0.666071    0.349644    0.051308
      2          8           0       -1.760612   -0.107053   -0.080750
      3          6           0        0.553578   -0.460571    0.039850
      4          6           0        1.748917    0.142112   -0.024290
      5          1           0        0.366410   -1.532205    0.177486
      6          1           0        1.945783    1.339561   -0.219265
      7          1           0        2.626156   -0.466274   -0.077500
      8          1           0       -0.671992    1.328236    0.364068
 ---------------------------------------------------------------------

 SCF Done:  E(RB2PLYPD3) =  -191.593229692     A.U. after   13 cycles
 E2(B2PLYPD3) =    -0.2466872136D+00 E(B2PLYPD3) =    -0.19183991690528D+03

 The electronic state is 1-A.
 Alpha  occ. eigenvalues --  -19.72093 -10.69953 -10.66661 -10.64759  -1.20389
 Alpha  occ. eigenvalues --   -0.92364  -0.75055  -0.67406  -0.56377  -0.56131
 Alpha  occ. eigenvalues --   -0.50877  -0.46668  -0.45585  -0.34592  -0.33359
 Alpha virt. eigenvalues --   -0.01354   0.05376   0.06986   0.07935   0.09495
 Alpha virt. eigenvalues --    0.12311   0.14082   0.15131   0.17716   0.18493
 Alpha virt. eigenvalues --    0.19988   0.21533   0.24560   0.27073   0.28914

 Mulliken charges:
               1
     1  C    0.161390
     2  O   -0.344669
     3  C   -0.069691
     4  C   -0.124438
     5  H    0.113849
     6  H    0.083458
     7  H    0.099085
     8  H    0.081015
 Sum of Mulliken charges =   0.00000

 Dipole moment (field-independent basis, Debye):
    X=              3.3041    Y=              0.7321    Z=              0.2929  Tot=              3.3968
 Quadrupole moment (field-independent basis, Debye-Ang):
   XX=            -27.5453   YY=            -21.5063   ZZ=            -25.1825
   XY=             -0.8497   XZ=             -0.9702   YZ=             -0.3840

 Normal termination of Gaussian 09 at Wed Aug 26 10:41:20 2020.
