 Gaussian 09, Revision D.01,
 Gaussian 09:  ES64L-G09RevD.01 24-Apr-2013

 --------------------
 #p B2PLYPD3/Def2QZVP
 --------------------

 --------
 acrolein
 --------
 Symbolic Z-matrix:
 Charge =  0 Multiplicity = 1

                         Standard orientation:
 ---------------------------------------------------------------------
 Center     Atomic      Atomic             Coordinates (Angstroms)
 Number     Number       Type             X           Y           Z
 ---------------------------------------------------------------------
      1          6           0        0.645064    0.316603    0.017764
      2          8           0        1.806734   -0.096092   -0.011858
      3          6           0       -0.571268   -0.463100    0.011615
      4          6           0       -1.735523    0.159642   -0.025546
      5          1           0       -0.430109   -1.525023   -0.011929
      6          1           0       -1.804839    1.229204   -0.022121
      7          1           0       -2.692000   -0.435049    0.068757
      8          1           0        0.443442    1.420728    0.037160
 ---------------------------------------------------------------------

 SCF Done:  E(RB2PLYPD3) =  -191.611271930     A.U. after   13 cycles
 E2(B2PLYPD3) =    -0.2484725848D+00 E(B2PLYPD3) =    -0.19185974451471D+03

 The electronic state is 1-A.
 Alpha  occ. eigenvalues --  -19.72804 -10.71672 -10.66174 -10.64342  -1.18059
 Alpha  occ. eigenvalues --   -0.94112  -0.75747  -0.67116  -0.56437  -0.56098
 Alpha  occ. eigenvalues --   -0.50058  -0.47189  -0.46200  -0.35106  -0.33731
 Alpha virt. eigenvalues --   -0.02249   0.05599   0.06949   0.08220   0.09754
 Alpha virt. eigenvalues --    0.12593   0.13725   0.15169   0.17414   0.19659
 Alpha virt. eigenvalues --    0.20056   0.21497   0.25362   0.26605   0.28666

 Mulliken charges:
               1
     1  C    0.155320
     2  O   -0.363315
     3  C   -0.019665
     4  C   -0.124345
     5  H    0.105136
     6  H    0.093223
     7  H    0.098681
     8  H    0.054965
 Sum of Mulliken charges =   0.00000

 Dipole moment (field-independent basis, Debye):
    X=             -3.7514    Y=              0.6195    Z=              0.0869  Tot=              3.8032
 Quadrupole moment (field-independent basis, Debye-Ang):
   XX=            -27.7496   YY=            -21.8107   ZZ=            -25.1956
   XY=              0.6240   XZ=             -0.0760   YZ=             -0.0323

 Normal termination of Gaussian 09 at Wed Aug 26 10:29:41 2020.
