 Gaussian 09, Revision D.01,
 Gaussian 09:  ES64L-G09RevD.01 24-Apr-2013

 --------------------
 #p B2PLYPD3/Def2QZVP
 --------------------

 --------
 acrolein
 --------
 Symbolic Z-matrix:
 Charge =  0 Multiplicity = 1

                         Standard orientation:
 ---------------------------------------------------------------------
 Center     Atomic      Atomic             Coordinates (Angstroms)
 Number     Number       Type             X           Y           Z
 ---------------------------------------------------------------------
      1          6           0       -0.681643    0.372042   -0.053839
      2          8           0       -1.794406   -0.151483    0.053598
      3          6           0        0.578847   -0.430088   -0.058320
      4          6           0        1.753288    0.129267    0.011083
      5          1           0        0.399681   -1.512804    0.017577
      6          1           0        1.786299    1.116024    0.265117
      7          1           0        2.698616   -0.446298    0.034868
      8          1           0       -0.432304    1.627620   -0.139887
 ---------------------------------------------------------------------

 SCF Done:  E(RB2PLYPD3) =  -191.590043453     A.U. after   14 cycles
 E2(B2PLYPD3) =    -0.2500505017D+00 E(B2PLYPD3) =    -0.19184009395470D+03

 The electronic state is 1-A.
 Alpha  occ. eigenvalues --  -19.73986 -10.74085 -10.64647 -10.64494  -1.18829
 Alpha  occ. eigenvalues --   -0.93685  -0.75014  -0.65504  -0.56619  -0.55508
 Alpha  occ. eigenvalues --   -0.50414  -0.46968  -0.46096  -0.35166  -0.33826
 Alpha virt. eigenvalues --   -0.02055   0.05571   0.06619   0.07542   0.09967
 Alpha virt. eigenvalues --    0.12273   0.13184   0.15227   0.16636   0.19427
 Alpha virt. eigenvalues --    0.20508   0.21721   0.24677   0.26203   0.28484

 Mulliken charges:
               1
     1  C    0.171576
     2  O   -0.345603
     3  C   -0.036793
     4  C   -0.115883
     5  H    0.103144
     6  H    0.083118
     7  H    0.100284
     8  H    0.040156
 Sum of Mulliken charges =   0.00000

 Dipole moment (field-independent basis, Debye):
    X=              3.4151    Y=              0.6523    Z=              0.0679  Tot=              3.4775
 Quadrupole moment (field-independent basis, Debye-Ang):
   XX=            -27.4481   YY=            -22.2161   ZZ=            -25.2637
   XY=             -0.9289   XZ=              0.7362   YZ=              0.1699

 Normal termination of Gaussian 09 at Wed Aug 26 14:16:50 2020.
