 Gaussian 09, Revision D.01,
 Gaussian 09:  ES64L-G09RevD.01 24-Apr-2013

 --------------------
 #p B2PLYPD3/Def2QZVP
 --------------------

 --------
 acrolein
 --------
 Symbolic Z-matrix:
 Charge =  0 Multiplicity = 1

                         Standard orientation:
 ---------------------------------------------------------------------
 Center     Atomic      Atomic             Coordinates (Angstroms)
 Number     Number       Type             X           Y           Z
 ---------------------------------------------------------------------
      1          6           0        0.676861    0.351879    0.006286
      2          8           0        1.790117   -0.123193   -0.013468
      3          6           0       -0.576878   -0.458451    0.003732
      4          6           0       -1.756397    0.150721   -0.005790
      5          1           0       -0.464121   -1.522173    0.047623
      6          1           0       -1.814485    1.216406   -0.053711
      7          1           0       -2.618624   -0.417768    0.000524
      8          1           0        0.514779    1.444182    0.087940
 ---------------------------------------------------------------------

 SCF Done:  E(RB2PLYPD3) =  -191.615229375     A.U. after   12 cycles
 E2(B2PLYPD3) =    -0.2466844298D+00 E(B2PLYPD3) =    -0.19186191380480D+03

 The electronic state is 1-A.
 Alpha  occ. eigenvalues --  -19.72922 -10.71752 -10.64528 -10.64221  -1.19549
 Alpha  occ. eigenvalues --   -0.93086  -0.75437  -0.67178  -0.57078  -0.56291
 Alpha  occ. eigenvalues --   -0.50769  -0.47614  -0.46635  -0.34753  -0.33765
 Alpha virt. eigenvalues --   -0.01461   0.05901   0.07238   0.07994   0.09790
 Alpha virt. eigenvalues --    0.12739   0.13969   0.15347   0.17476   0.19684
 Alpha virt. eigenvalues --    0.20129   0.21889   0.25334   0.26614   0.28650

 Mulliken charges:
               1
     1  C    0.155200
     2  O   -0.346344
     3  C   -0.043414
     4  C   -0.134028
     5  H    0.105118
     6  H    0.086979
     7  H    0.103515
     8  H    0.072974
 Sum of Mulliken charges =   0.00000

 Dipole moment (field-independent basis, Debye):
    X=             -3.4152    Y=              0.7591    Z=              0.0645  Tot=              3.4992
 Quadrupole moment (field-independent basis, Debye-Ang):
   XX=            -27.6001   YY=            -21.6292   ZZ=            -25.1471
   XY=              0.9716   XZ=              0.1284   YZ=             -0.0995

 Normal termination of Gaussian 09 at Wed Aug 26 19:29:45 2020.
