 Gaussian 09, Revision D.01,
 Gaussian 09:  ES64L-G09RevD.01 24-Apr-2013

 --------------------
 #p B2PLYPD3/Def2QZVP
 --------------------

 --------
 acrolein
 --------
 Symbolic Z-matrix:
 Charge =  0 Multiplicity = 1

                         Standard orientation:
 ---------------------------------------------------------------------
 Center     Atomic      Atomic             Coordinates (Angstroms)
 Number     Number       Type             X           Y           Z
 ---------------------------------------------------------------------
      1          6           0        0.673202    0.352306    0.036810
      2          8           0        1.792343   -0.128641   -0.037282
      3          6           0       -0.579734   -0.436564    0.067904
      4          6           0       -1.743627    0.132270   -0.041097
      5          1           0       -0.464407   -1.465597   -0.041328
      6          1           0       -1.830818    1.230133   -0.016460
      7          1           0       -2.658061   -0.426923   -0.049170
      8          1           0        0.515493    1.403445    0.023507
 ---------------------------------------------------------------------

 SCF Done:  E(RB2PLYPD3) =  -191.612245681     A.U. after   12 cycles
 E2(B2PLYPD3) =    -0.2465646379D+00 E(B2PLYPD3) =    -0.19185881031922D+03

 The electronic state is 1-A.
 Alpha  occ. eigenvalues --  -19.72931 -10.71403 -10.64958 -10.63447  -1.18974
 Alpha  occ. eigenvalues --   -0.93809  -0.75659  -0.67881  -0.56860  -0.56588
 Alpha  occ. eigenvalues --   -0.51015  -0.46775  -0.46296  -0.35297  -0.33924
 Alpha virt. eigenvalues --   -0.01514   0.05767   0.07426   0.08045   0.09774
 Alpha virt. eigenvalues --    0.12619   0.13776   0.15313   0.17983   0.19552
 Alpha virt. eigenvalues --    0.19862   0.21733   0.25185   0.26826   0.28777

 Mulliken charges:
               1
     1  C    0.155804
     2  O   -0.354460
     3  C   -0.042525
     4  C   -0.120382
     5  H    0.107119
     6  H    0.075523
     7  H    0.100168
     8  H    0.078754
 Sum of Mulliken charges =   0.00000

 Dipole moment (field-independent basis, Debye):
    X=             -3.4854    Y=              0.8175    Z=              0.0393  Tot=              3.5802
 Quadrupole moment (field-independent basis, Debye-Ang):
   XX=            -27.5119   YY=            -21.7878   ZZ=            -25.0294
   XY=              1.0409   XZ=              0.3521   YZ=              0.1198

 Normal termination of Gaussian 09 at Wed Aug 26 10:53:21 2020.
