 Gaussian 09, Revision D.01,
 Gaussian 09:  ES64L-G09RevD.01 24-Apr-2013

 --------------------
 #p B2PLYPD3/Def2QZVP
 --------------------

 --------
 acrolein
 --------
 Symbolic Z-matrix:
 Charge =  0 Multiplicity = 1

                         Standard orientation:
 ---------------------------------------------------------------------
 Center     Atomic      Atomic             Coordinates (Angstroms)
 Number     Number       Type             X           Y           Z
 ---------------------------------------------------------------------
      1          6           0       -0.688212    0.354392    0.051957
      2          8           0       -1.784361   -0.119343   -0.039684
      3          6           0        0.586461   -0.469889    0.008303
      4          6           0        1.758611    0.155996   -0.032815
      5          1           0        0.472708   -1.559695    0.083987
      6          1           0        1.824177    1.262188   -0.066617
      7          1           0        2.583717   -0.398023    0.038646
      8          1           0       -0.546884    1.407275    0.096793
 ---------------------------------------------------------------------

 SCF Done:  E(RB2PLYPD3) =  -191.608318813     A.U. after   13 cycles
 E2(B2PLYPD3) =    -0.2460477414D+00 E(B2PLYPD3) =    -0.19185436655422D+03

 The electronic state is 1-A.
 Alpha  occ. eigenvalues --  -19.72856 -10.71295 -10.64548 -10.64262  -1.20312
 Alpha  occ. eigenvalues --   -0.92572  -0.75265  -0.67230  -0.57115  -0.56264
 Alpha  occ. eigenvalues --   -0.51048  -0.47293  -0.46829  -0.34625  -0.33646
 Alpha virt. eigenvalues --   -0.01070   0.05930   0.07244   0.07925   0.09721
 Alpha virt. eigenvalues --    0.12672   0.14214   0.15387   0.17465   0.19480
 Alpha virt. eigenvalues --    0.20017   0.22133   0.25261   0.26662   0.28658

 Mulliken charges:
               1
     1  C    0.157882
     2  O   -0.337964
     3  C   -0.054590
     4  C   -0.135645
     5  H    0.100641
     6  H    0.083866
     7  H    0.104602
     8  H    0.081208
 Sum of Mulliken charges =   0.00000

 Dipole moment (field-independent basis, Debye):
    X=              3.2499    Y=              0.8021    Z=              0.2410  Tot=              3.3561
 Quadrupole moment (field-independent basis, Debye-Ang):
   XX=            -27.6837   YY=            -21.4585   ZZ=            -25.1550
   XY=             -0.9820   XZ=             -0.1473   YZ=             -0.1878

 Normal termination of Gaussian 09 at Wed Aug 26 09:12:19 2020.
