 Gaussian 09, Revision D.01,
 Gaussian 09:  ES64L-G09RevD.01 24-Apr-2013

 --------------------
 #p B2PLYPD3/Def2QZVP
 --------------------

 --------
 acrolein
 --------
 Symbolic Z-matrix:
 Charge =  0 Multiplicity = 1

                         Standard orientation:
 ---------------------------------------------------------------------
 Center     Atomic      Atomic             Coordinates (Angstroms)
 Number     Number       Type             X           Y           Z
 ---------------------------------------------------------------------
      1          6           0       -0.673536    0.340702    0.013545
      2          8           0       -1.789377   -0.109188   -0.017810
      3          6           0        0.571711   -0.461963    0.008073
      4          6           0        1.760550    0.154291   -0.007879
      5          1           0        0.407774   -1.554991    0.052256
      6          1           0        1.837141    1.205889   -0.029833
      7          1           0        2.668998   -0.387528   -0.028087
      8          1           0       -0.551251    1.411953    0.065705
 ---------------------------------------------------------------------

 SCF Done:  E(RB2PLYPD3) =  -191.615425034     A.U. after   12 cycles
 E2(B2PLYPD3) =    -0.2464948151D+00 E(B2PLYPD3) =    -0.19186191984888D+03

 The electronic state is 1-A.
 Alpha  occ. eigenvalues --  -19.72649 -10.71118 -10.65064 -10.64846  -1.19851
 Alpha  occ. eigenvalues --   -0.92782  -0.75646  -0.67202  -0.56875  -0.56537
 Alpha  occ. eigenvalues --   -0.50747  -0.47295  -0.46751  -0.34625  -0.33661
 Alpha virt. eigenvalues --   -0.01615   0.05857   0.07262   0.08208   0.09726
 Alpha virt. eigenvalues --    0.12688   0.14143   0.15349   0.17315   0.19840
 Alpha virt. eigenvalues --    0.20078   0.21777   0.25332   0.26549   0.28747

 Mulliken charges:
               1
     1  C    0.156153
     2  O   -0.347155
     3  C   -0.041690
     4  C   -0.133219
     5  H    0.103918
     6  H    0.088690
     7  H    0.102800
     8  H    0.070503
 Sum of Mulliken charges =   0.00000

 Dipole moment (field-independent basis, Debye):
    X=              3.4533    Y=              0.7564    Z=              0.0738  Tot=              3.5360
 Quadrupole moment (field-independent basis, Debye-Ang):
   XX=            -27.3919   YY=            -21.7011   ZZ=            -25.1780
   XY=             -0.7650   XZ=             -0.1876   YZ=             -0.0743

 Normal termination of Gaussian 09 at Wed Aug 26 18:57:39 2020.
