 Gaussian 09, Revision D.01,
 Gaussian 09:  ES64L-G09RevD.01 24-Apr-2013

 --------------------
 #p B2PLYPD3/Def2QZVP
 --------------------

 --------
 acrolein
 --------
 Symbolic Z-matrix:
 Charge =  0 Multiplicity = 1

                         Standard orientation:
 ---------------------------------------------------------------------
 Center     Atomic      Atomic             Coordinates (Angstroms)
 Number     Number       Type             X           Y           Z
 ---------------------------------------------------------------------
      1          6           0       -0.651656    0.330298    0.001895
      2          8           0       -1.803214   -0.098521    0.023872
      3          6           0        0.560905   -0.462693   -0.040013
      4          6           0        1.741615    0.144075    0.007616
      5          1           0        0.446018   -1.581482   -0.046012
      6          1           0        1.861949    1.260586    0.023075
      7          1           0        2.683171   -0.390319    0.124125
      8          1           0       -0.470612    1.429303   -0.109154
 ---------------------------------------------------------------------

 SCF Done:  E(RB2PLYPD3) =  -191.610903958     A.U. after   12 cycles
 E2(B2PLYPD3) =    -0.2486897169D+00 E(B2PLYPD3) =    -0.19185959367539D+03

 The electronic state is 1-A.
 Alpha  occ. eigenvalues --  -19.72763 -10.71741 -10.66296 -10.65034  -1.18320
 Alpha  occ. eigenvalues --   -0.93484  -0.75687  -0.66282  -0.56720  -0.55728
 Alpha  occ. eigenvalues --   -0.50152  -0.46562  -0.45986  -0.34931  -0.33773
 Alpha virt. eigenvalues --   -0.02199   0.05571   0.06779   0.08090   0.09606
 Alpha virt. eigenvalues --    0.12491   0.14137   0.15211   0.17161   0.19608
 Alpha virt. eigenvalues --    0.19953   0.21501   0.25224   0.26488   0.28612

 Mulliken charges:
               1
     1  C    0.159295
     2  O   -0.358839
     3  C   -0.031842
     4  C   -0.118744
     5  H    0.102660
     6  H    0.081852
     7  H    0.101144
     8  H    0.064472
 Sum of Mulliken charges =   0.00000

 Dipole moment (field-independent basis, Debye):
    X=              3.7314    Y=              0.6657    Z=             -0.0043  Tot=              3.7903
 Quadrupole moment (field-independent basis, Debye-Ang):
   XX=            -27.5439   YY=            -21.7896   ZZ=            -25.2815
   XY=             -0.6282   XZ=              0.4603   YZ=             -0.0322

 Normal termination of Gaussian 09 at Wed Aug 26 08:43:16 2020.
