 Gaussian 09, Revision D.01,
 Gaussian 09:  ES64L-G09RevD.01 24-Apr-2013

 --------------------
 #p B2PLYPD3/Def2QZVP
 --------------------

 --------
 acrolein
 --------
 Symbolic Z-matrix:
 Charge =  0 Multiplicity = 1

                         Standard orientation:
 ---------------------------------------------------------------------
 Center     Atomic      Atomic             Coordinates (Angstroms)
 Number     Number       Type             X           Y           Z
 ---------------------------------------------------------------------
      1          6           0       -0.694494    0.385730   -0.016766
      2          8           0       -1.769858   -0.164539   -0.009310
      3          6           0        0.540552   -0.420342    0.008331
      4          6           0        1.768241    0.110437    0.010441
      5          1           0        0.483720   -1.317715    0.064843
      6          1           0        1.806573    1.194816   -0.079687
      7          1           0        2.720606   -0.467246   -0.056871
      8          1           0       -0.537834    1.451512    0.134153
 ---------------------------------------------------------------------

 SCF Done:  E(RB2PLYPD3) =  -191.581174539     A.U. after   13 cycles
 E2(B2PLYPD3) =    -0.2466215594D+00 E(B2PLYPD3) =    -0.19182779609802D+03

 The electronic state is 1-A.
 Alpha  occ. eigenvalues --  -19.73038 -10.71675 -10.65453 -10.62080  -1.19983
 Alpha  occ. eigenvalues --   -0.93253  -0.75180  -0.69725  -0.57311  -0.56229
 Alpha  occ. eigenvalues --   -0.51011  -0.47401  -0.46832  -0.34537  -0.33940
 Alpha virt. eigenvalues --   -0.01747   0.05710   0.07640   0.07933   0.09804
 Alpha virt. eigenvalues --    0.12353   0.13787   0.15450   0.18780   0.19185
 Alpha virt. eigenvalues --    0.19921   0.21268   0.25283   0.26597   0.29089

 Mulliken charges:
               1
     1  C    0.153865
     2  O   -0.343848
     3  C   -0.078051
     4  C   -0.123784
     5  H    0.136010
     6  H    0.069266
     7  H    0.097744
     8  H    0.088797
 Sum of Mulliken charges =   0.00000

 Dipole moment (field-independent basis, Debye):
    X=              3.2743    Y=              0.9013    Z=             -0.0073  Tot=              3.3961
 Quadrupole moment (field-independent basis, Debye-Ang):
   XX=            -27.2022   YY=            -21.8539   ZZ=            -25.0237
   XY=             -1.4881   XZ=             -0.2882   YZ=             -0.0808

 Normal termination of Gaussian 09 at Wed Aug 26 13:08:13 2020.
