 Gaussian 09, Revision D.01,
 Gaussian 09:  ES64L-G09RevD.01 24-Apr-2013

 --------------------
 #p B2PLYPD3/Def2QZVP
 --------------------

 --------
 acrolein
 --------
 Symbolic Z-matrix:
 Charge =  0 Multiplicity = 1

                         Standard orientation:
 ---------------------------------------------------------------------
 Center     Atomic      Atomic             Coordinates (Angstroms)
 Number     Number       Type             X           Y           Z
 ---------------------------------------------------------------------
      1          6           0        0.689217    0.373695   -0.049790
      2          8           0        1.760366   -0.144328    0.037849
      3          6           0       -0.521631   -0.421779    0.016268
      4          6           0       -1.769372    0.103058   -0.014356
      5          1           0       -0.398825   -1.530137   -0.085029
      6          1           0       -1.838115    1.201294    0.262231
      7          1           0       -2.666412   -0.439614   -0.033114
      8          1           0        0.431142    1.593237   -0.159608
 ---------------------------------------------------------------------

 SCF Done:  E(RB2PLYPD3) =  -191.595927777     A.U. after   14 cycles
 E2(B2PLYPD3) =    -0.2490849781D+00 E(B2PLYPD3) =    -0.19184501275532D+03

 The electronic state is 1-A.
 Alpha  occ. eigenvalues --  -19.73536 -10.72891 -10.65847 -10.64788  -1.21253
 Alpha  occ. eigenvalues --   -0.92324  -0.75495  -0.64726  -0.57236  -0.55173
 Alpha  occ. eigenvalues --   -0.51160  -0.47839  -0.45377  -0.34239  -0.33929
 Alpha virt. eigenvalues --   -0.02231   0.05670   0.06745   0.07910   0.09883
 Alpha virt. eigenvalues --    0.12457   0.13512   0.14979   0.17011   0.19391
 Alpha virt. eigenvalues --    0.20186   0.21936   0.24124   0.26530   0.28467

 Mulliken charges:
               1
     1  C    0.169169
     2  O   -0.323249
     3  C   -0.040398
     4  C   -0.126248
     5  H    0.099476
     6  H    0.072103
     7  H    0.106974
     8  H    0.042173
 Sum of Mulliken charges =   0.00000

 Dipole moment (field-independent basis, Debye):
    X=             -3.2829    Y=              0.6040    Z=             -0.0683  Tot=              3.3387
 Quadrupole moment (field-independent basis, Debye-Ang):
   XX=            -26.9707   YY=            -22.2846   ZZ=            -25.3397
   XY=              1.0297   XZ=             -0.4031   YZ=              0.4085

 Normal termination of Gaussian 09 at Wed Aug 26 12:31:56 2020.
