 Gaussian 09, Revision D.01,
 Gaussian 09:  ES64L-G09RevD.01 24-Apr-2013

 --------------------
 #p B2PLYPD3/Def2QZVP
 --------------------

 --------
 acrolein
 --------
 Symbolic Z-matrix:
 Charge =  0 Multiplicity = 1

                         Standard orientation:
 ---------------------------------------------------------------------
 Center     Atomic      Atomic             Coordinates (Angstroms)
 Number     Number       Type             X           Y           Z
 ---------------------------------------------------------------------
      1          6           0       -0.671303    0.348181    0.000077
      2          8           0       -1.794620   -0.116581    0.012280
      3          6           0        0.572277   -0.454865   -0.026125
      4          6           0        1.759328    0.150010    0.004326
      5          1           0        0.438742   -1.551161   -0.015585
      6          1           0        1.812958    1.205655   -0.009774
      7          1           0        2.657191   -0.402135    0.086638
      8          1           0       -0.513740    1.420335   -0.029186
 ---------------------------------------------------------------------

 SCF Done:  E(RB2PLYPD3) =  -191.615483677     A.U. after   12 cycles
 E2(B2PLYPD3) =    -0.2471059468D+00 E(B2PLYPD3) =    -0.19186258962392D+03

 The electronic state is 1-A.
 Alpha  occ. eigenvalues --  -19.72826 -10.71493 -10.64961 -10.64666  -1.19181
 Alpha  occ. eigenvalues --   -0.93062  -0.75708  -0.67181  -0.56754  -0.56524
 Alpha  occ. eigenvalues --   -0.50661  -0.47166  -0.46506  -0.34697  -0.33841
 Alpha virt. eigenvalues --   -0.01753   0.05834   0.07184   0.08060   0.09757
 Alpha virt. eigenvalues --    0.12700   0.14069   0.15342   0.17307   0.19913
 Alpha virt. eigenvalues --    0.19980   0.21809   0.25356   0.26537   0.28766

 Mulliken charges:
               1
     1  C    0.155315
     2  O   -0.351880
     3  C   -0.037108
     4  C   -0.133906
     5  H    0.102435
     6  H    0.086361
     7  H    0.104578
     8  H    0.074204
 Sum of Mulliken charges =   0.00000

 Dipole moment (field-independent basis, Debye):
    X=              3.5023    Y=              0.7801    Z=              0.0179  Tot=              3.5882
 Quadrupole moment (field-independent basis, Debye-Ang):
   XX=            -27.5478   YY=            -21.6824   ZZ=            -25.1817
   XY=             -0.8901   XZ=              0.2661   YZ=             -0.0635

 Normal termination of Gaussian 09 at Wed Aug 26 15:07:47 2020.
