 Gaussian 09, Revision D.01,
 Gaussian 09:  ES64L-G09RevD.01 24-Apr-2013

 --------------------
 #p B2PLYPD3/Def2QZVP
 --------------------

 --------
 acrolein
 --------
 Symbolic Z-matrix:
 Charge =  0 Multiplicity = 1

                         Standard orientation:
 ---------------------------------------------------------------------
 Center     Atomic      Atomic             Coordinates (Angstroms)
 Number     Number       Type             X           Y           Z
 ---------------------------------------------------------------------
      1          6           0        0.669416   -0.325172    0.057330
      2          8           0        1.784523    0.087840   -0.021673
      3          6           0       -0.581528    0.465810   -0.021894
      4          6           0       -1.764452   -0.164420   -0.030598
      5          1           0       -0.325455    1.649713    0.035699
      6          1           0       -1.847962   -1.197923   -0.041907
      7          1           0       -2.629114    0.356940    0.147814
      8          1           0        0.585732   -1.368757    0.002753
 ---------------------------------------------------------------------

 SCF Done:  E(RB2PLYPD3) =  -191.594933011     A.U. after   13 cycles
 E2(B2PLYPD3) =    -0.2465287996D+00 E(B2PLYPD3) =    -0.19184146181104D+03

 The electronic state is 1-A.
 Alpha  occ. eigenvalues --  -19.72508 -10.70455 -10.65956 -10.64657  -1.20548
 Alpha  occ. eigenvalues --   -0.92749  -0.76050  -0.66819  -0.57383  -0.56539
 Alpha  occ. eigenvalues --   -0.50858  -0.47157  -0.46304  -0.34703  -0.33306
 Alpha virt. eigenvalues --   -0.01774   0.05960   0.06918   0.08224   0.09679
 Alpha virt. eigenvalues --    0.12769   0.14191   0.15339   0.16930   0.19634
 Alpha virt. eigenvalues --    0.20008   0.22206   0.25080   0.26439   0.28668

 Mulliken charges:
               1
     1  C    0.164510
     2  O   -0.340853
     3  C   -0.045251
     4  C   -0.126057
     5  H    0.093002
     6  H    0.089828
     7  H    0.103676
     8  H    0.061146
 Sum of Mulliken charges =   0.00000

 Dipole moment (field-independent basis, Debye):
    X=             -3.3747    Y=             -0.7477    Z=              0.2379  Tot=              3.4647
 Quadrupole moment (field-independent basis, Debye-Ang):
   XX=            -27.3939   YY=            -21.7456   ZZ=            -25.1369
   XY=             -0.4602   XZ=             -0.2300   YZ=              0.2012

 Normal termination of Gaussian 09 at Wed Aug 26 10:58:36 2020.
