 Gaussian 09, Revision D.01,
 Gaussian 09:  ES64L-G09RevD.01 24-Apr-2013

 --------------------
 #p B2PLYPD3/Def2QZVP
 --------------------

 --------
 acrolein
 --------
 Symbolic Z-matrix:
 Charge =  0 Multiplicity = 1

                         Standard orientation:
 ---------------------------------------------------------------------
 Center     Atomic      Atomic             Coordinates (Angstroms)
 Number     Number       Type             X           Y           Z
 ---------------------------------------------------------------------
      1          6           0       -0.675828    0.356277    0.024541
      2          8           0       -1.766952   -0.135088   -0.030069
      3          6           0        0.552275   -0.427292    0.007400
      4          6           0        1.756874    0.127220   -0.027039
      5          1           0        0.430192   -1.531404    0.116029
      6          1           0        1.796923    1.217276   -0.040072
      7          1           0        2.656137   -0.418105    0.009701
      8          1           0       -0.547558    1.475705    0.125484
 ---------------------------------------------------------------------

 SCF Done:  E(RB2PLYPD3) =  -191.614680656     A.U. after   12 cycles
 E2(B2PLYPD3) =    -0.2466055133D+00 E(B2PLYPD3) =    -0.19186128616889D+03

 The electronic state is 1-A.
 Alpha  occ. eigenvalues --  -19.72842 -10.71592 -10.65028 -10.64347  -1.20419
 Alpha  occ. eigenvalues --   -0.93075  -0.75594  -0.66219  -0.56998  -0.56432
 Alpha  occ. eigenvalues --   -0.51082  -0.47446  -0.45946  -0.34755  -0.33876
 Alpha virt. eigenvalues --   -0.01584   0.05879   0.06943   0.08492   0.09813
 Alpha virt. eigenvalues --    0.12481   0.14102   0.15324   0.17299   0.19579
 Alpha virt. eigenvalues --    0.20026   0.21775   0.25526   0.26544   0.29102

 Mulliken charges:
               1
     1  C    0.155176
     2  O   -0.338045
     3  C   -0.035566
     4  C   -0.130439
     5  H    0.098306
     6  H    0.078175
     7  H    0.108666
     8  H    0.063727
 Sum of Mulliken charges =   0.00000

 Dipole moment (field-independent basis, Debye):
    X=              3.3613    Y=              0.7599    Z=              0.2104  Tot=              3.4525
 Quadrupole moment (field-independent basis, Debye-Ang):
   XX=            -27.1902   YY=            -21.8998   ZZ=            -25.1666
   XY=             -1.1329   XZ=             -0.1167   YZ=             -0.1644

 Normal termination of Gaussian 09 at Wed Aug 26 08:46:54 2020.
