 Gaussian 09, Revision D.01,
 Gaussian 09:  ES64L-G09RevD.01 24-Apr-2013

 --------------------
 #p B2PLYPD3/Def2QZVP
 --------------------

 --------
 acrolein
 --------
 Symbolic Z-matrix:
 Charge =  0 Multiplicity = 1

                         Standard orientation:
 ---------------------------------------------------------------------
 Center     Atomic      Atomic             Coordinates (Angstroms)
 Number     Number       Type             X           Y           Z
 ---------------------------------------------------------------------
      1          6           0       -0.697566    0.390057    0.029493
      2          8           0       -1.753059   -0.148083   -0.046326
      3          6           0        0.554959   -0.430573   -0.005162
      4          6           0        1.770614    0.139859    0.004132
      5          1           0        0.413105   -1.593634    0.190578
      6          1           0        1.804569    1.188478   -0.191143
      7          1           0        2.610305   -0.444624   -0.054129
      8          1           0       -0.571552    1.438384    0.254527
 ---------------------------------------------------------------------

 SCF Done:  E(RB2PLYPD3) =  -191.602014723     A.U. after   14 cycles
 E2(B2PLYPD3) =    -0.2465916523D+00 E(B2PLYPD3) =    -0.19184860637495D+03

 The electronic state is 1-A.
 Alpha  occ. eigenvalues --  -19.72926 -10.71397 -10.65133 -10.64138  -1.21187
 Alpha  occ. eigenvalues --   -0.92025  -0.75293  -0.66381  -0.56828  -0.56529
 Alpha  occ. eigenvalues --   -0.51237  -0.47630  -0.45352  -0.34391  -0.33747
 Alpha virt. eigenvalues --   -0.01258   0.06086   0.06610   0.07747   0.09761
 Alpha virt. eigenvalues --    0.12753   0.14052   0.15023   0.17381   0.19012
 Alpha virt. eigenvalues --    0.20342   0.22242   0.24119   0.27164   0.28292

 Mulliken charges:
               1
     1  C    0.160318
     2  O   -0.327419
     3  C   -0.062631
     4  C   -0.132798
     5  H    0.095328
     6  H    0.077337
     7  H    0.104725
     8  H    0.085141
 Sum of Mulliken charges =   0.00000

 Dipole moment (field-independent basis, Debye):
    X=              3.0450    Y=              0.9276    Z=              0.1741  Tot=              3.1879
 Quadrupole moment (field-independent basis, Debye-Ang):
   XX=            -27.5017   YY=            -21.6309   ZZ=            -25.1668
   XY=             -1.2661   XZ=             -0.5840   YZ=             -0.3713

 Normal termination of Gaussian 09 at Wed Aug 26 13:17:16 2020.
