 Gaussian 09, Revision D.01,
 Gaussian 09:  ES64L-G09RevD.01 24-Apr-2013

 --------------------
 #p B2PLYPD3/Def2QZVP
 --------------------

 --------
 acrolein
 --------
 Symbolic Z-matrix:
 Charge =  0 Multiplicity = 1

                         Standard orientation:
 ---------------------------------------------------------------------
 Center     Atomic      Atomic             Coordinates (Angstroms)
 Number     Number       Type             X           Y           Z
 ---------------------------------------------------------------------
      1          6           0        0.679262    0.352014    0.009993
      2          8           0        1.784488   -0.133763   -0.007853
      3          6           0       -0.544156   -0.414413   -0.012628
      4          6           0       -1.771832    0.125668    0.000912
      5          1           0       -0.442395   -1.484607    0.066713
      6          1           0       -1.782610    1.182937   -0.009572
      7          1           0       -2.725289   -0.440655   -0.013778
      8          1           0        0.494748    1.432811    0.029801
 ---------------------------------------------------------------------

 SCF Done:  E(RB2PLYPD3) =  -191.612962976     A.U. after   13 cycles
 E2(B2PLYPD3) =    -0.2472607644D+00 E(B2PLYPD3) =    -0.19186022374041D+03

 The electronic state is 1-A.
 Alpha  occ. eigenvalues --  -19.72937 -10.71401 -10.65717 -10.64033  -1.19841
 Alpha  occ. eigenvalues --   -0.93200  -0.76051  -0.67193  -0.56626  -0.56546
 Alpha  occ. eigenvalues --   -0.50994  -0.47197  -0.46238  -0.34566  -0.34081
 Alpha virt. eigenvalues --   -0.02160   0.05729   0.07211   0.08526   0.09813
 Alpha virt. eigenvalues --    0.12515   0.13872   0.15331   0.17728   0.19809
 Alpha virt. eigenvalues --    0.19901   0.21400   0.25582   0.26467   0.29031

 Mulliken charges:
               1
     1  C    0.151468
     2  O   -0.346237
     3  C   -0.024204
     4  C   -0.135959
     5  H    0.099359
     6  H    0.078946
     7  H    0.110078
     8  H    0.066548
 Sum of Mulliken charges =   0.00000

 Dipole moment (field-independent basis, Debye):
    X=             -3.5072    Y=              0.7817    Z=              0.0791  Tot=              3.5942
 Quadrupole moment (field-independent basis, Debye-Ang):
   XX=            -27.1023   YY=            -22.0477   ZZ=            -25.1698
   XY=              1.1699   XZ=              0.0441   YZ=             -0.0930

 Normal termination of Gaussian 09 at Wed Aug 26 09:16:05 2020.
