 Gaussian 09, Revision D.01,
 Gaussian 09:  ES64L-G09RevD.01 24-Apr-2013

 --------------------
 #p B2PLYPD3/Def2QZVP
 --------------------

 --------
 acrolein
 --------
 Symbolic Z-matrix:
 Charge =  0 Multiplicity = 1

                         Standard orientation:
 ---------------------------------------------------------------------
 Center     Atomic      Atomic             Coordinates (Angstroms)
 Number     Number       Type             X           Y           Z
 ---------------------------------------------------------------------
      1          6           0        0.669748    0.343743   -0.049943
      2          8           0        1.766928   -0.147088    0.063596
      3          6           0       -0.512416   -0.395050   -0.065805
      4          6           0       -1.747401    0.128030    0.040567
      5          1           0       -0.442033   -1.437407   -0.180266
      6          1           0       -1.717348    1.066212   -0.105765
      7          1           0       -2.873373   -0.466662    0.252644
      8          1           0        0.437741    1.554220   -0.024290
 ---------------------------------------------------------------------

 SCF Done:  E(RB2PLYPD3) =  -191.557636481     A.U. after   14 cycles
 E2(B2PLYPD3) =    -0.2498229786D+00 E(B2PLYPD3) =    -0.19180745945935D+03

 The electronic state is 1-A.
 Alpha  occ. eigenvalues --  -19.73213 -10.72365 -10.66575 -10.63741  -1.20151
 Alpha  occ. eigenvalues --   -0.94451  -0.76487  -0.66907  -0.56569  -0.55508
 Alpha  occ. eigenvalues --   -0.49464  -0.48255  -0.46071  -0.34372  -0.33905
 Alpha virt. eigenvalues --   -0.02734   0.04791   0.06627   0.08559   0.09743
 Alpha virt. eigenvalues --    0.11824   0.13488   0.15083   0.17457   0.19384
 Alpha virt. eigenvalues --    0.20364   0.21448   0.24691   0.26145   0.28551

 Mulliken charges:
               1
     1  C    0.151581
     2  O   -0.338953
     3  C    0.001744
     4  C   -0.146908
     5  H    0.098611
     6  H    0.097554
     7  H    0.111895
     8  H    0.024477
 Sum of Mulliken charges =   0.00000

 Dipole moment (field-independent basis, Debye):
    X=             -3.6227    Y=              0.5969    Z=             -0.2218  Tot=              3.6782
 Quadrupole moment (field-independent basis, Debye-Ang):
   XX=            -26.5449   YY=            -22.6356   ZZ=            -25.1530
   XY=              1.1809   XZ=             -0.7086   YZ=             -0.0608

 Normal termination of Gaussian 09 at Wed Aug 26 13:06:12 2020.
