 Gaussian 09, Revision D.01,
 Gaussian 09:  ES64L-G09RevD.01 24-Apr-2013

 --------------------
 #p B2PLYPD3/Def2QZVP
 --------------------

 --------
 acrolein
 --------
 Symbolic Z-matrix:
 Charge =  0 Multiplicity = 1

                         Standard orientation:
 ---------------------------------------------------------------------
 Center     Atomic      Atomic             Coordinates (Angstroms)
 Number     Number       Type             X           Y           Z
 ---------------------------------------------------------------------
      1          6           0        0.676661    0.359395    0.001198
      2          8           0        1.744775   -0.160152    0.034568
      3          6           0       -0.557874   -0.416090   -0.057313
      4          6           0       -1.733052    0.133446    0.002080
      5          1           0       -0.492058   -1.384571   -0.102286
      6          1           0       -1.725224    1.182782    0.004589
      7          1           0       -2.670761   -0.456805    0.240234
      8          1           0        0.615439    1.479304   -0.094878
 ---------------------------------------------------------------------

 SCF Done:  E(RB2PLYPD3) =  -191.598715326     A.U. after   13 cycles
 E2(B2PLYPD3) =    -0.2450946805D+00 E(B2PLYPD3) =    -0.19184381000662D+03

 The electronic state is 1-A.
 Alpha  occ. eigenvalues --  -19.72678 -10.71328 -10.64594 -10.62217  -1.21022
 Alpha  occ. eigenvalues --   -0.94117  -0.74757  -0.68311  -0.57760  -0.56152
 Alpha  occ. eigenvalues --   -0.50792  -0.48043  -0.46954  -0.35098  -0.33624
 Alpha virt. eigenvalues --   -0.01081   0.05867   0.07358   0.08458   0.09920
 Alpha virt. eigenvalues --    0.12390   0.13844   0.15425   0.18141   0.19316
 Alpha virt. eigenvalues --    0.19892   0.21655   0.25782   0.26216   0.29184

 Mulliken charges:
               1
     1  C    0.142263
     2  O   -0.334070
     3  C   -0.039212
     4  C   -0.125460
     5  H    0.112710
     6  H    0.077406
     7  H    0.098374
     8  H    0.067990
 Sum of Mulliken charges =   0.00000

 Dipole moment (field-independent basis, Debye):
    X=             -3.1844    Y=              0.7825    Z=              0.0262  Tot=              3.2793
 Quadrupole moment (field-independent basis, Debye-Ang):
   XX=            -27.2818   YY=            -21.9158   ZZ=            -24.8465
   XY=              1.5443   XZ=             -0.7383   YZ=             -0.0717

 Normal termination of Gaussian 09 at Wed Aug 26 12:31:01 2020.
