 Gaussian 09, Revision D.01,
 Gaussian 09:  ES64L-G09RevD.01 24-Apr-2013

 --------------------
 #p B2PLYPD3/Def2QZVP
 --------------------

 --------
 acrolein
 --------
 Symbolic Z-matrix:
 Charge =  0 Multiplicity = 1

                         Standard orientation:
 ---------------------------------------------------------------------
 Center     Atomic      Atomic             Coordinates (Angstroms)
 Number     Number       Type             X           Y           Z
 ---------------------------------------------------------------------
      1          6           0        0.654502    0.341636    0.002796
      2          8           0        1.795502   -0.100340   -0.021136
      3          6           0       -0.566053   -0.481463    0.061061
      4          6           0       -1.728028    0.142112   -0.035634
      5          1           0       -0.379614   -1.567446    0.004710
      6          1           0       -1.987775    1.315732    0.087834
      7          1           0       -2.681191   -0.441732   -0.110939
      8          1           0        0.522040    1.482449    0.018138
 ---------------------------------------------------------------------

 SCF Done:  E(RB2PLYPD3) =  -191.598737051     A.U. after   13 cycles
 E2(B2PLYPD3) =    -0.2491792336D+00 E(B2PLYPD3) =    -0.19184791628492D+03

 The electronic state is 1-A.
 Alpha  occ. eigenvalues --  -19.72659 -10.71948 -10.67217 -10.65142  -1.18598
 Alpha  occ. eigenvalues --   -0.93062  -0.74461  -0.65767  -0.56454  -0.55008
 Alpha  occ. eigenvalues --   -0.50176  -0.46347  -0.45176  -0.35017  -0.33507
 Alpha virt. eigenvalues --   -0.01738   0.05187   0.06748   0.07768   0.09462
 Alpha virt. eigenvalues --    0.11929   0.13871   0.15215   0.17233   0.19186
 Alpha virt. eigenvalues --    0.19939   0.21338   0.24613   0.26557   0.28038

 Mulliken charges:
               1
     1  C    0.163426
     2  O   -0.356492
     3  C   -0.050134
     4  C   -0.112372
     5  H    0.114258
     6  H    0.088556
     7  H    0.089880
     8  H    0.062877
 Sum of Mulliken charges =   0.00000

 Dipole moment (field-independent basis, Debye):
    X=             -3.6239    Y=              0.6590    Z=              0.0419  Tot=              3.6836
 Quadrupole moment (field-independent basis, Debye-Ang):
   XX=            -27.6228   YY=            -21.6302   ZZ=            -25.4300
   XY=              0.4252   XZ=              0.2109   YZ=              0.2072

 Normal termination of Gaussian 09 at Wed Aug 26 12:07:29 2020.
