 Gaussian 09, Revision D.01,
 Gaussian 09:  ES64L-G09RevD.01 24-Apr-2013

 --------------------
 #p B2PLYPD3/Def2QZVP
 --------------------

 --------
 acrolein
 --------
 Symbolic Z-matrix:
 Charge =  0 Multiplicity = 1

                         Standard orientation:
 ---------------------------------------------------------------------
 Center     Atomic      Atomic             Coordinates (Angstroms)
 Number     Number       Type             X           Y           Z
 ---------------------------------------------------------------------
      1          6           0       -0.673243    0.369733   -0.056045
      2          8           0       -1.777380   -0.143158    0.036031
      3          6           0        0.559182   -0.436718   -0.006936
      4          6           0        1.744659    0.140060    0.024910
      5          1           0        0.478973   -1.485971   -0.050977
      6          1           0        1.759245    1.123278    0.106651
      7          1           0        2.672715   -0.412555   -0.053897
      8          1           0       -0.475478    1.482058   -0.061601
 ---------------------------------------------------------------------

 SCF Done:  E(RB2PLYPD3) =  -191.606022530     A.U. after   13 cycles
 E2(B2PLYPD3) =    -0.2471437562D+00 E(B2PLYPD3) =    -0.19185316628596D+03

 The electronic state is 1-A.
 Alpha  occ. eigenvalues --  -19.73109 -10.72193 -10.63947 -10.63609  -1.19115
 Alpha  occ. eigenvalues --   -0.93715  -0.75653  -0.67759  -0.57160  -0.56384
 Alpha  occ. eigenvalues --   -0.50662  -0.47577  -0.46594  -0.34788  -0.33949
 Alpha virt. eigenvalues --   -0.01732   0.05881   0.07206   0.07934   0.09913
 Alpha virt. eigenvalues --    0.12749   0.13946   0.15355   0.17469   0.19799
 Alpha virt. eigenvalues --    0.20365   0.21811   0.25469   0.26476   0.29023

 Mulliken charges:
               1
     1  C    0.149017
     2  O   -0.348848
     3  C   -0.026892
     4  C   -0.137683
     5  H    0.105274
     6  H    0.084267
     7  H    0.101338
     8  H    0.073527
 Sum of Mulliken charges =   0.00000

 Dipole moment (field-independent basis, Debye):
    X=              3.4269    Y=              0.8376    Z=             -0.1673  Tot=              3.5317
 Quadrupole moment (field-independent basis, Debye-Ang):
   XX=            -27.4352   YY=            -21.7745   ZZ=            -25.0553
   XY=             -1.1309   XZ=              0.1483   YZ=              0.1908

 Normal termination of Gaussian 09 at Wed Aug 26 09:45:43 2020.
