 Gaussian 09, Revision D.01,
 Gaussian 09:  ES64L-G09RevD.01 24-Apr-2013

 --------------------
 #p B2PLYPD3/Def2QZVP
 --------------------

 --------
 acrolein
 --------
 Symbolic Z-matrix:
 Charge =  0 Multiplicity = 1

                         Standard orientation:
 ---------------------------------------------------------------------
 Center     Atomic      Atomic             Coordinates (Angstroms)
 Number     Number       Type             X           Y           Z
 ---------------------------------------------------------------------
      1          6           0        0.675984    0.340496    0.009800
      2          8           0        1.797720   -0.116869   -0.029972
      3          6           0       -0.575277   -0.450723    0.020644
      4          6           0       -1.744997    0.141985   -0.008461
      5          1           0       -0.502919   -1.481281    0.079455
      6          1           0       -1.819247    1.234341   -0.114412
      7          1           0       -2.682808   -0.392996   -0.042861
      8          1           0        0.488950    1.384338    0.185696
 ---------------------------------------------------------------------

 SCF Done:  E(RB2PLYPD3) =  -191.613309423     A.U. after   12 cycles
 E2(B2PLYPD3) =    -0.2464850720D+00 E(B2PLYPD3) =    -0.19185979449451D+03

 The electronic state is 1-A.
 Alpha  occ. eigenvalues --  -19.72987 -10.71459 -10.65149 -10.63596  -1.19482
 Alpha  occ. eigenvalues --   -0.93562  -0.75498  -0.67829  -0.56757  -0.56554
 Alpha  occ. eigenvalues --   -0.51157  -0.46920  -0.46502  -0.35126  -0.33879
 Alpha virt. eigenvalues --   -0.01521   0.05782   0.07375   0.08028   0.09658
 Alpha virt. eigenvalues --    0.12751   0.14170   0.15287   0.17889   0.19249
 Alpha virt. eigenvalues --    0.20211   0.21430   0.25115   0.26946   0.28658

 Mulliken charges:
               1
     1  C    0.154045
     2  O   -0.347628
     3  C   -0.042369
     4  C   -0.123882
     5  H    0.106762
     6  H    0.076001
     7  H    0.098508
     8  H    0.078564
 Sum of Mulliken charges =   0.00000

 Dipole moment (field-independent basis, Debye):
    X=             -3.4757    Y=              0.7374    Z=              0.0830  Tot=              3.5540
 Quadrupole moment (field-independent basis, Debye-Ang):
   XX=            -27.4572   YY=            -21.8575   ZZ=            -25.0384
   XY=              0.9410   XZ=              0.3977   YZ=             -0.1487

 Normal termination of Gaussian 09 at Wed Aug 26 09:31:37 2020.
