 Gaussian 09, Revision D.01,
 Gaussian 09:  ES64L-G09RevD.01 24-Apr-2013

 --------------------
 #p B2PLYPD3/Def2QZVP
 --------------------

 --------
 acrolein
 --------
 Symbolic Z-matrix:
 Charge =  0 Multiplicity = 1

                         Standard orientation:
 ---------------------------------------------------------------------
 Center     Atomic      Atomic             Coordinates (Angstroms)
 Number     Number       Type             X           Y           Z
 ---------------------------------------------------------------------
      1          6           0        0.675969    0.379012    0.015162
      2          8           0        1.776798   -0.145306   -0.028197
      3          6           0       -0.560544   -0.441309    0.017685
      4          6           0       -1.740842    0.140446   -0.041455
      5          1           0       -0.479253   -1.483538    0.102851
      6          1           0       -1.776753    1.135616   -0.047964
      7          1           0       -2.669757   -0.425880    0.055298
      8          1           0        0.463880    1.467357    0.167040
 ---------------------------------------------------------------------

 SCF Done:  E(RB2PLYPD3) =  -191.607107970     A.U. after   12 cycles
 E2(B2PLYPD3) =    -0.2470869565D+00 E(B2PLYPD3) =    -0.19185419492627D+03

 The electronic state is 1-A.
 Alpha  occ. eigenvalues --  -19.73158 -10.72194 -10.63972 -10.63560  -1.19188
 Alpha  occ. eigenvalues --   -0.93542  -0.75409  -0.67905  -0.57041  -0.56246
 Alpha  occ. eigenvalues --   -0.50779  -0.47620  -0.46377  -0.34762  -0.34001
 Alpha virt. eigenvalues --   -0.01534   0.05870   0.07041   0.07967   0.09889
 Alpha virt. eigenvalues --    0.12778   0.13920   0.15341   0.17631   0.19593
 Alpha virt. eigenvalues --    0.20347   0.21767   0.25351   0.26739   0.28670

 Mulliken charges:
               1
     1  C    0.148943
     2  O   -0.347747
     3  C   -0.034262
     4  C   -0.133540
     5  H    0.108066
     6  H    0.081560
     7  H    0.096408
     8  H    0.080572
 Sum of Mulliken charges =   0.00000

 Dipole moment (field-independent basis, Debye):
    X=             -3.3685    Y=              0.8675    Z=              0.2412  Tot=              3.4868
 Quadrupole moment (field-independent basis, Debye-Ang):
   XX=            -27.5733   YY=            -21.6993   ZZ=            -25.0634
   XY=              1.0966   XZ=              0.0041   YZ=             -0.1376

 Normal termination of Gaussian 09 at Wed Aug 26 10:01:18 2020.
