 Gaussian 09, Revision D.01,
 Gaussian 09:  ES64L-G09RevD.01 24-Apr-2013

 --------------------
 #p B2PLYPD3/Def2QZVP
 --------------------

 --------
 acrolein
 --------
 Symbolic Z-matrix:
 Charge =  0 Multiplicity = 1

                         Standard orientation:
 ---------------------------------------------------------------------
 Center     Atomic      Atomic             Coordinates (Angstroms)
 Number     Number       Type             X           Y           Z
 ---------------------------------------------------------------------
      1          6           0        0.656920   -0.327377    0.017138
      2          8           0        1.794835    0.091365    0.008056
      3          6           0       -0.571564    0.462227   -0.031239
      4          6           0       -1.743242   -0.154080   -0.002356
      5          1           0       -0.421960    1.588228   -0.013179
      6          1           0       -1.841960   -1.268687   -0.008208
      7          1           0       -2.661323    0.388683    0.114728
      8          1           0        0.513878   -1.323764   -0.059043
 ---------------------------------------------------------------------

 SCF Done:  E(RB2PLYPD3) =  -191.606217945     A.U. after   12 cycles
 E2(B2PLYPD3) =    -0.2468598797D+00 E(B2PLYPD3) =    -0.19185307782518D+03

 The electronic state is 1-A.
 Alpha  occ. eigenvalues --  -19.72463 -10.70271 -10.65837 -10.64853  -1.19161
 Alpha  occ. eigenvalues --   -0.93381  -0.76070  -0.67584  -0.56869  -0.56201
 Alpha  occ. eigenvalues --   -0.50637  -0.46696  -0.46194  -0.34939  -0.33722
 Alpha virt. eigenvalues --   -0.01789   0.05661   0.07057   0.08243   0.09630
 Alpha virt. eigenvalues --    0.12663   0.14220   0.15255   0.17348   0.19592
 Alpha virt. eigenvalues --    0.19904   0.21702   0.25350   0.26906   0.28653

 Mulliken charges:
               1
     1  C    0.162645
     2  O   -0.357433
     3  C   -0.036891
     4  C   -0.127514
     5  H    0.098936
     6  H    0.083344
     7  H    0.102874
     8  H    0.074039
 Sum of Mulliken charges =   0.00000

 Dipole moment (field-independent basis, Debye):
    X=             -3.5984    Y=             -0.7424    Z=              0.0610  Tot=              3.6747
 Quadrupole moment (field-independent basis, Debye-Ang):
   XX=            -27.6122   YY=            -21.6481   ZZ=            -25.1246
   XY=             -0.6553   XZ=             -0.3320   YZ=              0.0877

 Normal termination of Gaussian 09 at Wed Aug 26 21:05:49 2020.
