 Gaussian 09, Revision D.01,
 Gaussian 09:  ES64L-G09RevD.01 24-Apr-2013

 --------------------
 #p B2PLYPD3/Def2QZVP
 --------------------

 --------
 acrolein
 --------
 Symbolic Z-matrix:
 Charge =  0 Multiplicity = 1

                         Standard orientation:
 ---------------------------------------------------------------------
 Center     Atomic      Atomic             Coordinates (Angstroms)
 Number     Number       Type             X           Y           Z
 ---------------------------------------------------------------------
      1          6           0       -0.670592    0.326556    0.035998
      2          8           0       -1.786530   -0.096524   -0.039897
      3          6           0        0.563533   -0.481609    0.035183
      4          6           0        1.748690    0.147742   -0.037667
      5          1           0        0.437916   -1.521837    0.088295
      6          1           0        1.858624    1.326334    0.021027
      7          1           0        2.653733   -0.402451   -0.070352
      8          1           0       -0.507821    1.414019    0.079125
 ---------------------------------------------------------------------

 SCF Done:  E(RB2PLYPD3) =  -191.609078832     A.U. after   13 cycles
 E2(B2PLYPD3) =    -0.2469268925D+00 E(B2PLYPD3) =    -0.19185600572464D+03

 The electronic state is 1-A.
 Alpha  occ. eigenvalues --  -19.72637 -10.71136 -10.66447 -10.64387  -1.20291
 Alpha  occ. eigenvalues --   -0.92689  -0.75055  -0.67027  -0.56710  -0.55783
 Alpha  occ. eigenvalues --   -0.50866  -0.47246  -0.46598  -0.34607  -0.33565
 Alpha virt. eigenvalues --   -0.01563   0.05549   0.07210   0.08287   0.09616
 Alpha virt. eigenvalues --    0.12375   0.14011   0.15332   0.17714   0.19276
 Alpha virt. eigenvalues --    0.19988   0.21445   0.25158   0.26608   0.28748

 Mulliken charges:
               1
     1  C    0.160318
     2  O   -0.341798
     3  C   -0.047294
     4  C   -0.126539
     5  H    0.107918
     6  H    0.082385
     7  H    0.102569
     8  H    0.062439
 Sum of Mulliken charges =   0.00000

 Dipole moment (field-independent basis, Debye):
    X=              3.4574    Y=              0.6156    Z=              0.1908  Tot=              3.5170
 Quadrupole moment (field-independent basis, Debye-Ang):
   XX=            -27.4518   YY=            -21.7019   ZZ=            -25.2596
   XY=             -0.7129   XZ=             -0.2907   YZ=             -0.0223

 Normal termination of Gaussian 09 at Wed Aug 26 09:25:13 2020.
