 Gaussian 09, Revision D.01,
 Gaussian 09:  ES64L-G09RevD.01 24-Apr-2013

 --------------------
 #p B2PLYPD3/Def2QZVP
 --------------------

 --------
 acrolein
 --------
 Symbolic Z-matrix:
 Charge =  0 Multiplicity = 1

                         Standard orientation:
 ---------------------------------------------------------------------
 Center     Atomic      Atomic             Coordinates (Angstroms)
 Number     Number       Type             X           Y           Z
 ---------------------------------------------------------------------
      1          6           0       -0.695442    0.402167    0.008174
      2          8           0       -1.762890   -0.163154   -0.029128
      3          6           0        0.542090   -0.419104    0.041115
      4          6           0        1.798890    0.122046   -0.048636
      5          1           0        0.360680   -1.511002    0.053568
      6          1           0        1.794929    1.144627   -0.042942
      7          1           0        2.618971   -0.480310    0.060466
      8          1           0       -0.544693    1.521264    0.158025
 ---------------------------------------------------------------------

 SCF Done:  E(RB2PLYPD3) =  -191.603192798     A.U. after   13 cycles
 E2(B2PLYPD3) =    -0.2481554264D+00 E(B2PLYPD3) =    -0.19185134822431D+03

 The electronic state is 1-A.
 Alpha  occ. eigenvalues --  -19.73161 -10.72228 -10.64817 -10.64397  -1.20032
 Alpha  occ. eigenvalues --   -0.91988  -0.75737  -0.66540  -0.57509  -0.55897
 Alpha  occ. eigenvalues --   -0.51035  -0.47239  -0.46479  -0.34043  -0.33761
 Alpha virt. eigenvalues --   -0.02086   0.05945   0.06988   0.07916   0.10013
 Alpha virt. eigenvalues --    0.12461   0.13675   0.15438   0.17281   0.19463
 Alpha virt. eigenvalues --    0.20064   0.22211   0.25150   0.26353   0.28897

 Mulliken charges:
               1
     1  C    0.162966
     2  O   -0.341028
     3  C   -0.051922
     4  C   -0.140987
     5  H    0.104113
     6  H    0.083435
     7  H    0.110850
     8  H    0.072573
 Sum of Mulliken charges =   0.00000

 Dipole moment (field-independent basis, Debye):
    X=              3.1886    Y=              0.9130    Z=              0.1894  Tot=              3.3221
 Quadrupole moment (field-independent basis, Debye-Ang):
   XX=            -27.4667   YY=            -21.6498   ZZ=            -25.3187
   XY=             -1.3094   XZ=             -0.0338   YZ=             -0.0619

 Normal termination of Gaussian 09 at Wed Aug 26 10:25:39 2020.
