 Gaussian 09, Revision D.01,
 Gaussian 09:  ES64L-G09RevD.01 24-Apr-2013

 --------------------
 #p B2PLYPD3/Def2QZVP
 --------------------

 --------
 acrolein
 --------
 Symbolic Z-matrix:
 Charge =  0 Multiplicity = 1

                         Standard orientation:
 ---------------------------------------------------------------------
 Center     Atomic      Atomic             Coordinates (Angstroms)
 Number     Number       Type             X           Y           Z
 ---------------------------------------------------------------------
      1          6           0        0.696723    0.328415   -0.084677
      2          8           0        1.794567   -0.098210    0.078915
      3          6           0       -0.573103   -0.508292   -0.065337
      4          6           0       -1.768674    0.166097    0.032225
      5          1           0       -0.489390   -1.566413   -0.098395
      6          1           0       -1.912639    1.254061    0.042692
      7          1           0       -2.620183   -0.332996    0.221291
      8          1           0        0.535997    1.513703   -0.090174
 ---------------------------------------------------------------------

 SCF Done:  E(RB2PLYPD3) =  -191.600645035     A.U. after   13 cycles
 E2(B2PLYPD3) =    -0.2477694282D+00 E(B2PLYPD3) =    -0.19184841446316D+03

 The electronic state is 1-A.
 Alpha  occ. eigenvalues --  -19.73068 -10.72507 -10.65553 -10.65279  -1.20968
 Alpha  occ. eigenvalues --   -0.91622  -0.75074  -0.66113  -0.56740  -0.55799
 Alpha  occ. eigenvalues --   -0.50681  -0.48149  -0.47187  -0.34005  -0.33306
 Alpha virt. eigenvalues --   -0.01593   0.05856   0.07192   0.07620   0.09481
 Alpha virt. eigenvalues --    0.12574   0.14162   0.15371   0.17441   0.19693
 Alpha virt. eigenvalues --    0.19799   0.21848   0.24434   0.26458   0.28239

 Mulliken charges:
               1
     1  C    0.165654
     2  O   -0.324513
     3  C   -0.059589
     4  C   -0.124728
     5  H    0.109723
     6  H    0.086064
     7  H    0.098540
     8  H    0.048848
 Sum of Mulliken charges =   0.00000

 Dipole moment (field-independent basis, Debye):
    X=             -3.3380    Y=              0.5653    Z=             -0.1408  Tot=              3.3885
 Quadrupole moment (field-independent basis, Debye-Ang):
   XX=            -27.2055   YY=            -21.7458   ZZ=            -25.3728
   XY=              0.5229   XZ=             -0.9514   YZ=              0.0789

 Normal termination of Gaussian 09 at Wed Aug 26 11:34:30 2020.
