 Gaussian 09, Revision D.01,
 Gaussian 09:  ES64L-G09RevD.01 24-Apr-2013

 --------------------
 #p B2PLYPD3/Def2QZVP
 --------------------

 --------
 acrolein
 --------
 Symbolic Z-matrix:
 Charge =  0 Multiplicity = 1

                         Standard orientation:
 ---------------------------------------------------------------------
 Center     Atomic      Atomic             Coordinates (Angstroms)
 Number     Number       Type             X           Y           Z
 ---------------------------------------------------------------------
      1          6           0        0.651728    0.346419    0.069928
      2          8           0        1.812952   -0.095631   -0.070772
      3          6           0       -0.593183   -0.527607    0.018090
      4          6           0       -1.735258    0.179735   -0.013472
      5          1           0       -0.512856   -1.548951    0.172211
      6          1           0       -1.818544    1.342578   -0.205155
      7          1           0       -2.539406   -0.422687   -0.110369
      8          1           0        0.427470    1.402829    0.262211
 ---------------------------------------------------------------------

 SCF Done:  E(RB2PLYPD3) =  -191.590664808     A.U. after   13 cycles
 E2(B2PLYPD3) =    -0.2501467449D+00 E(B2PLYPD3) =    -0.19184081155322D+03

 The electronic state is 1-A.
 Alpha  occ. eigenvalues --  -19.72926 -10.72346 -10.65626 -10.64810  -1.17042
 Alpha  occ. eigenvalues --   -0.93047  -0.75030  -0.67579  -0.56655  -0.54808
 Alpha  occ. eigenvalues --   -0.50363  -0.47411  -0.45011  -0.34635  -0.33597
 Alpha virt. eigenvalues --   -0.01783   0.05484   0.06344   0.07210   0.09574
 Alpha virt. eigenvalues --    0.12708   0.13671   0.14814   0.17688   0.18991
 Alpha virt. eigenvalues --    0.20019   0.21716   0.23769   0.27224   0.27774

 Mulliken charges:
               1
     1  C    0.156931
     2  O   -0.364472
     3  C   -0.058741
     4  C   -0.120119
     5  H    0.113489
     6  H    0.087220
     7  H    0.094463
     8  H    0.091229
 Sum of Mulliken charges =   0.00000

 Dipole moment (field-independent basis, Debye):
    X=             -3.6026    Y=              0.6965    Z=              0.2439  Tot=              3.6774
 Quadrupole moment (field-independent basis, Debye-Ang):
   XX=            -28.6528   YY=            -21.1058   ZZ=            -25.2989
   XY=              0.6980   XZ=              0.8304   YZ=             -0.3389

 Normal termination of Gaussian 09 at Wed Aug 26 11:49:21 2020.
