 Gaussian 09, Revision D.01,
 Gaussian 09:  ES64L-G09RevD.01 24-Apr-2013

 --------------------
 #p B2PLYPD3/Def2QZVP
 --------------------

 --------
 acrolein
 --------
 Symbolic Z-matrix:
 Charge =  0 Multiplicity = 1

                         Standard orientation:
 ---------------------------------------------------------------------
 Center     Atomic      Atomic             Coordinates (Angstroms)
 Number     Number       Type             X           Y           Z
 ---------------------------------------------------------------------
      1          6           0       -0.667427    0.340595    0.015906
      2          8           0       -1.787564   -0.112224   -0.017707
      3          6           0        0.567260   -0.457525   -0.001271
      4          6           0        1.754499    0.156531   -0.002785
      5          1           0        0.429953   -1.561433    0.066928
      6          1           0        1.794707    1.204612   -0.048923
      7          1           0        2.673727   -0.403214   -0.021679
      8          1           0       -0.523871    1.420230    0.074229
 ---------------------------------------------------------------------

 SCF Done:  E(RB2PLYPD3) =  -191.615437084     A.U. after   12 cycles
 E2(B2PLYPD3) =    -0.2469513339D+00 E(B2PLYPD3) =    -0.19186238841826D+03

 The electronic state is 1-A.
 Alpha  occ. eigenvalues --  -19.72693 -10.71291 -10.65185 -10.64771  -1.19556
 Alpha  occ. eigenvalues --   -0.93058  -0.75593  -0.67007  -0.56826  -0.56398
 Alpha  occ. eigenvalues --   -0.50518  -0.47243  -0.46643  -0.34678  -0.33757
 Alpha virt. eigenvalues --   -0.01728   0.05848   0.07070   0.08180   0.09760
 Alpha virt. eigenvalues --    0.12701   0.14028   0.15271   0.17286   0.19833
 Alpha virt. eigenvalues --    0.20164   0.21663   0.25277   0.26579   0.28895

 Mulliken charges:
               1
     1  C    0.153039
     2  O   -0.348766
     3  C   -0.034145
     4  C   -0.134214
     5  H    0.101836
     6  H    0.088734
     7  H    0.104408
     8  H    0.069107
 Sum of Mulliken charges =   0.00000

 Dipole moment (field-independent basis, Debye):
    X=              3.4909    Y=              0.7444    Z=              0.0819  Tot=              3.5703
 Quadrupole moment (field-independent basis, Debye-Ang):
   XX=            -27.4902   YY=            -21.7090   ZZ=            -25.1929
   XY=             -0.8758   XZ=             -0.1869   YZ=             -0.1239

 Normal termination of Gaussian 09 at Wed Aug 26 15:25:19 2020.
