 Gaussian 09, Revision D.01,
 Gaussian 09:  ES64L-G09RevD.01 24-Apr-2013

 --------------------
 #p B2PLYPD3/Def2QZVP
 --------------------

 --------
 acrolein
 --------
 Symbolic Z-matrix:
 Charge =  0 Multiplicity = 1

                         Standard orientation:
 ---------------------------------------------------------------------
 Center     Atomic      Atomic             Coordinates (Angstroms)
 Number     Number       Type             X           Y           Z
 ---------------------------------------------------------------------
      1          6           0       -0.675446    0.345413    0.025095
      2          8           0       -1.773227   -0.128857   -0.024952
      3          6           0        0.550550   -0.437758    0.003797
      4          6           0        1.753070    0.142863   -0.022799
      5          1           0        0.450053   -1.494909    0.087827
      6          1           0        1.782837    1.199534   -0.035635
      7          1           0        2.737721   -0.420434    0.018356
      8          1           0       -0.553838    1.443560    0.092508
 ---------------------------------------------------------------------

 SCF Done:  E(RB2PLYPD3) =  -191.614042752     A.U. after   13 cycles
 E2(B2PLYPD3) =    -0.2464884941D+00 E(B2PLYPD3) =    -0.19186053124591D+03

 The electronic state is 1-A.
 Alpha  occ. eigenvalues --  -19.72681 -10.71250 -10.65716 -10.64026  -1.20375
 Alpha  occ. eigenvalues --   -0.93064  -0.75224  -0.67265  -0.56973  -0.56144
 Alpha  occ. eigenvalues --   -0.50599  -0.47402  -0.46693  -0.34629  -0.33823
 Alpha virt. eigenvalues --   -0.01661   0.05740   0.07159   0.08466   0.09770
 Alpha virt. eigenvalues --    0.12451   0.14030   0.15351   0.17700   0.19755
 Alpha virt. eigenvalues --    0.20063   0.21224   0.25495   0.26401   0.29187

 Mulliken charges:
               1
     1  C    0.148592
     2  O   -0.340877
     3  C   -0.033254
     4  C   -0.132885
     5  H    0.105640
     6  H    0.084403
     7  H    0.101679
     8  H    0.066703
 Sum of Mulliken charges =   0.00000

 Dipole moment (field-independent basis, Debye):
    X=              3.4062    Y=              0.7591    Z=              0.1790  Tot=              3.4943
 Quadrupole moment (field-independent basis, Debye-Ang):
   XX=            -27.1800   YY=            -21.9003   ZZ=            -25.1677
   XY=             -1.1020   XZ=             -0.0776   YZ=             -0.1445

 Normal termination of Gaussian 09 at Wed Aug 26 20:27:25 2020.
