 Gaussian 09, Revision D.01,
 Gaussian 09:  ES64L-G09RevD.01 24-Apr-2013

 --------------------
 #p B2PLYPD3/Def2QZVP
 --------------------

 --------
 acrolein
 --------
 Symbolic Z-matrix:
 Charge =  0 Multiplicity = 1

                         Standard orientation:
 ---------------------------------------------------------------------
 Center     Atomic      Atomic             Coordinates (Angstroms)
 Number     Number       Type             X           Y           Z
 ---------------------------------------------------------------------
      1          6           0        0.666613    0.327194   -0.034314
      2          8           0        1.790417   -0.093047    0.041042
      3          6           0       -0.555632   -0.462513   -0.065392
      4          6           0       -1.756874    0.145513    0.020166
      5          1           0       -0.383290   -1.604827    0.035114
      6          1           0       -1.872380    1.243302    0.067072
      7          1           0       -2.678248   -0.385940    0.107359
      8          1           0        0.485938    1.430682   -0.060646
 ---------------------------------------------------------------------

 SCF Done:  E(RB2PLYPD3) =  -191.610349786     A.U. after   12 cycles
 E2(B2PLYPD3) =    -0.2477821239D+00 E(B2PLYPD3) =    -0.19185813191035D+03

 The electronic state is 1-A.
 Alpha  occ. eigenvalues --  -19.72731 -10.71354 -10.66183 -10.65499  -1.19947
 Alpha  occ. eigenvalues --   -0.92736  -0.75810  -0.65924  -0.56945  -0.55712
 Alpha  occ. eigenvalues --   -0.50561  -0.47085  -0.46202  -0.34634  -0.33658
 Alpha virt. eigenvalues --   -0.02059   0.05694   0.06849   0.08371   0.09673
 Alpha virt. eigenvalues --    0.12559   0.13941   0.15351   0.17063   0.19646
 Alpha virt. eigenvalues --    0.19981   0.21680   0.25004   0.26535   0.28551

 Mulliken charges:
               1
     1  C    0.161996
     2  O   -0.345155
     3  C   -0.035904
     4  C   -0.122934
     5  H    0.098205
     6  H    0.084847
     7  H    0.104484
     8  H    0.054460
 Sum of Mulliken charges =   0.00000

 Dipole moment (field-independent basis, Debye):
    X=             -3.5710    Y=              0.6572    Z=              0.0374  Tot=              3.6311
 Quadrupole moment (field-independent basis, Debye-Ang):
   XX=            -27.2247   YY=            -21.9093   ZZ=            -25.3103
   XY=              0.4887   XZ=             -0.6095   YZ=             -0.0764

 Normal termination of Gaussian 09 at Wed Aug 26 09:14:40 2020.
