 Gaussian 09, Revision D.01,
 Gaussian 09:  ES64L-G09RevD.01 24-Apr-2013

 --------------------
 #p B2PLYPD3/Def2QZVP
 --------------------

 --------
 acrolein
 --------
 Symbolic Z-matrix:
 Charge =  0 Multiplicity = 1

                         Standard orientation:
 ---------------------------------------------------------------------
 Center     Atomic      Atomic             Coordinates (Angstroms)
 Number     Number       Type             X           Y           Z
 ---------------------------------------------------------------------
      1          6           0       -0.671350    0.335159    0.022780
      2          8           0       -1.796110   -0.108721   -0.021594
      3          6           0        0.558828   -0.451964    0.024965
      4          6           0        1.762867    0.143945   -0.017095
      5          1           0        0.434661   -1.545068    0.005217
      6          1           0        1.861030    1.244445   -0.023971
      7          1           0        2.662332   -0.434021   -0.023890
      8          1           0       -0.491212    1.441570    0.031492
 ---------------------------------------------------------------------

 SCF Done:  E(RB2PLYPD3) =  -191.615650094     A.U. after   12 cycles
 E2(B2PLYPD3) =    -0.2476416560D+00 E(B2PLYPD3) =    -0.19186329175009D+03

 The electronic state is 1-A.
 Alpha  occ. eigenvalues --  -19.72849 -10.71605 -10.65951 -10.64779  -1.19539
 Alpha  occ. eigenvalues --   -0.92891  -0.75706  -0.66446  -0.56582  -0.56112
 Alpha  occ. eigenvalues --   -0.50542  -0.46898  -0.46824  -0.34626  -0.33782
 Alpha virt. eigenvalues --   -0.02034   0.05714   0.07048   0.08337   0.09713
 Alpha virt. eigenvalues --    0.12542   0.13900   0.15349   0.17377   0.19634
 Alpha virt. eigenvalues --    0.19981   0.21637   0.25346   0.26481   0.28606

 Mulliken charges:
               1
     1  C    0.159823
     2  O   -0.347821
     3  C   -0.035117
     4  C   -0.131177
     5  H    0.101366
     6  H    0.087128
     7  H    0.105932
     8  H    0.059865
 Sum of Mulliken charges =   0.00000

 Dipole moment (field-independent basis, Debye):
    X=              3.5616    Y=              0.6772    Z=              0.0454  Tot=              3.6257
 Quadrupole moment (field-independent basis, Debye-Ang):
   XX=            -27.4044   YY=            -21.8110   ZZ=            -25.2836
   XY=             -0.7764   XZ=             -0.2023   YZ=             -0.0010

 Normal termination of Gaussian 09 at Wed Aug 26 15:58:51 2020.
