 Gaussian 09, Revision D.01,
 Gaussian 09:  ES64L-G09RevD.01 24-Apr-2013

 --------------------
 #p B2PLYPD3/Def2QZVP
 --------------------

 --------
 acrolein
 --------
 Symbolic Z-matrix:
 Charge =  0 Multiplicity = 1

                         Standard orientation:
 ---------------------------------------------------------------------
 Center     Atomic      Atomic             Coordinates (Angstroms)
 Number     Number       Type             X           Y           Z
 ---------------------------------------------------------------------
      1          6           0       -0.683514    0.359306    0.025872
      2          8           0       -1.772541   -0.130381   -0.019119
      3          6           0        0.558294   -0.453319    0.009693
      4          6           0        1.752065    0.142706   -0.019073
      5          1           0        0.452091   -1.502544    0.015801
      6          1           0        1.813069    1.208054   -0.049911
      7          1           0        2.679402   -0.411530    0.041396
      8          1           0       -0.525299    1.456917    0.046709
 ---------------------------------------------------------------------

 SCF Done:  E(RB2PLYPD3) =  -191.616748365     A.U. after   12 cycles
 E2(B2PLYPD3) =    -0.2461534804D+00 E(B2PLYPD3) =    -0.19186290184550D+03

 The electronic state is 1-A.
 Alpha  occ. eigenvalues --  -19.72843 -10.71518 -10.65012 -10.63964  -1.20555
 Alpha  occ. eigenvalues --   -0.92711  -0.75009  -0.67377  -0.56711  -0.56452
 Alpha  occ. eigenvalues --   -0.50872  -0.47300  -0.47213  -0.34551  -0.33753
 Alpha virt. eigenvalues --   -0.01341   0.05849   0.07344   0.08159   0.09803
 Alpha virt. eigenvalues --    0.12594   0.14040   0.15455   0.17639   0.19766
 Alpha virt. eigenvalues --    0.19992   0.21579   0.25566   0.26423   0.28840

 Mulliken charges:
               1
     1  C    0.153570
     2  O   -0.338180
     3  C   -0.045530
     4  C   -0.134241
     5  H    0.108673
     6  H    0.082718
     7  H    0.100324
     8  H    0.072666
 Sum of Mulliken charges =   0.00000

 Dipole moment (field-independent basis, Debye):
    X=              3.3034    Y=              0.7837    Z=              0.0962  Tot=              3.3965
 Quadrupole moment (field-independent basis, Debye-Ang):
   XX=            -27.3297   YY=            -21.7287   ZZ=            -25.1630
   XY=             -1.0111   XZ=             -0.0527   YZ=             -0.0839

 Normal termination of Gaussian 09 at Wed Aug 26 20:12:55 2020.
