 Gaussian 09, Revision D.01,
 Gaussian 09:  ES64L-G09RevD.01 24-Apr-2013

 --------------------
 #p B2PLYPD3/Def2QZVP
 --------------------

 --------
 acrolein
 --------
 Symbolic Z-matrix:
 Charge =  0 Multiplicity = 1

                         Standard orientation:
 ---------------------------------------------------------------------
 Center     Atomic      Atomic             Coordinates (Angstroms)
 Number     Number       Type             X           Y           Z
 ---------------------------------------------------------------------
      1          6           0        0.678568    0.346154   -0.017811
      2          8           0        1.785782   -0.122527    0.021090
      3          6           0       -0.546744   -0.433236   -0.021868
      4          6           0       -1.760207    0.131484    0.006455
      5          1           0       -0.438802   -1.524958   -0.005629
      6          1           0       -1.850504    1.206451    0.073258
      7          1           0       -2.720571   -0.423716    0.025191
      8          1           0        0.493928    1.456025   -0.062199
 ---------------------------------------------------------------------

 SCF Done:  E(RB2PLYPD3) =  -191.615232423     A.U. after   13 cycles
 E2(B2PLYPD3) =    -0.2472928551D+00 E(B2PLYPD3) =    -0.19186252527848D+03

 The electronic state is 1-A.
 Alpha  occ. eigenvalues --  -19.72931 -10.71635 -10.65932 -10.64479  -1.20089
 Alpha  occ. eigenvalues --   -0.92930  -0.75609  -0.66562  -0.56753  -0.56085
 Alpha  occ. eigenvalues --   -0.50717  -0.47194  -0.46319  -0.34642  -0.33922
 Alpha virt. eigenvalues --   -0.01966   0.05687   0.07100   0.08463   0.09729
 Alpha virt. eigenvalues --    0.12490   0.14010   0.15403   0.17440   0.19656
 Alpha virt. eigenvalues --    0.20033   0.21417   0.25538   0.26354   0.28703

 Mulliken charges:
               1
     1  C    0.157333
     2  O   -0.342707
     3  C   -0.032386
     4  C   -0.129227
     5  H    0.101383
     6  H    0.080852
     7  H    0.103077
     8  H    0.061675
 Sum of Mulliken charges =   0.00000

 Dipole moment (field-independent basis, Debye):
    X=             -3.4942    Y=              0.7287    Z=             -0.0055  Tot=              3.5694
 Quadrupole moment (field-independent basis, Debye-Ang):
   XX=            -27.1211   YY=            -21.9934   ZZ=            -25.2424
   XY=              0.8863   XZ=             -0.2838   YZ=              0.0490

 Normal termination of Gaussian 09 at Wed Aug 26 18:49:55 2020.
