 Gaussian 09, Revision D.01,
 Gaussian 09:  ES64L-G09RevD.01 24-Apr-2013

 --------------------
 #p B2PLYPD3/Def2QZVP
 --------------------

 --------
 acrolein
 --------
 Symbolic Z-matrix:
 Charge =  0 Multiplicity = 1

                         Standard orientation:
 ---------------------------------------------------------------------
 Center     Atomic      Atomic             Coordinates (Angstroms)
 Number     Number       Type             X           Y           Z
 ---------------------------------------------------------------------
      1          6           0       -0.674884    0.366368   -0.011525
      2          8           0       -1.779519   -0.136039    0.015005
      3          6           0        0.562105   -0.446598   -0.027654
      4          6           0        1.746041    0.139694    0.004073
      5          1           0        0.445388   -1.494528    0.021251
      6          1           0        1.809949    1.214976    0.034646
      7          1           0        2.693853   -0.444571    0.050883
      8          1           0       -0.512611    1.455653   -0.016187
 ---------------------------------------------------------------------

 SCF Done:  E(RB2PLYPD3) =  -191.615506581     A.U. after   12 cycles
 E2(B2PLYPD3) =    -0.2470195255D+00 E(B2PLYPD3) =    -0.19186252610650D+03

 The electronic state is 1-A.
 Alpha  occ. eigenvalues --  -19.72892 -10.71715 -10.65361 -10.63864  -1.19406
 Alpha  occ. eigenvalues --   -0.93105  -0.74959  -0.67462  -0.56563  -0.56161
 Alpha  occ. eigenvalues --   -0.50628  -0.46908  -0.46644  -0.34777  -0.33904
 Alpha virt. eigenvalues --   -0.01474   0.05713   0.07227   0.08002   0.09799
 Alpha virt. eigenvalues --    0.12496   0.13831   0.15366   0.17707   0.19757
 Alpha virt. eigenvalues --    0.19935   0.21438   0.25580   0.26460   0.28849

 Mulliken charges:
               1
     1  C    0.154186
     2  O   -0.349887
     3  C   -0.042811
     4  C   -0.130574
     5  H    0.110016
     6  H    0.082636
     7  H    0.098785
     8  H    0.077648
 Sum of Mulliken charges =   0.00000

 Dipole moment (field-independent basis, Debye):
    X=              3.3978    Y=              0.8279    Z=              0.0421  Tot=              3.4974
 Quadrupole moment (field-independent basis, Debye-Ang):
   XX=            -27.5569   YY=            -21.6693   ZZ=            -25.1916
   XY=             -1.0729   XZ=              0.2712   YZ=             -0.0386

 Normal termination of Gaussian 09 at Wed Aug 26 20:29:32 2020.
