 Gaussian 09, Revision D.01,
 Gaussian 09:  ES64L-G09RevD.01 24-Apr-2013

 --------------------
 #p B2PLYPD3/Def2QZVP
 --------------------

 --------
 acrolein
 --------
 Symbolic Z-matrix:
 Charge =  0 Multiplicity = 1

                         Standard orientation:
 ---------------------------------------------------------------------
 Center     Atomic      Atomic             Coordinates (Angstroms)
 Number     Number       Type             X           Y           Z
 ---------------------------------------------------------------------
      1          6           0       -0.660204    0.328119    0.003622
      2          8           0       -1.793871   -0.108210    0.009874
      3          6           0        0.576512   -0.455474   -0.021668
      4          6           0        1.744725    0.157804    0.002689
      5          1           0        0.452999   -1.527983   -0.017359
      6          1           0        1.811457    1.224169    0.001343
      7          1           0        2.641285   -0.424021    0.070672
      8          1           0       -0.520970    1.410823   -0.041498
 ---------------------------------------------------------------------

 SCF Done:  E(RB2PLYPD3) =  -191.616182920     A.U. after   12 cycles
 E2(B2PLYPD3) =    -0.2467608379D+00 E(B2PLYPD3) =    -0.19186294375844D+03

 The electronic state is 1-A.
 Alpha  occ. eigenvalues --  -19.72664 -10.71252 -10.65149 -10.64240  -1.19131
 Alpha  occ. eigenvalues --   -0.93677  -0.75713  -0.67231  -0.56902  -0.56503
 Alpha  occ. eigenvalues --   -0.50470  -0.47411  -0.46581  -0.35018  -0.33671
 Alpha virt. eigenvalues --   -0.01704   0.05813   0.07138   0.08304   0.09763
 Alpha virt. eigenvalues --    0.12724   0.13958   0.15282   0.17460   0.19862
 Alpha virt. eigenvalues --    0.19968   0.21750   0.25497   0.26505   0.28709

 Mulliken charges:
               1
     1  C    0.153801
     2  O   -0.353352
     3  C   -0.031173
     4  C   -0.130834
     5  H    0.102976
     6  H    0.091081
     7  H    0.102638
     8  H    0.064863
 Sum of Mulliken charges =   0.00000

 Dipole moment (field-independent basis, Debye):
    X=              3.5696    Y=              0.6957    Z=              0.0159  Tot=              3.6368
 Quadrupole moment (field-independent basis, Debye-Ang):
   XX=            -27.6115   YY=            -21.7039   ZZ=            -25.1054
   XY=             -0.8545   XZ=              0.2288   YZ=             -0.0415

 Normal termination of Gaussian 09 at Wed Aug 26 19:27:31 2020.
