 Gaussian 09, Revision D.01,
 Gaussian 09:  ES64L-G09RevD.01 24-Apr-2013

 --------------------
 #p B2PLYPD3/Def2QZVP
 --------------------

 --------
 acrolein
 --------
 Symbolic Z-matrix:
 Charge =  0 Multiplicity = 1

                         Standard orientation:
 ---------------------------------------------------------------------
 Center     Atomic      Atomic             Coordinates (Angstroms)
 Number     Number       Type             X           Y           Z
 ---------------------------------------------------------------------
      1          6           0        0.668911    0.355536    0.023026
      2          8           0        1.786065   -0.126856   -0.023642
      3          6           0       -0.549088   -0.436888    0.012365
      4          6           0       -1.749619    0.132885   -0.006168
      5          1           0       -0.442095   -1.539212    0.057695
      6          1           0       -1.814609    1.202687   -0.036667
      7          1           0       -2.731143   -0.419086   -0.057274
      8          1           0        0.478106    1.461260    0.050040
 ---------------------------------------------------------------------

 SCF Done:  E(RB2PLYPD3) =  -191.613445637     A.U. after   12 cycles
 E2(B2PLYPD3) =    -0.2479606316D+00 E(B2PLYPD3) =    -0.19186140626862D+03

 The electronic state is 1-A.
 Alpha  occ. eigenvalues --  -19.72947 -10.71857 -10.65851 -10.64498  -1.19200
 Alpha  occ. eigenvalues --   -0.93229  -0.75461  -0.66646  -0.56576  -0.55990
 Alpha  occ. eigenvalues --   -0.50436  -0.46813  -0.46110  -0.34760  -0.34031
 Alpha virt. eigenvalues --   -0.01964   0.05639   0.06947   0.08227   0.09734
 Alpha virt. eigenvalues --    0.12462   0.13995   0.15291   0.17351   0.19797
 Alpha virt. eigenvalues --    0.19996   0.21343   0.25570   0.26381   0.28903

 Mulliken charges:
               1
     1  C    0.154729
     2  O   -0.350462
     3  C   -0.029041
     4  C   -0.127951
     5  H    0.102339
     6  H    0.079981
     7  H    0.101923
     8  H    0.068481
 Sum of Mulliken charges =   0.00000

 Dipole moment (field-independent basis, Debye):
    X=             -3.5406    Y=              0.7776    Z=              0.0660  Tot=              3.6256
 Quadrupole moment (field-independent basis, Debye-Ang):
   XX=            -27.3256   YY=            -21.8845   ZZ=            -25.2615
   XY=              0.9432   XZ=              0.2836   YZ=             -0.0705

 Normal termination of Gaussian 09 at Wed Aug 26 15:29:33 2020.
