 Gaussian 09, Revision D.01,
 Gaussian 09:  ES64L-G09RevD.01 24-Apr-2013

 --------------------
 #p B2PLYPD3/Def2QZVP
 --------------------

 --------
 acrolein
 --------
 Symbolic Z-matrix:
 Charge =  0 Multiplicity = 1

                         Standard orientation:
 ---------------------------------------------------------------------
 Center     Atomic      Atomic             Coordinates (Angstroms)
 Number     Number       Type             X           Y           Z
 ---------------------------------------------------------------------
      1          6           0       -0.673885    0.346277    0.011296
      2          8           0       -1.788444   -0.121194   -0.019239
      3          6           0        0.560377   -0.440567    0.031200
      4          6           0        1.758935    0.140571   -0.020756
      5          1           0        0.459143   -1.511960    0.015392
      6          1           0        1.815807    1.191130    0.002109
      7          1           0        2.675507   -0.401992   -0.038625
      8          1           0       -0.515470    1.414689    0.044598
 ---------------------------------------------------------------------

 SCF Done:  E(RB2PLYPD3) =  -191.616416368     A.U. after   12 cycles
 E2(B2PLYPD3) =    -0.2465519313D+00 E(B2PLYPD3) =    -0.19186296829961D+03

 The electronic state is 1-A.
 Alpha  occ. eigenvalues --  -19.72781 -10.71267 -10.64984 -10.64181  -1.19600
 Alpha  occ. eigenvalues --   -0.93235  -0.75977  -0.67527  -0.56904  -0.56732
 Alpha  occ. eigenvalues --   -0.50855  -0.47130  -0.46806  -0.34680  -0.33930
 Alpha virt. eigenvalues --   -0.01814   0.05833   0.07316   0.08329   0.09763
 Alpha virt. eigenvalues --    0.12709   0.14142   0.15368   0.17566   0.19898
 Alpha virt. eigenvalues --    0.20023   0.21689   0.25493   0.26460   0.28837

 Mulliken charges:
               1
     1  C    0.152107
     2  O   -0.348754
     3  C   -0.032757
     4  C   -0.132871
     5  H    0.102686
     6  H    0.082678
     7  H    0.103741
     8  H    0.073169
 Sum of Mulliken charges =   0.00000

 Dipole moment (field-independent basis, Debye):
    X=              3.5061    Y=              0.7791    Z=              0.0506  Tot=              3.5920
 Quadrupole moment (field-independent basis, Debye-Ang):
   XX=            -27.3014   YY=            -21.8187   ZZ=            -25.1090
   XY=             -0.9733   XZ=             -0.1887   YZ=              0.0391

 Normal termination of Gaussian 09 at Wed Aug 26 18:42:46 2020.
