 Gaussian 09, Revision D.01,
 Gaussian 09:  ES64L-G09RevD.01 24-Apr-2013

 --------------------
 #p B2PLYPD3/Def2QZVP
 --------------------

 --------
 acrolein
 --------
 Symbolic Z-matrix:
 Charge =  0 Multiplicity = 1

                         Standard orientation:
 ---------------------------------------------------------------------
 Center     Atomic      Atomic             Coordinates (Angstroms)
 Number     Number       Type             X           Y           Z
 ---------------------------------------------------------------------
      1          6           0       -0.678146    0.347946    0.009255
      2          8           0       -1.773733   -0.132161   -0.027871
      3          6           0        0.545845   -0.418866    0.015642
      4          6           0        1.767968    0.138491   -0.008493
      5          1           0        0.400475   -1.469409    0.076319
      6          1           0        1.849592    1.179448   -0.119738
      7          1           0        2.739351   -0.468863   -0.007460
      8          1           0       -0.613553    1.410682    0.175412
 ---------------------------------------------------------------------

 SCF Done:  E(RB2PLYPD3) =  -191.610860297     A.U. after   13 cycles
 E2(B2PLYPD3) =    -0.2463680182D+00 E(B2PLYPD3) =    -0.19185722831542D+03

 The electronic state is 1-A.
 Alpha  occ. eigenvalues --  -19.72491 -10.70710 -10.65990 -10.64100  -1.20334
 Alpha  occ. eigenvalues --   -0.92897  -0.75693  -0.67570  -0.57390  -0.55963
 Alpha  occ. eigenvalues --   -0.50589  -0.47291  -0.46717  -0.34516  -0.33735
 Alpha virt. eigenvalues --   -0.01921   0.05668   0.07345   0.08460   0.09782
 Alpha virt. eigenvalues --    0.12392   0.13999   0.15385   0.17877   0.19242
 Alpha virt. eigenvalues --    0.20256   0.21274   0.25266   0.26710   0.28920

 Mulliken charges:
               1
     1  C    0.151908
     2  O   -0.344942
     3  C   -0.042913
     4  C   -0.134046
     5  H    0.108748
     6  H    0.089936
     7  H    0.100725
     8  H    0.070584
 Sum of Mulliken charges =   0.00000

 Dipole moment (field-independent basis, Debye):
    X=              3.4182    Y=              0.7998    Z=              0.0865  Tot=              3.5116
 Quadrupole moment (field-independent basis, Debye-Ang):
   XX=            -27.1162   YY=            -21.9091   ZZ=            -25.1298
   XY=             -1.0966   XZ=             -0.3444   YZ=             -0.1841

 Normal termination of Gaussian 09 at Wed Aug 26 19:46:19 2020.
