 Gaussian 09, Revision D.01,
 Gaussian 09:  ES64L-G09RevD.01 24-Apr-2013

 --------------------
 #p B2PLYPD3/Def2QZVP
 --------------------

 --------
 acrolein
 --------
 Symbolic Z-matrix:
 Charge =  0 Multiplicity = 1

                         Standard orientation:
 ---------------------------------------------------------------------
 Center     Atomic      Atomic             Coordinates (Angstroms)
 Number     Number       Type             X           Y           Z
 ---------------------------------------------------------------------
      1          6           0        0.672107    0.360179    0.032028
      2          8           0        1.788907   -0.130346   -0.024298
      3          6           0       -0.558873   -0.446145    0.010602
      4          6           0       -1.755572    0.144027   -0.022457
      5          1           0       -0.443423   -1.514439    0.035126
      6          1           0       -1.821561    1.203128   -0.050179
      7          1           0       -2.721543   -0.437341    0.032314
      8          1           0        0.529299    1.443045    0.056087
 ---------------------------------------------------------------------

 SCF Done:  E(RB2PLYPD3) =  -191.614391299     A.U. after   12 cycles
 E2(B2PLYPD3) =    -0.2476578715D+00 E(B2PLYPD3) =    -0.19186204917007D+03

 The electronic state is 1-A.
 Alpha  occ. eigenvalues --  -19.72813 -10.71650 -10.65719 -10.64375  -1.18922
 Alpha  occ. eigenvalues --   -0.92944  -0.75239  -0.67431  -0.56721  -0.55928
 Alpha  occ. eigenvalues --   -0.50341  -0.46891  -0.46434  -0.34601  -0.33934
 Alpha virt. eigenvalues --   -0.01870   0.05662   0.07152   0.07999   0.09750
 Alpha virt. eigenvalues --    0.12447   0.13957   0.15364   0.17574   0.19739
 Alpha virt. eigenvalues --    0.20010   0.21373   0.25449   0.26386   0.28974

 Mulliken charges:
               1
     1  C    0.152166
     2  O   -0.354213
     3  C   -0.038397
     4  C   -0.132572
     5  H    0.108870
     6  H    0.085818
     7  H    0.099451
     8  H    0.078877
 Sum of Mulliken charges =   0.00000

 Dipole moment (field-independent basis, Debye):
    X=             -3.4928    Y=              0.8331    Z=              0.1286  Tot=              3.5931
 Quadrupole moment (field-independent basis, Debye-Ang):
   XX=            -27.5404   YY=            -21.6748   ZZ=            -25.2556
   XY=              1.0305   XZ=              0.0895   YZ=             -0.1002

 Normal termination of Gaussian 09 at Wed Aug 26 13:45:04 2020.
