 Gaussian 09, Revision D.01,
 Gaussian 09:  ES64L-G09RevD.01 24-Apr-2013

 --------------------
 #p B2PLYPD3/Def2QZVP
 --------------------

 --------
 acrolein
 --------
 Symbolic Z-matrix:
 Charge =  0 Multiplicity = 1

                         Standard orientation:
 ---------------------------------------------------------------------
 Center     Atomic      Atomic             Coordinates (Angstroms)
 Number     Number       Type             X           Y           Z
 ---------------------------------------------------------------------
      1          6           0       -0.667070    0.348720   -0.004133
      2          8           0       -1.794193   -0.109780    0.007663
      3          6           0        0.566076   -0.476209   -0.010313
      4          6           0        1.745874    0.149763    0.005660
      5          1           0        0.450187   -1.539685   -0.028336
      6          1           0        1.882832    1.258614   -0.030580
      7          1           0        2.650335   -0.411537    0.052276
      8          1           0       -0.499089    1.437204   -0.001949
 ---------------------------------------------------------------------

 SCF Done:  E(RB2PLYPD3) =  -191.614839724     A.U. after   12 cycles
 E2(B2PLYPD3) =    -0.2474989613D+00 E(B2PLYPD3) =    -0.19186233868517D+03

 The electronic state is 1-A.
 Alpha  occ. eigenvalues --  -19.72731 -10.71615 -10.65682 -10.64569  -1.19043
 Alpha  occ. eigenvalues --   -0.92849  -0.75178  -0.67147  -0.56445  -0.56135
 Alpha  occ. eigenvalues --   -0.50512  -0.47082  -0.46401  -0.34642  -0.33727
 Alpha virt. eigenvalues --   -0.01646   0.05669   0.07201   0.07890   0.09641
 Alpha virt. eigenvalues --    0.12541   0.14056   0.15329   0.17507   0.19605
 Alpha virt. eigenvalues --    0.20022   0.21599   0.25287   0.26548   0.28494

 Mulliken charges:
               1
     1  C    0.157260
     2  O   -0.352655
     3  C   -0.047371
     4  C   -0.127793
     5  H    0.110554
     6  H    0.086358
     7  H    0.098054
     8  H    0.075592
 Sum of Mulliken charges =   0.00000

 Dipole moment (field-independent basis, Debye):
    X=              3.5356    Y=              0.7383    Z=             -0.0293  Tot=              3.6120
 Quadrupole moment (field-independent basis, Debye-Ang):
   XX=            -27.6357   YY=            -21.5505   ZZ=            -25.2626
   XY=             -0.7286   XZ=              0.0997   YZ=             -0.0306

 Normal termination of Gaussian 09 at Wed Aug 26 16:03:46 2020.
