 Gaussian 09, Revision D.01,
 Gaussian 09:  ES64L-G09RevD.01 24-Apr-2013

 --------------------
 #p B2PLYPD3/Def2QZVP
 --------------------

 --------
 acrolein
 --------
 Symbolic Z-matrix:
 Charge =  0 Multiplicity = 1

                         Standard orientation:
 ---------------------------------------------------------------------
 Center     Atomic      Atomic             Coordinates (Angstroms)
 Number     Number       Type             X           Y           Z
 ---------------------------------------------------------------------
      1          6           0       -0.676650    0.358638    0.032002
      2          8           0       -1.778933   -0.129467   -0.033262
      3          6           0        0.545175   -0.433469    0.028104
      4          6           0        1.761088    0.122426   -0.040325
      5          1           0        0.432082   -1.511897    0.025087
      6          1           0        1.887593    1.202615   -0.102775
      7          1           0        2.614048   -0.442959    0.091118
      8          1           0       -0.479935    1.502413    0.133979
 ---------------------------------------------------------------------

 SCF Done:  E(RB2PLYPD3) =  -191.611614412     A.U. after   13 cycles
 E2(B2PLYPD3) =    -0.2475033879D+00 E(B2PLYPD3) =    -0.19185911780036D+03

 The electronic state is 1-A.
 Alpha  occ. eigenvalues --  -19.73062 -10.72072 -10.65072 -10.64315  -1.19916
 Alpha  occ. eigenvalues --   -0.93001  -0.75984  -0.66222  -0.56978  -0.56143
 Alpha  occ. eigenvalues --   -0.50873  -0.47001  -0.46940  -0.34561  -0.33839
 Alpha virt. eigenvalues --   -0.02043   0.05817   0.07062   0.08323   0.09828
 Alpha virt. eigenvalues --    0.12572   0.13825   0.15454   0.17310   0.19332
 Alpha virt. eigenvalues --    0.20035   0.22116   0.25349   0.26477   0.28530

 Mulliken charges:
               1
     1  C    0.159904
     2  O   -0.342213
     3  C   -0.038446
     4  C   -0.126989
     5  H    0.103802
     6  H    0.080538
     7  H    0.104657
     8  H    0.058748
 Sum of Mulliken charges =   0.00000

 Dipole moment (field-independent basis, Debye):
    X=              3.4526    Y=              0.7116    Z=              0.1602  Tot=              3.5288
 Quadrupole moment (field-independent basis, Debye-Ang):
   XX=            -27.2857   YY=            -21.8759   ZZ=            -25.1971
   XY=             -0.8602   XZ=             -0.0827   YZ=             -0.1413

 Normal termination of Gaussian 09 at Wed Aug 26 08:52:05 2020.
