 Gaussian 09, Revision D.01,
 Gaussian 09:  ES64L-G09RevD.01 24-Apr-2013

 --------------------
 #p B2PLYPD3/Def2QZVP
 --------------------

 --------
 acrolein
 --------
 Symbolic Z-matrix:
 Charge =  0 Multiplicity = 1

                         Standard orientation:
 ---------------------------------------------------------------------
 Center     Atomic      Atomic             Coordinates (Angstroms)
 Number     Number       Type             X           Y           Z
 ---------------------------------------------------------------------
      1          6           0       -0.670515    0.353681   -0.007848
      2          8           0       -1.791435   -0.122279    0.016956
      3          6           0        0.567455   -0.461328   -0.029630
      4          6           0        1.749119    0.142875    0.019757
      5          1           0        0.477044   -1.524048   -0.025048
      6          1           0        1.813935    1.228890   -0.025050
      7          1           0        2.637367   -0.404360    0.055357
      8          1           0       -0.473223    1.466383   -0.034586
 ---------------------------------------------------------------------

 SCF Done:  E(RB2PLYPD3) =  -191.614932269     A.U. after   12 cycles
 E2(B2PLYPD3) =    -0.2474722155D+00 E(B2PLYPD3) =    -0.19186240448414D+03

 The electronic state is 1-A.
 Alpha  occ. eigenvalues --  -19.72999 -10.72104 -10.64954 -10.64222  -1.19142
 Alpha  occ. eigenvalues --   -0.93186  -0.75386  -0.66979  -0.56872  -0.56059
 Alpha  occ. eigenvalues --   -0.50636  -0.47328  -0.46524  -0.34747  -0.33874
 Alpha virt. eigenvalues --   -0.01654   0.05799   0.07150   0.07945   0.09760
 Alpha virt. eigenvalues --    0.12663   0.13970   0.15325   0.17429   0.19884
 Alpha virt. eigenvalues --    0.19964   0.21673   0.25359   0.26480   0.28684

 Mulliken charges:
               1
     1  C    0.156752
     2  O   -0.348981
     3  C   -0.039034
     4  C   -0.129351
     5  H    0.105838
     6  H    0.082387
     7  H    0.102338
     8  H    0.070051
 Sum of Mulliken charges =   0.00000

 Dipole moment (field-independent basis, Debye):
    X=              3.4974    Y=              0.7340    Z=             -0.0519  Tot=              3.5740
 Quadrupole moment (field-independent basis, Debye-Ang):
   XX=            -27.5656   YY=            -21.6872   ZZ=            -25.2039
   XY=             -0.9371   XZ=              0.1724   YZ=             -0.0593

 Normal termination of Gaussian 09 at Wed Aug 26 18:44:01 2020.
