 Gaussian 09, Revision D.01,
 Gaussian 09:  ES64L-G09RevD.01 24-Apr-2013

 --------------------
 #p B2PLYPD3/Def2QZVP
 --------------------

 --------
 acrolein
 --------
 Symbolic Z-matrix:
 Charge =  0 Multiplicity = 1

                         Standard orientation:
 ---------------------------------------------------------------------
 Center     Atomic      Atomic             Coordinates (Angstroms)
 Number     Number       Type             X           Y           Z
 ---------------------------------------------------------------------
      1          6           0        0.645586   -0.328916    0.005931
      2          8           0        1.812216    0.071755    0.034087
      3          6           0       -0.576148    0.492263   -0.056436
      4          6           0       -1.756549   -0.177490    0.008478
      5          1           0       -0.314709    1.683090   -0.076611
      6          1           0       -1.856417   -1.276626    0.012498
      7          1           0       -2.649039    0.444954    0.207875
      8          1           0        0.445101   -1.340604   -0.164296
 ---------------------------------------------------------------------

 SCF Done:  E(RB2PLYPD3) =  -191.591725583     A.U. after   13 cycles
 E2(B2PLYPD3) =    -0.2501826133D+00 E(B2PLYPD3) =    -0.19184190819629D+03

 The electronic state is 1-A.
 Alpha  occ. eigenvalues --  -19.72642 -10.71010 -10.66924 -10.66485  -1.17877
 Alpha  occ. eigenvalues --   -0.92714  -0.75683  -0.66429  -0.56174  -0.55383
 Alpha  occ. eigenvalues --   -0.49715  -0.46579  -0.45452  -0.34572  -0.33434
 Alpha virt. eigenvalues --   -0.02445   0.05515   0.06389   0.07544   0.09526
 Alpha virt. eigenvalues --    0.12431   0.13701   0.15169   0.16753   0.19371
 Alpha virt. eigenvalues --    0.19885   0.21430   0.24563   0.27058   0.28131

 Mulliken charges:
               1
     1  C    0.168975
     2  O   -0.369165
     3  C   -0.047172
     4  C   -0.130255
     5  H    0.104872
     6  H    0.097697
     7  H    0.102692
     8  H    0.072355
 Sum of Mulliken charges =   0.00000

 Dipole moment (field-independent basis, Debye):
    X=             -3.6903    Y=             -0.6921    Z=             -0.0137  Tot=              3.7547
 Quadrupole moment (field-independent basis, Debye-Ang):
   XX=            -28.2030   YY=            -21.4469   ZZ=            -25.4352
   XY=             -0.2074   XZ=             -0.7070   YZ=              0.0771

 Normal termination of Gaussian 09 at Wed Aug 26 12:54:24 2020.
