 Gaussian 09, Revision D.01,
 Gaussian 09:  ES64L-G09RevD.01 24-Apr-2013

 --------------------
 #p B2PLYPD3/Def2QZVP
 --------------------

 --------
 acrolein
 --------
 Symbolic Z-matrix:
 Charge =  0 Multiplicity = 1

                         Standard orientation:
 ---------------------------------------------------------------------
 Center     Atomic      Atomic             Coordinates (Angstroms)
 Number     Number       Type             X           Y           Z
 ---------------------------------------------------------------------
      1          6           0       -0.660657    0.341015   -0.022768
      2          8           0       -1.792122   -0.113972    0.022878
      3          6           0        0.572990   -0.459080   -0.019639
      4          6           0        1.741671    0.159369    0.011196
      5          1           0        0.462663   -1.563261   -0.010721
      6          1           0        1.805242    1.216204    0.070066
      7          1           0        2.677457   -0.406054    0.011651
      8          1           0       -0.532414    1.417064   -0.066758
 ---------------------------------------------------------------------

 SCF Done:  E(RB2PLYPD3) =  -191.615357640     A.U. after   12 cycles
 E2(B2PLYPD3) =    -0.2472485159D+00 E(B2PLYPD3) =    -0.19186260615617D+03

 The electronic state is 1-A.
 Alpha  occ. eigenvalues --  -19.72645 -10.71391 -10.65259 -10.64652  -1.18810
 Alpha  occ. eigenvalues --   -0.93396  -0.75418  -0.67153  -0.56894  -0.56210
 Alpha  occ. eigenvalues --   -0.50264  -0.46958  -0.46388  -0.34883  -0.33790
 Alpha virt. eigenvalues --   -0.01684   0.05765   0.06999   0.08085   0.09723
 Alpha virt. eigenvalues --    0.12654   0.14096   0.15300   0.17269   0.19778
 Alpha virt. eigenvalues --    0.20173   0.21547   0.25430   0.26416   0.28862

 Mulliken charges:
               1
     1  C    0.151149
     2  O   -0.355277
     3  C   -0.033578
     4  C   -0.129648
     5  H    0.103492
     6  H    0.088567
     7  H    0.100436
     8  H    0.074858
 Sum of Mulliken charges =   0.00000

 Dipole moment (field-independent basis, Debye):
    X=              3.5592    Y=              0.7652    Z=             -0.0402  Tot=              3.6408
 Quadrupole moment (field-independent basis, Debye-Ang):
   XX=            -27.6481   YY=            -21.6102   ZZ=            -25.1900
   XY=             -0.9145   XZ=              0.2519   YZ=              0.0599

 Normal termination of Gaussian 09 at Wed Aug 26 09:53:17 2020.
