 Gaussian 09, Revision D.01,
 Gaussian 09:  ES64L-G09RevD.01 24-Apr-2013

 --------------------
 #p B2PLYPD3/Def2QZVP
 --------------------

 --------
 acrolein
 --------
 Symbolic Z-matrix:
 Charge =  0 Multiplicity = 1

                         Standard orientation:
 ---------------------------------------------------------------------
 Center     Atomic      Atomic             Coordinates (Angstroms)
 Number     Number       Type             X           Y           Z
 ---------------------------------------------------------------------
      1          6           0        0.710687    0.380123   -0.086974
      2          8           0        1.760307   -0.154648    0.066573
      3          6           0       -0.555412   -0.402568   -0.019011
      4          6           0       -1.768713    0.142773    0.015226
      5          1           0       -0.424166   -1.569967   -0.071404
      6          1           0       -1.813208    1.110743    0.289616
      7          1           0       -2.744599   -0.455161   -0.043939
      8          1           0        0.580143    1.429599   -0.162301
 ---------------------------------------------------------------------

 SCF Done:  E(RB2PLYPD3) =  -191.597479662     A.U. after   14 cycles
 E2(B2PLYPD3) =    -0.2464745470D+00 E(B2PLYPD3) =    -0.19184395420923D+03

 The electronic state is 1-A.
 Alpha  occ. eigenvalues --  -19.73067 -10.71326 -10.64844 -10.64650  -1.21227
 Alpha  occ. eigenvalues --   -0.92298  -0.75338  -0.66941  -0.57378  -0.55748
 Alpha  occ. eigenvalues --   -0.50986  -0.47537  -0.45410  -0.34582  -0.33655
 Alpha virt. eigenvalues --   -0.01546   0.05812   0.07030   0.07999   0.09823
 Alpha virt. eigenvalues --    0.12484   0.14122   0.15403   0.16958   0.19467
 Alpha virt. eigenvalues --    0.20284   0.21696   0.24762   0.26782   0.28658

 Mulliken charges:
               1
     1  C    0.162608
     2  O   -0.330088
     3  C   -0.052134
     4  C   -0.140811
     5  H    0.091820
     6  H    0.084535
     7  H    0.100161
     8  H    0.083909
 Sum of Mulliken charges =   0.00000

 Dipole moment (field-independent basis, Debye):
    X=             -3.0650    Y=              0.9788    Z=             -0.1425  Tot=              3.2206
 Quadrupole moment (field-independent basis, Debye-Ang):
   XX=            -27.2138   YY=            -21.8888   ZZ=            -25.1361
   XY=              1.2992   XZ=             -0.6412   YZ=              0.3736

 Normal termination of Gaussian 09 at Wed Aug 26 13:25:20 2020.
