 Gaussian 09, Revision D.01,
 Gaussian 09:  ES64L-G09RevD.01 24-Apr-2013

 --------------------
 #p B2PLYPD3/Def2QZVP
 --------------------

 --------
 acrolein
 --------
 Symbolic Z-matrix:
 Charge =  0 Multiplicity = 1

                         Standard orientation:
 ---------------------------------------------------------------------
 Center     Atomic      Atomic             Coordinates (Angstroms)
 Number     Number       Type             X           Y           Z
 ---------------------------------------------------------------------
      1          6           0        0.685112    0.319657   -0.060597
      2          8           0        1.781283   -0.124199    0.064809
      3          6           0       -0.575012   -0.423628   -0.070783
      4          6           0       -1.765155    0.167719    0.056726
      5          1           0       -0.495182   -1.518423   -0.146479
      6          1           0       -1.689025    1.159093   -0.140046
      7          1           0       -2.710475   -0.431840    0.228625
      8          1           0        0.574753    1.402275   -0.012653
 ---------------------------------------------------------------------

 SCF Done:  E(RB2PLYPD3) =  -191.602056856     A.U. after   14 cycles
 E2(B2PLYPD3) =    -0.2465068120D+00 E(B2PLYPD3) =    -0.19184856366791D+03

 The electronic state is 1-A.
 Alpha  occ. eigenvalues --  -19.72776 -10.71098 -10.65282 -10.64372  -1.20865
 Alpha  occ. eigenvalues --   -0.93443  -0.75473  -0.67065  -0.57515  -0.55974
 Alpha  occ. eigenvalues --   -0.50848  -0.48032  -0.46485  -0.34510  -0.33659
 Alpha virt. eigenvalues --   -0.01732   0.05846   0.07049   0.08366   0.09870
 Alpha virt. eigenvalues --    0.12513   0.13769   0.15301   0.17422   0.19469
 Alpha virt. eigenvalues --    0.20966   0.21327   0.24591   0.26544   0.29254

 Mulliken charges:
               1
     1  C    0.148192
     2  O   -0.332238
     3  C   -0.017932
     4  C   -0.146946
     5  H    0.089406
     6  H    0.092517
     7  H    0.114233
     8  H    0.052767
 Sum of Mulliken charges =   0.00000

 Dipole moment (field-independent basis, Debye):
    X=             -3.3774    Y=              0.6658    Z=             -0.2581  Tot=              3.4521
 Quadrupole moment (field-independent basis, Debye-Ang):
   XX=            -27.2016   YY=            -22.1470   ZZ=            -25.0355
   XY=              1.3946   XZ=             -0.6137   YZ=             -0.1456

 Normal termination of Gaussian 09 at Wed Aug 26 14:04:49 2020.
