 Gaussian 09, Revision D.01,
 Gaussian 09:  ES64L-G09RevD.01 24-Apr-2013

 --------------------
 #p B2PLYPD3/Def2QZVP
 --------------------

 --------
 acrolein
 --------
 Symbolic Z-matrix:
 Charge =  0 Multiplicity = 1

                         Standard orientation:
 ---------------------------------------------------------------------
 Center     Atomic      Atomic             Coordinates (Angstroms)
 Number     Number       Type             X           Y           Z
 ---------------------------------------------------------------------
      1          6           0        0.668982    0.352162    0.014604
      2          8           0        1.780992   -0.130855   -0.014312
      3          6           0       -0.564164   -0.438843    0.008490
      4          6           0       -1.745240    0.135233   -0.015986
      5          1           0       -0.478110   -1.492886    0.013471
      6          1           0       -1.775567    1.212909   -0.058988
      7          1           0       -2.654682   -0.411865    0.047718
      8          1           0        0.502952    1.447372    0.069641
 ---------------------------------------------------------------------

 SCF Done:  E(RB2PLYPD3) =  -191.616051732     A.U. after   12 cycles
 E2(B2PLYPD3) =    -0.2466231032D+00 E(B2PLYPD3) =    -0.19186267483508D+03

 The electronic state is 1-A.
 Alpha  occ. eigenvalues --  -19.72895 -10.71660 -10.64798 -10.63645  -1.19456
 Alpha  occ. eigenvalues --   -0.93672  -0.75567  -0.67300  -0.57026  -0.56465
 Alpha  occ. eigenvalues --   -0.50851  -0.46936  -0.46797  -0.34966  -0.33948
 Alpha virt. eigenvalues --   -0.01584   0.05840   0.07217   0.08278   0.09823
 Alpha virt. eigenvalues --    0.12652   0.14015   0.15380   0.17569   0.19630
 Alpha virt. eigenvalues --    0.20089   0.21672   0.25665   0.26490   0.29000

 Mulliken charges:
               1
     1  C    0.151612
     2  O   -0.348313
     3  C   -0.031635
     4  C   -0.129661
     5  H    0.103583
     6  H    0.078815
     7  H    0.104394
     8  H    0.071204
 Sum of Mulliken charges =   0.00000

 Dipole moment (field-independent basis, Debye):
    X=             -3.4630    Y=              0.7598    Z=              0.0771  Tot=              3.5462
 Quadrupole moment (field-independent basis, Debye-Ang):
   XX=            -27.4323   YY=            -21.8034   ZZ=            -25.0770
   XY=              1.1278   XZ=              0.0288   YZ=             -0.0810

 Normal termination of Gaussian 09 at Wed Aug 26 15:14:19 2020.
