 Gaussian 09, Revision D.01,
 Gaussian 09:  ES64L-G09RevD.01 24-Apr-2013

 --------------------
 #p B2PLYPD3/Def2QZVP
 --------------------

 --------
 acrolein
 --------
 Symbolic Z-matrix:
 Charge =  0 Multiplicity = 1

                         Standard orientation:
 ---------------------------------------------------------------------
 Center     Atomic      Atomic             Coordinates (Angstroms)
 Number     Number       Type             X           Y           Z
 ---------------------------------------------------------------------
      1          6           0       -0.708188    0.371361    0.062356
      2          8           0       -1.753075   -0.170375   -0.047836
      3          6           0        0.540667   -0.397196    0.074787
      4          6           0        1.761256    0.103832   -0.048994
      5          1           0        0.567222   -1.395632   -0.033618
      6          1           0        1.799939    1.148359    0.024919
      7          1           0        2.642287   -0.398312   -0.072683
      8          1           0       -0.547260    1.540603   -0.064828
 ---------------------------------------------------------------------

 SCF Done:  E(RB2PLYPD3) =  -191.594948875     A.U. after   13 cycles
 E2(B2PLYPD3) =    -0.2459384279D+00 E(B2PLYPD3) =    -0.19184088730257D+03

 The electronic state is 1-A.
 Alpha  occ. eigenvalues --  -19.73365 -10.72446 -10.63646 -10.62862  -1.21845
 Alpha  occ. eigenvalues --   -0.93419  -0.75706  -0.67253  -0.57832  -0.56965
 Alpha  occ. eigenvalues --   -0.51902  -0.48175  -0.45832  -0.34866  -0.33869
 Alpha virt. eigenvalues --   -0.01453   0.06029   0.07353   0.08270   0.09934
 Alpha virt. eigenvalues --    0.12523   0.14226   0.15325   0.18178   0.19361
 Alpha virt. eigenvalues --    0.20260   0.21766   0.24916   0.26605   0.28820

 Mulliken charges:
               1
     1  C    0.154362
     2  O   -0.316772
     3  C   -0.032886
     4  C   -0.122366
     5  H    0.098944
     6  H    0.063202
     7  H    0.100385
     8  H    0.055132
 Sum of Mulliken charges =   0.00000

 Dipole moment (field-independent basis, Debye):
    X=              3.1567    Y=              0.7724    Z=              0.0694  Tot=              3.2506
 Quadrupole moment (field-independent basis, Debye-Ang):
   XX=            -26.6366   YY=            -22.2566   ZZ=            -24.9659
   XY=             -1.5232   XZ=             -0.4200   YZ=              0.1307

 Normal termination of Gaussian 09 at Wed Aug 26 14:41:23 2020.
