 Gaussian 09, Revision D.01,
 Gaussian 09:  ES64L-G09RevD.01 24-Apr-2013

 --------------------
 #p B2PLYPD3/Def2QZVP
 --------------------

 --------
 acrolein
 --------
 Symbolic Z-matrix:
 Charge =  0 Multiplicity = 1

                         Standard orientation:
 ---------------------------------------------------------------------
 Center     Atomic      Atomic             Coordinates (Angstroms)
 Number     Number       Type             X           Y           Z
 ---------------------------------------------------------------------
      1          6           0       -0.671672    0.353505   -0.014219
      2          8           0       -1.776668   -0.107728   -0.020155
      3          6           0        0.563356   -0.461112    0.067414
      4          6           0        1.771787    0.137655   -0.050307
      5          1           0        0.401237   -1.628823    0.049871
      6          1           0        1.793571    1.304939    0.148391
      7          1           0        2.548287   -0.387369   -0.114666
      8          1           0       -0.510575    1.392792    0.060326
 ---------------------------------------------------------------------

 SCF Done:  E(RB2PLYPD3) =  -191.582313477     A.U. after   13 cycles
 E2(B2PLYPD3) =    -0.2475434898D+00 E(B2PLYPD3) =    -0.19182985696707D+03

 The electronic state is 1-A.
 Alpha  occ. eigenvalues --  -19.72719 -10.70951 -10.65484 -10.65160  -1.20287
 Alpha  occ. eigenvalues --   -0.92502  -0.76473  -0.66522  -0.57713  -0.55267
 Alpha  occ. eigenvalues --   -0.51339  -0.47205  -0.45634  -0.34346  -0.33750
 Alpha virt. eigenvalues --   -0.01843   0.05641   0.06919   0.07884   0.09698
 Alpha virt. eigenvalues --    0.12400   0.14257   0.15239   0.16979   0.19633
 Alpha virt. eigenvalues --    0.19904   0.22327   0.24384   0.26572   0.28472

 Mulliken charges:
               1
     1  C    0.170784
     2  O   -0.341610
     3  C   -0.050296
     4  C   -0.139550
     5  H    0.091868
     6  H    0.081735
     7  H    0.115538
     8  H    0.071532
 Sum of Mulliken charges =   0.00000

 Dipole moment (field-independent basis, Debye):
    X=              3.3336    Y=              0.7449    Z=              0.1064  Tot=              3.4174
 Quadrupole moment (field-independent basis, Debye-Ang):
   XX=            -27.6857   YY=            -21.5936   ZZ=            -25.2341
   XY=             -0.9709   XZ=             -0.1708   YZ=              0.2684

 Normal termination of Gaussian 09 at Wed Aug 26 15:01:07 2020.
