 Gaussian 09, Revision D.01,
 Gaussian 09:  ES64L-G09RevD.01 24-Apr-2013

 --------------------
 #p B2PLYPD3/Def2QZVP
 --------------------

 --------
 acrolein
 --------
 Symbolic Z-matrix:
 Charge =  0 Multiplicity = 1

                         Standard orientation:
 ---------------------------------------------------------------------
 Center     Atomic      Atomic             Coordinates (Angstroms)
 Number     Number       Type             X           Y           Z
 ---------------------------------------------------------------------
      1          6           0        0.644212    0.285114   -0.082705
      2          8           0        1.805171   -0.070149    0.061346
      3          6           0       -0.555699   -0.492554   -0.062490
      4          6           0       -1.742000    0.180401    0.003133
      5          1           0       -0.487860   -1.585173    0.051606
      6          1           0       -1.833476    1.191780    0.100937
      7          1           0       -2.686438   -0.321943    0.199599
      8          1           0        0.487329    1.438764    0.009459
 ---------------------------------------------------------------------

 SCF Done:  E(RB2PLYPD3) =  -191.601148471     A.U. after   13 cycles
 E2(B2PLYPD3) =    -0.2491988300D+00 E(B2PLYPD3) =    -0.19185034730113D+03

 The electronic state is 1-A.
 Alpha  occ. eigenvalues --  -19.72555 -10.71782 -10.66099 -10.65635  -1.18579
 Alpha  occ. eigenvalues --   -0.93536  -0.76580  -0.66480  -0.56950  -0.56119
 Alpha  occ. eigenvalues --   -0.49495  -0.47998  -0.46425  -0.34563  -0.33289
 Alpha virt. eigenvalues --   -0.02886   0.05719   0.06720   0.08151   0.09582
 Alpha virt. eigenvalues --    0.12847   0.14290   0.15180   0.17133   0.19642
 Alpha virt. eigenvalues --    0.20290   0.21807   0.24403   0.26519   0.28325

 Mulliken charges:
               1
     1  C    0.153337
     2  O   -0.353066
     3  C   -0.020938
     4  C   -0.110541
     5  H    0.105649
     6  H    0.092764
     7  H    0.091598
     8  H    0.041197
 Sum of Mulliken charges =   0.00000

 Dipole moment (field-independent basis, Debye):
    X=             -3.8356    Y=              0.4882    Z=              0.0796  Tot=              3.8673
 Quadrupole moment (field-independent basis, Debye-Ang):
   XX=            -27.3824   YY=            -21.9504   ZZ=            -25.2175
   XY=              0.3682   XZ=             -0.9621   YZ=             -0.0181

 Normal termination of Gaussian 09 at Wed Aug 26 13:30:01 2020.
