 Gaussian 09, Revision D.01,
 Gaussian 09:  ES64L-G09RevD.01 24-Apr-2013

 --------------------
 #p B2PLYPD3/Def2QZVP
 --------------------

 --------
 acrolein
 --------
 Symbolic Z-matrix:
 Charge =  0 Multiplicity = 1

                         Standard orientation:
 ---------------------------------------------------------------------
 Center     Atomic      Atomic             Coordinates (Angstroms)
 Number     Number       Type             X           Y           Z
 ---------------------------------------------------------------------
      1          6           0       -0.653017    0.358501   -0.051726
      2          8           0       -1.783410   -0.137319    0.041999
      3          6           0        0.554806   -0.419402   -0.052917
      4          6           0        1.743302    0.117304    0.015935
      5          1           0        0.425510   -1.484414    0.001644
      6          1           0        1.846255    1.179982    0.031551
      7          1           0        2.628536   -0.445778    0.137029
      8          1           0       -0.503567    1.510338    0.026034
 ---------------------------------------------------------------------

 SCF Done:  E(RB2PLYPD3) =  -191.610117041     A.U. after   13 cycles
 E2(B2PLYPD3) =    -0.2482539376D+00 E(B2PLYPD3) =    -0.19185837097908D+03

 The electronic state is 1-A.
 Alpha  occ. eigenvalues --  -19.72955 -10.72258 -10.64866 -10.63875  -1.18039
 Alpha  occ. eigenvalues --   -0.94234  -0.76304  -0.66589  -0.57195  -0.56378
 Alpha  occ. eigenvalues --   -0.50278  -0.46672  -0.46289  -0.35119  -0.33963
 Alpha virt. eigenvalues --   -0.02191   0.05731   0.06978   0.08237   0.09851
 Alpha virt. eigenvalues --    0.12531   0.13865   0.15282   0.17365   0.19728
 Alpha virt. eigenvalues --    0.20052   0.21944   0.25314   0.26619   0.28864

 Mulliken charges:
               1
     1  C    0.159516
     2  O   -0.361840
     3  C   -0.026874
     4  C   -0.121266
     5  H    0.105592
     6  H    0.081448
     7  H    0.103373
     8  H    0.060051
 Sum of Mulliken charges =   0.00000

 Dipole moment (field-independent basis, Debye):
    X=              3.6534    Y=              0.7566    Z=              0.0060  Tot=              3.7309
 Quadrupole moment (field-independent basis, Debye-Ang):
   XX=            -27.4106   YY=            -21.8780   ZZ=            -25.0939
   XY=             -1.0050   XZ=              0.5787   YZ=             -0.0504

 Normal termination of Gaussian 09 at Wed Aug 26 08:44:40 2020.
