 Gaussian 09, Revision D.01,
 Gaussian 09:  ES64L-G09RevD.01 24-Apr-2013

 --------------------
 #p B2PLYPD3/Def2QZVP
 --------------------

 --------
 acrolein
 --------
 Symbolic Z-matrix:
 Charge =  0 Multiplicity = 1

                         Standard orientation:
 ---------------------------------------------------------------------
 Center     Atomic      Atomic             Coordinates (Angstroms)
 Number     Number       Type             X           Y           Z
 ---------------------------------------------------------------------
      1          6           0       -0.671152    0.354477   -0.023024
      2          8           0       -1.777543   -0.133104    0.033011
      3          6           0        0.553241   -0.413944   -0.040588
      4          6           0        1.754365    0.132362    0.006868
      5          1           0        0.419817   -1.484373   -0.078455
      6          1           0        1.812965    1.187645   -0.029856
      7          1           0        2.699446   -0.471865    0.193250
      8          1           0       -0.530609    1.396052   -0.008560
 ---------------------------------------------------------------------

 SCF Done:  E(RB2PLYPD3) =  -191.610907593     A.U. after   13 cycles
 E2(B2PLYPD3) =    -0.2466291051D+00 E(B2PLYPD3) =    -0.19185753669757D+03

 The electronic state is 1-A.
 Alpha  occ. eigenvalues --  -19.72686 -10.70793 -10.65613 -10.63793  -1.19524
 Alpha  occ. eigenvalues --   -0.93558  -0.75957  -0.67782  -0.57172  -0.56091
 Alpha  occ. eigenvalues --   -0.50659  -0.47165  -0.46261  -0.34784  -0.33977
 Alpha virt. eigenvalues --   -0.01880   0.05650   0.07241   0.08485   0.09818
 Alpha virt. eigenvalues --    0.12485   0.13874   0.15364   0.17762   0.19546
 Alpha virt. eigenvalues --    0.19920   0.21609   0.25617   0.26709   0.28883

 Mulliken charges:
               1
     1  C    0.151696
     2  O   -0.353529
     3  C   -0.026753
     4  C   -0.136400
     5  H    0.102622
     6  H    0.083543
     7  H    0.104244
     8  H    0.074577
 Sum of Mulliken charges =   0.00000

 Dipole moment (field-independent basis, Debye):
    X=              3.4729    Y=              0.8406    Z=             -0.0287  Tot=              3.5733
 Quadrupole moment (field-independent basis, Debye-Ang):
   XX=            -27.4128   YY=            -21.8464   ZZ=            -25.0455
   XY=             -1.1150   XZ=              0.5628   YZ=             -0.0729

 Normal termination of Gaussian 09 at Wed Aug 26 09:53:38 2020.
