 Gaussian 09, Revision D.01,
 Gaussian 09:  ES64L-G09RevD.01 24-Apr-2013

 --------------------
 #p B2PLYPD3/Def2QZVP
 --------------------

 --------
 acrolein
 --------
 Symbolic Z-matrix:
 Charge =  0 Multiplicity = 1

                         Standard orientation:
 ---------------------------------------------------------------------
 Center     Atomic      Atomic             Coordinates (Angstroms)
 Number     Number       Type             X           Y           Z
 ---------------------------------------------------------------------
      1          6           0        0.672663    0.342272   -0.022290
      2          8           0        1.790071   -0.113435    0.025894
      3          6           0       -0.566117   -0.452765   -0.024854
      4          6           0       -1.762710    0.139567    0.007514
      5          1           0       -0.439836   -1.548464   -0.053476
      6          1           0       -1.854801    1.260005   -0.001176
      7          1           0       -2.624297   -0.408393    0.113039
      8          1           0        0.535352    1.429885   -0.027761
 ---------------------------------------------------------------------

 SCF Done:  E(RB2PLYPD3) =  -191.613383862     A.U. after   12 cycles
 E2(B2PLYPD3) =    -0.2470000272D+00 E(B2PLYPD3) =    -0.19186038388952D+03

 The electronic state is 1-A.
 Alpha  occ. eigenvalues --  -19.72738 -10.71379 -10.65389 -10.64711  -1.19646
 Alpha  occ. eigenvalues --   -0.92902  -0.75766  -0.66676  -0.56951  -0.56205
 Alpha  occ. eigenvalues --   -0.50788  -0.47022  -0.46531  -0.34672  -0.33770
 Alpha virt. eigenvalues --   -0.01759   0.05772   0.07148   0.08258   0.09692
 Alpha virt. eigenvalues --    0.12518   0.14106   0.15351   0.17374   0.19575
 Alpha virt. eigenvalues --    0.19909   0.21925   0.25364   0.26483   0.28750

 Mulliken charges:
               1
     1  C    0.159099
     2  O   -0.347129
     3  C   -0.041948
     4  C   -0.129382
     5  H    0.101361
     6  H    0.082277
     7  H    0.107181
     8  H    0.068541
 Sum of Mulliken charges =   0.00000

 Dipole moment (field-independent basis, Debye):
    X=             -3.4852    Y=              0.7243    Z=             -0.0406  Tot=              3.5599
 Quadrupole moment (field-independent basis, Debye-Ang):
   XX=            -27.4614   YY=            -21.7080   ZZ=            -25.2069
   XY=              0.8953   XZ=             -0.3836   YZ=             -0.0062

 Normal termination of Gaussian 09 at Wed Aug 26 16:10:37 2020.
