 Gaussian 09, Revision D.01,
 Gaussian 09:  ES64L-G09RevD.01 24-Apr-2013

 --------------------
 #p B2PLYPD3/Def2QZVP
 --------------------

 --------
 acrolein
 --------
 Symbolic Z-matrix:
 Charge =  0 Multiplicity = 1

                         Standard orientation:
 ---------------------------------------------------------------------
 Center     Atomic      Atomic             Coordinates (Angstroms)
 Number     Number       Type             X           Y           Z
 ---------------------------------------------------------------------
      1          6           0       -0.682404    0.355626    0.020550
      2          8           0       -1.774120   -0.123106   -0.036196
      3          6           0        0.548337   -0.464350    0.027391
      4          6           0        1.750670    0.138145   -0.010733
      5          1           0        0.429364   -1.491227    0.087044
      6          1           0        1.866363    1.214985   -0.090377
      7          1           0        2.703113   -0.403163   -0.074939
      8          1           0       -0.505494    1.487732    0.144590
 ---------------------------------------------------------------------

 SCF Done:  E(RB2PLYPD3) =  -191.613096523     A.U. after   13 cycles
 E2(B2PLYPD3) =    -0.2468079670D+00 E(B2PLYPD3) =    -0.19185990448988D+03

 The electronic state is 1-A.
 Alpha  occ. eigenvalues --  -19.72926 -10.71856 -10.65663 -10.64138  -1.20705
 Alpha  occ. eigenvalues --   -0.92486  -0.74899  -0.67023  -0.56626  -0.56133
 Alpha  occ. eigenvalues --   -0.50894  -0.47418  -0.46981  -0.34479  -0.33647
 Alpha virt. eigenvalues --   -0.01501   0.05757   0.07279   0.08086   0.09714
 Alpha virt. eigenvalues --    0.12502   0.13978   0.15362   0.17728   0.19546
 Alpha virt. eigenvalues --    0.20079   0.21385   0.25188   0.26504   0.28636

 Mulliken charges:
               1
     1  C    0.157593
     2  O   -0.335780
     3  C   -0.050107
     4  C   -0.127054
     5  H    0.114025
     6  H    0.081965
     7  H    0.094912
     8  H    0.064447
 Sum of Mulliken charges =   0.00000

 Dipole moment (field-independent basis, Debye):
    X=              3.3380    Y=              0.7118    Z=              0.0831  Tot=              3.4141
 Quadrupole moment (field-independent basis, Debye-Ang):
   XX=            -27.1878   YY=            -21.8565   ZZ=            -25.2279
   XY=             -0.7642   XZ=             -0.4677   YZ=             -0.1342

 Normal termination of Gaussian 09 at Wed Aug 26 09:49:23 2020.
