 Gaussian 09, Revision D.01,
 Gaussian 09:  ES64L-G09RevD.01 24-Apr-2013

 --------------------
 #p B2PLYPD3/Def2QZVP
 --------------------

 --------
 acrolein
 --------
 Symbolic Z-matrix:
 Charge =  0 Multiplicity = 1

                         Standard orientation:
 ---------------------------------------------------------------------
 Center     Atomic      Atomic             Coordinates (Angstroms)
 Number     Number       Type             X           Y           Z
 ---------------------------------------------------------------------
      1          6           0       -0.688405    0.364770    0.027451
      2          8           0       -1.782750   -0.137633   -0.030864
      3          6           0        0.542318   -0.432262    0.026406
      4          6           0        1.777847    0.131388   -0.033350
      5          1           0        0.440120   -1.514967    0.029068
      6          1           0        1.814040    1.157301   -0.105855
      7          1           0        2.719893   -0.416874    0.069236
      8          1           0       -0.502615    1.492234    0.131426
 ---------------------------------------------------------------------

 SCF Done:  E(RB2PLYPD3) =  -191.610666736     A.U. after   13 cycles
 E2(B2PLYPD3) =    -0.2478216688D+00 E(B2PLYPD3) =    -0.19185848840444D+03

 The electronic state is 1-A.
 Alpha  occ. eigenvalues --  -19.73102 -10.72129 -10.65356 -10.64626  -1.20075
 Alpha  occ. eigenvalues --   -0.92445  -0.75634  -0.66687  -0.56481  -0.56378
 Alpha  occ. eigenvalues --   -0.50813  -0.47074  -0.46893  -0.34216  -0.33924
 Alpha virt. eigenvalues --   -0.02152   0.05801   0.07108   0.08168   0.09831
 Alpha virt. eigenvalues --    0.12508   0.13898   0.15489   0.17353   0.19565
 Alpha virt. eigenvalues --    0.20053   0.21681   0.25273   0.26316   0.28929

 Mulliken charges:
               1
     1  C    0.154062
     2  O   -0.340049
     3  C   -0.037731
     4  C   -0.135529
     5  H    0.104597
     6  H    0.082647
     7  H    0.106010
     8  H    0.065993
 Sum of Mulliken charges =   0.00000

 Dipole moment (field-independent basis, Debye):
    X=              3.4118    Y=              0.7912    Z=              0.1334  Tot=              3.5048
 Quadrupole moment (field-independent basis, Debye-Ang):
   XX=            -27.1268   YY=            -21.9462   ZZ=            -25.2858
   XY=             -1.0401   XZ=             -0.1177   YZ=             -0.1334

 Normal termination of Gaussian 09 at Wed Aug 26 09:31:40 2020.
