 Gaussian 09, Revision D.01,
 Gaussian 09:  ES64L-G09RevD.01 24-Apr-2013

 --------------------
 #p B2PLYPD3/Def2QZVP
 --------------------

 --------
 acrolein
 --------
 Symbolic Z-matrix:
 Charge =  0 Multiplicity = 1

                         Standard orientation:
 ---------------------------------------------------------------------
 Center     Atomic      Atomic             Coordinates (Angstroms)
 Number     Number       Type             X           Y           Z
 ---------------------------------------------------------------------
      1          6           0       -0.626755   -0.323145    0.069653
      2          8           0       -1.819182    0.095098   -0.062334
      3          6           0        0.604338    0.488049    0.041734
      4          6           0        1.710231   -0.188810   -0.064768
      5          1           0        0.417810    1.613838    0.061757
      6          1           0        1.765302   -1.175193   -0.161219
      7          1           0        2.705661    0.394204    0.086496
      8          1           0       -0.462203   -1.450197    0.231926
 ---------------------------------------------------------------------

 SCF Done:  E(RB2PLYPD3) =  -191.589063304     A.U. after   14 cycles
 E2(B2PLYPD3) =    -0.2507074062D+00 E(B2PLYPD3) =    -0.19183977070985D+03

 The electronic state is 1-A.
 Alpha  occ. eigenvalues --  -19.72936 -10.72691 -10.65475 -10.65319  -1.15963
 Alpha  occ. eigenvalues --   -0.94601  -0.75355  -0.66905  -0.57020  -0.55442
 Alpha  occ. eigenvalues --   -0.49645  -0.46501  -0.44782  -0.35289  -0.33671
 Alpha virt. eigenvalues --   -0.02321   0.05614   0.06341   0.07440   0.09733
 Alpha virt. eigenvalues --    0.12340   0.13951   0.15124   0.16464   0.19108
 Alpha virt. eigenvalues --    0.20543   0.21637   0.24927   0.26537   0.28686

 Mulliken charges:
               1
     1  C    0.151253
     2  O   -0.378330
     3  C   -0.022158
     4  C   -0.118015
     5  H    0.111061
     6  H    0.098724
     7  H    0.090071
     8  H    0.067392
 Sum of Mulliken charges =   0.00000

 Dipole moment (field-independent basis, Debye):
    X=              3.7939    Y=             -0.6704    Z=              0.2897  Tot=              3.8636
 Quadrupole moment (field-independent basis, Debye-Ang):
   XX=            -28.4281   YY=            -21.4976   ZZ=            -25.2761
   XY=              0.4830   XZ=             -0.3109   YZ=              0.2222

 Normal termination of Gaussian 09 at Wed Aug 26 11:40:28 2020.
