 Gaussian 09, Revision D.01,
 Gaussian 09:  ES64L-G09RevD.01 24-Apr-2013

 --------------------
 #p B2PLYPD3/Def2QZVP
 --------------------

 --------
 acrolein
 --------
 Symbolic Z-matrix:
 Charge =  0 Multiplicity = 1

                         Standard orientation:
 ---------------------------------------------------------------------
 Center     Atomic      Atomic             Coordinates (Angstroms)
 Number     Number       Type             X           Y           Z
 ---------------------------------------------------------------------
      1          6           0       -0.673827    0.351857    0.010541
      2          8           0       -1.779817   -0.124158   -0.017623
      3          6           0        0.551118   -0.433211    0.010898
      4          6           0        1.760814    0.136932   -0.022426
      5          1           0        0.409778   -1.555850    0.059647
      6          1           0        1.804297    1.176133   -0.018132
      7          1           0        2.705282   -0.408868    0.016969
      8          1           0       -0.509457    1.448384    0.088416
 ---------------------------------------------------------------------

 SCF Done:  E(RB2PLYPD3) =  -191.613512752     A.U. after   12 cycles
 E2(B2PLYPD3) =    -0.2471153354D+00 E(B2PLYPD3) =    -0.19186062808697D+03

 The electronic state is 1-A.
 Alpha  occ. eigenvalues --  -19.72857 -10.71488 -10.65261 -10.64749  -1.19970
 Alpha  occ. eigenvalues --   -0.93028  -0.75836  -0.66586  -0.56816  -0.56404
 Alpha  occ. eigenvalues --   -0.50816  -0.47171  -0.46266  -0.34621  -0.33932
 Alpha virt. eigenvalues --   -0.01897   0.05813   0.06986   0.08430   0.09798
 Alpha virt. eigenvalues --    0.12592   0.14097   0.15366   0.17146   0.19802
 Alpha virt. eigenvalues --    0.20089   0.21688   0.25534   0.26474   0.28906

 Mulliken charges:
               1
     1  C    0.155302
     2  O   -0.344585
     3  C   -0.030301
     4  C   -0.133301
     5  H    0.097938
     6  H    0.083725
     7  H    0.106085
     8  H    0.065138
 Sum of Mulliken charges =   0.00000

 Dipole moment (field-independent basis, Debye):
    X=              3.4623    Y=              0.7775    Z=              0.1299  Tot=              3.5509
 Quadrupole moment (field-independent basis, Debye-Ang):
   XX=            -27.1881   YY=            -21.9142   ZZ=            -25.2091
   XY=             -0.9216   XZ=             -0.0434   YZ=             -0.0735

 Normal termination of Gaussian 09 at Wed Aug 26 16:27:40 2020.
