 Gaussian 09, Revision D.01,
 Gaussian 09:  ES64L-G09RevD.01 24-Apr-2013

 --------------------
 #p B2PLYPD3/Def2QZVP
 --------------------

 --------
 acrolein
 --------
 Symbolic Z-matrix:
 Charge =  0 Multiplicity = 1

                         Standard orientation:
 ---------------------------------------------------------------------
 Center     Atomic      Atomic             Coordinates (Angstroms)
 Number     Number       Type             X           Y           Z
 ---------------------------------------------------------------------
      1          6           0        0.673854    0.365462   -0.039578
      2          8           0        1.752177   -0.148268    0.060219
      3          6           0       -0.537939   -0.428799   -0.101379
      4          6           0       -1.749591    0.133439    0.012973
      5          1           0       -0.508330   -1.417395    0.022827
      6          1           0       -1.802348    1.106966    0.122790
      7          1           0       -2.609450   -0.395386    0.226785
      8          1           0        0.584764    1.471345   -0.086249
 ---------------------------------------------------------------------

 SCF Done:  E(RB2PLYPD3) =  -191.597349882     A.U. after   12 cycles
 E2(B2PLYPD3) =    -0.2457114985D+00 E(B2PLYPD3) =    -0.19184306138019D+03

 The electronic state is 1-A.
 Alpha  occ. eigenvalues --  -19.72522 -10.71295 -10.63633 -10.63166  -1.20263
 Alpha  occ. eigenvalues --   -0.93658  -0.76366  -0.68584  -0.58106  -0.56888
 Alpha  occ. eigenvalues --   -0.50722  -0.48236  -0.47212  -0.34362  -0.33869
 Alpha virt. eigenvalues --   -0.01777   0.05970   0.07567   0.08156   0.09896
 Alpha virt. eigenvalues --    0.12920   0.14164   0.15470   0.18092   0.19306
 Alpha virt. eigenvalues --    0.20449   0.22057   0.24797   0.26215   0.28541

 Mulliken charges:
               1
     1  C    0.143144
     2  O   -0.342478
     3  C   -0.042195
     4  C   -0.113395
     5  H    0.109830
     6  H    0.076214
     7  H    0.090709
     8  H    0.078172
 Sum of Mulliken charges =   0.00000

 Dipole moment (field-independent basis, Debye):
    X=             -3.3604    Y=              0.8575    Z=              0.1307  Tot=              3.4705
 Quadrupole moment (field-independent basis, Debye-Ang):
   XX=            -27.1350   YY=            -21.8132   ZZ=            -24.8429
   XY=              1.2772   XZ=             -1.0959   YZ=             -0.0981

 Normal termination of Gaussian 09 at Wed Aug 26 10:51:45 2020.
