 Gaussian 09, Revision D.01,
 Gaussian 09:  ES64L-G09RevD.01 24-Apr-2013

 --------------------
 #p B2PLYPD3/Def2QZVP
 --------------------

 --------
 acrolein
 --------
 Symbolic Z-matrix:
 Charge =  0 Multiplicity = 1

                         Standard orientation:
 ---------------------------------------------------------------------
 Center     Atomic      Atomic             Coordinates (Angstroms)
 Number     Number       Type             X           Y           Z
 ---------------------------------------------------------------------
      1          6           0        0.684870    0.358927   -0.015986
      2          8           0        1.785903   -0.136198    0.023942
      3          6           0       -0.541201   -0.452094   -0.035066
      4          6           0       -1.763319    0.148581    0.004476
      5          1           0       -0.486660   -1.491338    0.017482
      6          1           0       -1.837329    1.195253    0.091049
      7          1           0       -2.789495   -0.441592    0.046757
      8          1           0        0.544160    1.494780   -0.067369
 ---------------------------------------------------------------------

 SCF Done:  E(RB2PLYPD3) =  -191.605503523     A.U. after   13 cycles
 E2(B2PLYPD3) =    -0.2482343275D+00 E(B2PLYPD3) =    -0.19185373785028D+03

 The electronic state is 1-A.
 Alpha  occ. eigenvalues --  -19.72870 -10.72105 -10.66545 -10.64493  -1.19811
 Alpha  occ. eigenvalues --   -0.92308  -0.74668  -0.67269  -0.56680  -0.55516
 Alpha  occ. eigenvalues --   -0.49957  -0.47124  -0.46784  -0.34173  -0.33877
 Alpha virt. eigenvalues --   -0.02018   0.05499   0.07095   0.07935   0.09660
 Alpha virt. eigenvalues --    0.12189   0.13879   0.15417   0.17820   0.19676
 Alpha virt. eigenvalues --    0.20134   0.20841   0.25239   0.25866   0.28873

 Mulliken charges:
               1
     1  C    0.151898
     2  O   -0.342520
     3  C   -0.044883
     4  C   -0.129353
     5  H    0.113729
     6  H    0.087198
     7  H    0.092606
     8  H    0.071324
 Sum of Mulliken charges =   0.00000

 Dipole moment (field-independent basis, Debye):
    X=             -3.4339    Y=              0.7971    Z=              0.0449  Tot=              3.5255
 Quadrupole moment (field-independent basis, Debye-Ang):
   XX=            -27.3025   YY=            -21.8060   ZZ=            -25.3896
   XY=              1.0840   XZ=             -0.4039   YZ=              0.0146

 Normal termination of Gaussian 09 at Wed Aug 26 09:33:53 2020.
