 Gaussian 09, Revision D.01,
 Gaussian 09:  ES64L-G09RevD.01 24-Apr-2013

 --------------------
 #p B2PLYPD3/Def2QZVP
 --------------------

 --------
 acrolein
 --------
 Symbolic Z-matrix:
 Charge =  0 Multiplicity = 1

                         Standard orientation:
 ---------------------------------------------------------------------
 Center     Atomic      Atomic             Coordinates (Angstroms)
 Number     Number       Type             X           Y           Z
 ---------------------------------------------------------------------
      1          6           0       -0.675105    0.350910    0.015240
      2          8           0       -1.780325   -0.124078   -0.019882
      3          6           0        0.549943   -0.454900    0.002050
      4          6           0        1.753405    0.136352   -0.005997
      5          1           0        0.449235   -1.475793    0.079169
      6          1           0        1.842481    1.238928   -0.048747
      7          1           0        2.694115   -0.426653   -0.024837
      8          1           0       -0.512685    1.461967    0.085715
 ---------------------------------------------------------------------

 SCF Done:  E(RB2PLYPD3) =  -191.614191453     A.U. after   13 cycles
 E2(B2PLYPD3) =    -0.2469852229D+00 E(B2PLYPD3) =    -0.19186117667599D+03

 The electronic state is 1-A.
 Alpha  occ. eigenvalues --  -19.72800 -10.71614 -10.65922 -10.63901  -1.19992
 Alpha  occ. eigenvalues --   -0.92856  -0.75110  -0.67333  -0.56444  -0.56357
 Alpha  occ. eigenvalues --   -0.50673  -0.47291  -0.46815  -0.34559  -0.33785
 Alpha virt. eigenvalues --   -0.01700   0.05702   0.07297   0.08169   0.09723
 Alpha virt. eigenvalues --    0.12452   0.13907   0.15326   0.17874   0.19579
 Alpha virt. eigenvalues --    0.19974   0.21353   0.25338   0.26501   0.28891

 Mulliken charges:
               1
     1  C    0.155027
     2  O   -0.343934
     3  C   -0.044055
     4  C   -0.128493
     5  H    0.112012
     6  H    0.081541
     7  H    0.099556
     8  H    0.068346
 Sum of Mulliken charges =   0.00000

 Dipole moment (field-independent basis, Debye):
    X=              3.4416    Y=              0.7284    Z=              0.1003  Tot=              3.5192
 Quadrupole moment (field-independent basis, Debye-Ang):
   XX=            -27.3168   YY=            -21.8024   ZZ=            -25.2131
   XY=             -0.9440   XZ=             -0.1907   YZ=             -0.1278

 Normal termination of Gaussian 09 at Wed Aug 26 18:57:12 2020.
