 Gaussian 09, Revision D.01,
 Gaussian 09:  ES64L-G09RevD.01 24-Apr-2013

 --------------------
 #p B2PLYPD3/Def2QZVP
 --------------------

 --------
 acrolein
 --------
 Symbolic Z-matrix:
 Charge =  0 Multiplicity = 1

                         Standard orientation:
 ---------------------------------------------------------------------
 Center     Atomic      Atomic             Coordinates (Angstroms)
 Number     Number       Type             X           Y           Z
 ---------------------------------------------------------------------
      1          6           0        0.669525    0.332583   -0.033116
      2          8           0        1.798327   -0.101364    0.030347
      3          6           0       -0.569648   -0.467142   -0.006572
      4          6           0       -1.761044    0.133468   -0.000909
      5          1           0       -0.426201   -1.521083   -0.046784
      6          1           0       -1.949847    1.289693    0.121760
      7          1           0       -2.569804   -0.403851    0.025555
      8          1           0        0.526244    1.452697   -0.099728
 ---------------------------------------------------------------------

 SCF Done:  E(RB2PLYPD3) =  -191.599914813     A.U. after   13 cycles
 E2(B2PLYPD3) =    -0.2473132038D+00 E(B2PLYPD3) =    -0.19184722801655D+03

 The electronic state is 1-A.
 Alpha  occ. eigenvalues --  -19.72794 -10.71670 -10.65364 -10.64605  -1.19437
 Alpha  occ. eigenvalues --   -0.93144  -0.76210  -0.66443  -0.57569  -0.55640
 Alpha  occ. eigenvalues --   -0.50814  -0.46937  -0.46641  -0.34822  -0.33598
 Alpha virt. eigenvalues --   -0.01844   0.05637   0.07270   0.08131   0.09583
 Alpha virt. eigenvalues --    0.12489   0.14076   0.15271   0.17421   0.19341
 Alpha virt. eigenvalues --    0.20018   0.22231   0.24986   0.26530   0.28285

 Mulliken charges:
               1
     1  C    0.162317
     2  O   -0.347557
     3  C   -0.050218
     4  C   -0.121407
     5  H    0.105994
     6  H    0.082880
     7  H    0.105567
     8  H    0.062425
 Sum of Mulliken charges =   0.00000

 Dipole moment (field-independent basis, Debye):
    X=             -3.5515    Y=              0.6188    Z=             -0.0562  Tot=              3.6054
 Quadrupole moment (field-independent basis, Debye-Ang):
   XX=            -27.4116   YY=            -21.7237   ZZ=            -25.1941
   XY=              0.6474   XZ=             -0.3924   YZ=              0.1819

 Normal termination of Gaussian 09 at Wed Aug 26 08:35:47 2020.
