 Gaussian 09, Revision D.01,
 Gaussian 09:  ES64L-G09RevD.01 24-Apr-2013

 --------------------
 #p B2PLYPD3/Def2QZVP
 --------------------

 --------
 acrolein
 --------
 Symbolic Z-matrix:
 Charge =  0 Multiplicity = 1

                         Standard orientation:
 ---------------------------------------------------------------------
 Center     Atomic      Atomic             Coordinates (Angstroms)
 Number     Number       Type             X           Y           Z
 ---------------------------------------------------------------------
      1          6           0       -0.642376   -0.310205    0.028084
      2          8           0       -1.815130    0.080510   -0.023790
      3          6           0        0.568983    0.468707   -0.030025
      4          6           0        1.754643   -0.168897    0.012217
      5          1           0        0.374004    1.718473    0.143872
      6          1           0        1.853669   -1.212210   -0.082256
      7          1           0        2.656690    0.407184   -0.043263
      8          1           0       -0.450825   -1.495154    0.110307
 ---------------------------------------------------------------------

 SCF Done:  E(RB2PLYPD3) =  -191.585305697     A.U. after   13 cycles
 E2(B2PLYPD3) =    -0.2511483194D+00 E(B2PLYPD3) =    -0.19183645401589D+03

 The electronic state is 1-A.
 Alpha  occ. eigenvalues --  -19.72980 -10.72598 -10.66918 -10.66149  -1.17912
 Alpha  occ. eigenvalues --   -0.93486  -0.76327  -0.64361  -0.56399  -0.55938
 Alpha  occ. eigenvalues --   -0.49513  -0.46464  -0.45222  -0.34942  -0.33531
 Alpha virt. eigenvalues --   -0.02826   0.05367   0.05805   0.07975   0.09513
 Alpha virt. eigenvalues --    0.12481   0.13738   0.14752   0.16267   0.19798
 Alpha virt. eigenvalues --    0.20284   0.21886   0.24427   0.26061   0.28165

 Mulliken charges:
               1
     1  C    0.159589
     2  O   -0.354916
     3  C   -0.024586
     4  C   -0.113028
     5  H    0.092788
     6  H    0.097002
     7  H    0.104607
     8  H    0.038543
 Sum of Mulliken charges =   0.00000

 Dipole moment (field-independent basis, Debye):
    X=              3.8310    Y=             -0.5619    Z=              0.1303  Tot=              3.8742
 Quadrupole moment (field-independent basis, Debye-Ang):
   XX=            -27.6091   YY=            -21.8763   ZZ=            -25.4913
   XY=              0.2957   XZ=             -0.2882   YZ=              0.3033

 Normal termination of Gaussian 09 at Wed Aug 26 14:45:55 2020.
