 Gaussian 09, Revision D.01,
 Gaussian 09:  ES64L-G09RevD.01 24-Apr-2013

 --------------------
 #p B2PLYPD3/Def2QZVP
 --------------------

 --------
 acrolein
 --------
 Symbolic Z-matrix:
 Charge =  0 Multiplicity = 1

                         Standard orientation:
 ---------------------------------------------------------------------
 Center     Atomic      Atomic             Coordinates (Angstroms)
 Number     Number       Type             X           Y           Z
 ---------------------------------------------------------------------
      1          6           0        0.685346    0.347724   -0.019342
      2          8           0        1.787354   -0.114730    0.033522
      3          6           0       -0.572859   -0.465939   -0.052266
      4          6           0       -1.768882    0.151019    0.031370
      5          1           0       -0.465063   -1.550975   -0.048764
      6          1           0       -1.836857    1.266542   -0.036338
      7          1           0       -2.585810   -0.413400    0.117789
      8          1           0        0.527270    1.418849   -0.059439
 ---------------------------------------------------------------------

 SCF Done:  E(RB2PLYPD3) =  -191.609269241     A.U. after   13 cycles
 E2(B2PLYPD3) =    -0.2465441174D+00 E(B2PLYPD3) =    -0.19185581335835D+03

 The electronic state is 1-A.
 Alpha  occ. eigenvalues --  -19.72807 -10.71349 -10.64944 -10.64663  -1.20366
 Alpha  occ. eigenvalues --   -0.92424  -0.75546  -0.66978  -0.57111  -0.56098
 Alpha  occ. eigenvalues --   -0.50942  -0.47534  -0.46896  -0.34365  -0.33687
 Alpha virt. eigenvalues --   -0.01458   0.05876   0.07242   0.08061   0.09716
 Alpha virt. eigenvalues --    0.12595   0.14087   0.15412   0.17451   0.19626
 Alpha virt. eigenvalues --    0.19960   0.22014   0.25047   0.26550   0.28533

 Mulliken charges:
               1
     1  C    0.159473
     2  O   -0.339114
     3  C   -0.051767
     4  C   -0.137886
     5  H    0.101574
     6  H    0.086976
     7  H    0.107537
     8  H    0.073207
 Sum of Mulliken charges =   0.00000

 Dipole moment (field-independent basis, Debye):
    X=             -3.3418    Y=              0.7415    Z=             -0.0821  Tot=              3.4241
 Quadrupole moment (field-independent basis, Debye-Ang):
   XX=            -27.5801   YY=            -21.5663   ZZ=            -25.2130
   XY=              0.9505   XZ=             -0.3886   YZ=             -0.1011

 Normal termination of Gaussian 09 at Wed Aug 26 08:34:53 2020.
