 Gaussian 09, Revision D.01,
 Gaussian 09:  ES64L-G09RevD.01 24-Apr-2013

 --------------------
 #p B2PLYPD3/Def2QZVP
 --------------------

 --------
 acrolein
 --------
 Symbolic Z-matrix:
 Charge =  0 Multiplicity = 1

                         Standard orientation:
 ---------------------------------------------------------------------
 Center     Atomic      Atomic             Coordinates (Angstroms)
 Number     Number       Type             X           Y           Z
 ---------------------------------------------------------------------
      1          6           0        0.690191    0.363945   -0.042130
      2          8           0        1.759208   -0.141212    0.036496
      3          6           0       -0.546453   -0.433770   -0.042122
      4          6           0       -1.754618    0.138773    0.004599
      5          1           0       -0.477355   -1.503362   -0.009559
      6          1           0       -1.756762    1.178175    0.030088
      7          1           0       -2.697774   -0.411649    0.145022
      8          1           0        0.523505    1.452843    0.020407
 ---------------------------------------------------------------------

 SCF Done:  E(RB2PLYPD3) =  -191.612936185     A.U. after   12 cycles
 E2(B2PLYPD3) =    -0.2459316134D+00 E(B2PLYPD3) =    -0.19185886779848D+03

 The electronic state is 1-A.
 Alpha  occ. eigenvalues --  -19.72881 -10.71385 -10.64826 -10.63862  -1.21274
 Alpha  occ. eigenvalues --   -0.92761  -0.75115  -0.67349  -0.57061  -0.56417
 Alpha  occ. eigenvalues --   -0.50978  -0.47743  -0.46748  -0.34431  -0.33911
 Alpha virt. eigenvalues --   -0.01348   0.05899   0.07262   0.08288   0.09859
 Alpha virt. eigenvalues --    0.12613   0.14143   0.15454   0.17691   0.19699
 Alpha virt. eigenvalues --    0.20017   0.21584   0.25461   0.26507   0.28984

 Mulliken charges:
               1
     1  C    0.150201
     2  O   -0.330796
     3  C   -0.038004
     4  C   -0.136891
     5  H    0.103270
     6  H    0.078531
     7  H    0.102739
     8  H    0.070950
 Sum of Mulliken charges =   0.00000

 Dipole moment (field-independent basis, Debye):
    X=             -3.2168    Y=              0.8100    Z=              0.0283  Tot=              3.3173
 Quadrupole moment (field-independent basis, Debye-Ang):
   XX=            -27.1575   YY=            -21.8710   ZZ=            -25.1144
   XY=              1.2393   XZ=             -0.5932   YZ=             -0.0432

 Normal termination of Gaussian 09 at Wed Aug 26 20:49:48 2020.
