 Gaussian 09, Revision D.01,
 Gaussian 09:  ES64L-G09RevD.01 24-Apr-2013

 --------------------
 #p B2PLYPD3/Def2QZVP
 --------------------

 --------
 acrolein
 --------
 Symbolic Z-matrix:
 Charge =  0 Multiplicity = 1

                         Standard orientation:
 ---------------------------------------------------------------------
 Center     Atomic      Atomic             Coordinates (Angstroms)
 Number     Number       Type             X           Y           Z
 ---------------------------------------------------------------------
      1          6           0       -0.668651    0.342756    0.015768
      2          8           0       -1.787866   -0.104992   -0.022829
      3          6           0        0.560360   -0.465935    0.014084
      4          6           0        1.760967    0.150826   -0.026534
      5          1           0        0.388829   -1.567363    0.060550
      6          1           0        1.842112    1.254368   -0.029983
      7          1           0        2.691418   -0.411025    0.022371
      8          1           0       -0.535489    1.398074    0.109788
 ---------------------------------------------------------------------

 SCF Done:  E(RB2PLYPD3) =  -191.613701463     A.U. after   12 cycles
 E2(B2PLYPD3) =    -0.2473117090D+00 E(B2PLYPD3) =    -0.19186101317227D+03

 The electronic state is 1-A.
 Alpha  occ. eigenvalues --  -19.72571 -10.70943 -10.66152 -10.65075  -1.19662
 Alpha  occ. eigenvalues --   -0.92466  -0.75370  -0.67062  -0.56468  -0.56055
 Alpha  occ. eigenvalues --   -0.50544  -0.46922  -0.46545  -0.34436  -0.33731
 Alpha virt. eigenvalues --   -0.01830   0.05694   0.07087   0.08186   0.09679
 Alpha virt. eigenvalues --    0.12498   0.14039   0.15352   0.17369   0.19451
 Alpha virt. eigenvalues --    0.20059   0.21505   0.25215   0.26713   0.28832

 Mulliken charges:
               1
     1  C    0.159655
     2  O   -0.350384
     3  C   -0.044551
     4  C   -0.132029
     5  H    0.105105
     6  H    0.086716
     7  H    0.103444
     8  H    0.072044
 Sum of Mulliken charges =   0.00000

 Dipole moment (field-independent basis, Debye):
    X=              3.4810    Y=              0.7492    Z=              0.1560  Tot=              3.5642
 Quadrupole moment (field-independent basis, Debye-Ang):
   XX=            -27.5056   YY=            -21.6435   ZZ=            -25.2985
   XY=             -0.7472   XZ=             -0.0857   YZ=             -0.0914

 Normal termination of Gaussian 09 at Wed Aug 26 08:36:58 2020.
