 Gaussian 09, Revision D.01,
 Gaussian 09:  ES64L-G09RevD.01 24-Apr-2013

 --------------------
 #p B2PLYPD3/Def2QZVP
 --------------------

 --------
 acrolein
 --------
 Symbolic Z-matrix:
 Charge =  0 Multiplicity = 1

                         Standard orientation:
 ---------------------------------------------------------------------
 Center     Atomic      Atomic             Coordinates (Angstroms)
 Number     Number       Type             X           Y           Z
 ---------------------------------------------------------------------
      1          6           0        0.673017    0.378739    0.072918
      2          8           0        1.759164   -0.154308   -0.057899
      3          6           0       -0.555903   -0.443927    0.083039
      4          6           0       -1.723665    0.137063   -0.055555
      5          1           0       -0.512508   -1.375876   -0.001406
      6          1           0       -1.776477    1.201346    0.045463
      7          1           0       -2.681612   -0.460950   -0.124663
      8          1           0        0.536589    1.438691   -0.058613
 ---------------------------------------------------------------------

 SCF Done:  E(RB2PLYPD3) =  -191.591616055     A.U. after   13 cycles
 E2(B2PLYPD3) =    -0.2465713565D+00 E(B2PLYPD3) =    -0.19183818741120D+03

 The electronic state is 1-A.
 Alpha  occ. eigenvalues --  -19.72776 -10.71538 -10.64970 -10.62278  -1.19259
 Alpha  occ. eigenvalues --   -0.93844  -0.74733  -0.69526  -0.57613  -0.55863
 Alpha  occ. eigenvalues --   -0.50562  -0.47393  -0.46638  -0.34905  -0.33843
 Alpha virt. eigenvalues --   -0.01308   0.05762   0.07406   0.07567   0.09867
 Alpha virt. eigenvalues --    0.12511   0.13830   0.15250   0.18504   0.19533
 Alpha virt. eigenvalues --    0.20126   0.21322   0.24524   0.27021   0.28949

 Mulliken charges:
               1
     1  C    0.153732
     2  O   -0.351065
     3  C   -0.059850
     4  C   -0.119549
     5  H    0.122129
     6  H    0.078367
     7  H    0.088950
     8  H    0.087284
 Sum of Mulliken charges =   0.00000

 Dipole moment (field-independent basis, Debye):
    X=             -3.3157    Y=              0.9021    Z=              0.1196  Tot=              3.4383
 Quadrupole moment (field-independent basis, Debye-Ang):
   XX=            -27.5712   YY=            -21.6129   ZZ=            -24.9778
   XY=              1.3986   XZ=              0.4887   YZ=              0.1488

 Normal termination of Gaussian 09 at Wed Aug 26 12:10:35 2020.
