 Gaussian 09, Revision D.01,
 Gaussian 09:  ES64L-G09RevD.01 24-Apr-2013

 --------------------
 #p B2PLYPD3/Def2QZVP
 --------------------

 --------
 acrolein
 --------
 Symbolic Z-matrix:
 Charge =  0 Multiplicity = 1

                         Standard orientation:
 ---------------------------------------------------------------------
 Center     Atomic      Atomic             Coordinates (Angstroms)
 Number     Number       Type             X           Y           Z
 ---------------------------------------------------------------------
      1          6           0        0.659037    0.299926   -0.044652
      2          8           0        1.800535   -0.076408    0.033281
      3          6           0       -0.542821   -0.456561   -0.054304
      4          6           0       -1.769950    0.139342   -0.001672
      5          1           0       -0.355663   -1.612962    0.080262
      6          1           0       -1.879075    1.206852    0.040446
      7          1           0       -2.685449   -0.355373    0.156199
      8          1           0        0.438311    1.476512    0.060612
 ---------------------------------------------------------------------

 SCF Done:  E(RB2PLYPD3) =  -191.598323508     A.U. after   13 cycles
 E2(B2PLYPD3) =    -0.2492275289D+00 E(B2PLYPD3) =    -0.19184755103727D+03

 The electronic state is 1-A.
 Alpha  occ. eigenvalues --  -19.72996 -10.71947 -10.66489 -10.66056  -1.19956
 Alpha  occ. eigenvalues --   -0.93147  -0.76984  -0.64789  -0.57475  -0.55646
 Alpha  occ. eigenvalues --   -0.50508  -0.47425  -0.46042  -0.34689  -0.33372
 Alpha virt. eigenvalues --   -0.02955   0.05694   0.06489   0.08733   0.09689
 Alpha virt. eigenvalues --    0.12639   0.13977   0.15210   0.16684   0.19705
 Alpha virt. eigenvalues --    0.19890   0.22165   0.24654   0.26532   0.28401

 Mulliken charges:
               1
     1  C    0.166178
     2  O   -0.340021
     3  C   -0.020721
     4  C   -0.113350
     5  H    0.092753
     6  H    0.087656
     7  H    0.106290
     8  H    0.021215
 Sum of Mulliken charges =   0.00000

 Dipole moment (field-independent basis, Debye):
    X=             -3.7411    Y=              0.4643    Z=              0.1322  Tot=              3.7721
 Quadrupole moment (field-independent basis, Debye-Ang):
   XX=            -26.8424   YY=            -22.3877   ZZ=            -25.3191
   XY=              0.1929   XZ=             -0.6619   YZ=             -0.1334

 Normal termination of Gaussian 09 at Wed Aug 26 13:49:48 2020.
