 Gaussian 09, Revision D.01,
 Gaussian 09:  ES64L-G09RevD.01 24-Apr-2013

 --------------------
 #p B2PLYPD3/Def2QZVP
 --------------------

 --------
 acrolein
 --------
 Symbolic Z-matrix:
 Charge =  0 Multiplicity = 1

                         Standard orientation:
 ---------------------------------------------------------------------
 Center     Atomic      Atomic             Coordinates (Angstroms)
 Number     Number       Type             X           Y           Z
 ---------------------------------------------------------------------
      1          6           0        0.668315    0.336073   -0.020958
      2          8           0        1.789506   -0.109576    0.025510
      3          6           0       -0.560365   -0.463601   -0.017914
      4          6           0       -1.749982    0.147797    0.007383
      5          1           0       -0.465294   -1.525260   -0.071491
      6          1           0       -1.850265    1.229070    0.007604
      7          1           0       -2.646030   -0.399337    0.097757
      8          1           0        0.497728    1.450520   -0.049021
 ---------------------------------------------------------------------

 SCF Done:  E(RB2PLYPD3) =  -191.615966198     A.U. after   12 cycles
 E2(B2PLYPD3) =    -0.2470231516D+00 E(B2PLYPD3) =    -0.19186298934963D+03

 The electronic state is 1-A.
 Alpha  occ. eigenvalues --  -19.72771 -10.71632 -10.65343 -10.64393  -1.19661
 Alpha  occ. eigenvalues --   -0.93115  -0.75621  -0.66925  -0.56726  -0.56407
 Alpha  occ. eigenvalues --   -0.50559  -0.47573  -0.46733  -0.34673  -0.33697
 Alpha virt. eigenvalues --   -0.01783   0.05797   0.07183   0.08224   0.09703
 Alpha virt. eigenvalues --    0.12659   0.14056   0.15299   0.17522   0.19874
 Alpha virt. eigenvalues --    0.19904   0.21686   0.25375   0.26437   0.28661

 Mulliken charges:
               1
     1  C    0.154976
     2  O   -0.345880
     3  C   -0.036586
     4  C   -0.128165
     5  H    0.106128
     6  H    0.085541
     7  H    0.101140
     8  H    0.062847
 Sum of Mulliken charges =   0.00000

 Dipole moment (field-independent basis, Debye):
    X=             -3.5336    Y=              0.6744    Z=             -0.0694  Tot=              3.5981
 Quadrupole moment (field-independent basis, Debye-Ang):
   XX=            -27.3943   YY=            -21.7674   ZZ=            -25.1778
   XY=              0.7780   XZ=             -0.3393   YZ=              0.0401

 Normal termination of Gaussian 09 at Wed Aug 26 15:34:38 2020.
