 Gaussian 09, Revision D.01,
 Gaussian 09:  ES64L-G09RevD.01 24-Apr-2013

 --------------------
 #p B2PLYPD3/Def2QZVP
 --------------------

 --------
 acrolein
 --------
 Symbolic Z-matrix:
 Charge =  0 Multiplicity = 1

                         Standard orientation:
 ---------------------------------------------------------------------
 Center     Atomic      Atomic             Coordinates (Angstroms)
 Number     Number       Type             X           Y           Z
 ---------------------------------------------------------------------
      1          6           0       -0.674560    0.354835   -0.018789
      2          8           0       -1.788242   -0.128742    0.014404
      3          6           0        0.562890   -0.437199   -0.007937
      4          6           0        1.752630    0.143697    0.012740
      5          1           0        0.432969   -1.520578   -0.006897
      6          1           0        1.800966    1.166536    0.052773
      7          1           0        2.715723   -0.432225   -0.033380
      8          1           0       -0.489480    1.448205   -0.043809
 ---------------------------------------------------------------------

 SCF Done:  E(RB2PLYPD3) =  -191.612989704     A.U. after   12 cycles
 E2(B2PLYPD3) =    -0.2472096271D+00 E(B2PLYPD3) =    -0.19186019933148D+03

 The electronic state is 1-A.
 Alpha  occ. eigenvalues --  -19.72998 -10.71765 -10.65126 -10.64245  -1.19387
 Alpha  occ. eigenvalues --   -0.93335  -0.75533  -0.67197  -0.56825  -0.56163
 Alpha  occ. eigenvalues --   -0.50604  -0.46881  -0.46724  -0.34825  -0.33942
 Alpha virt. eigenvalues --   -0.01766   0.05746   0.07120   0.08201   0.09821
 Alpha virt. eigenvalues --    0.12593   0.13890   0.15362   0.17375   0.19841
 Alpha virt. eigenvalues --    0.20162   0.21543   0.25590   0.26452   0.28800

 Mulliken charges:
               1
     1  C    0.153135
     2  O   -0.349881
     3  C   -0.029205
     4  C   -0.135973
     5  H    0.103212
     6  H    0.086944
     7  H    0.102044
     8  H    0.069725
 Sum of Mulliken charges =   0.00000

 Dipole moment (field-independent basis, Debye):
    X=              3.4708    Y=              0.7967    Z=             -0.0576  Tot=              3.5615
 Quadrupole moment (field-independent basis, Debye-Ang):
   XX=            -27.4094   YY=            -21.8401   ZZ=            -25.1753
   XY=             -0.9483   XZ=              0.0610   YZ=              0.0702

 Normal termination of Gaussian 09 at Wed Aug 26 16:27:31 2020.
