 Gaussian 09, Revision D.01,
 Gaussian 09:  ES64L-G09RevD.01 24-Apr-2013

 --------------------
 #p B2PLYPD3/Def2QZVP
 --------------------

 --------
 acrolein
 --------
 Symbolic Z-matrix:
 Charge =  0 Multiplicity = 1

                         Standard orientation:
 ---------------------------------------------------------------------
 Center     Atomic      Atomic             Coordinates (Angstroms)
 Number     Number       Type             X           Y           Z
 ---------------------------------------------------------------------
      1          6           0       -0.664509    0.383311   -0.080920
      2          8           0       -1.798942   -0.147385    0.074129
      3          6           0        0.578664   -0.403675   -0.086436
      4          6           0        1.758472    0.135316    0.057428
      5          1           0        0.344041   -1.559180   -0.079784
      6          1           0        1.843707    1.080867    0.000717
      7          1           0        2.724209   -0.468583    0.166291
      8          1           0       -0.556184    1.436266   -0.020692
 ---------------------------------------------------------------------

 SCF Done:  E(RB2PLYPD3) =  -191.585064814     A.U. after   13 cycles
 E2(B2PLYPD3) =    -0.2494482240D+00 E(B2PLYPD3) =    -0.19183451303845D+03

 The electronic state is 1-A.
 Alpha  occ. eigenvalues --  -19.73071 -10.72009 -10.65207 -10.64472  -1.16730
 Alpha  occ. eigenvalues --   -0.93985  -0.76572  -0.67563  -0.57902  -0.55654
 Alpha  occ. eigenvalues --   -0.50009  -0.45719  -0.45206  -0.35008  -0.34243
 Alpha virt. eigenvalues --   -0.02356   0.05570   0.06898   0.07661   0.09842
 Alpha virt. eigenvalues --    0.12365   0.13885   0.15248   0.16814   0.19748
 Alpha virt. eigenvalues --    0.20565   0.21811   0.24595   0.26965   0.28873

 Mulliken charges:
               1
     1  C    0.158026
     2  O   -0.375064
     3  C   -0.027895
     4  C   -0.137170
     5  H    0.098855
     6  H    0.094417
     7  H    0.102239
     8  H    0.086591
 Sum of Mulliken charges =   0.00000

 Dipole moment (field-independent basis, Debye):
    X=              3.6123    Y=              1.0295    Z=             -0.1938  Tot=              3.7611
 Quadrupole moment (field-independent basis, Debye-Ang):
   XX=            -27.6159   YY=            -21.7131   ZZ=            -25.1836
   XY=             -0.9976   XZ=              0.7019   YZ=             -0.0557

 Normal termination of Gaussian 09 at Wed Aug 26 13:45:57 2020.
