 Gaussian 09, Revision D.01,
 Gaussian 09:  ES64L-G09RevD.01 24-Apr-2013

 --------------------
 #p B2PLYPD3/Def2QZVP
 --------------------

 --------
 acrolein
 --------
 Symbolic Z-matrix:
 Charge =  0 Multiplicity = 1

                         Standard orientation:
 ---------------------------------------------------------------------
 Center     Atomic      Atomic             Coordinates (Angstroms)
 Number     Number       Type             X           Y           Z
 ---------------------------------------------------------------------
      1          6           0       -0.685080    0.316591    0.045075
      2          8           0       -1.795461   -0.084445   -0.078440
      3          6           0        0.582413   -0.484850    0.062259
      4          6           0        1.772257    0.176874   -0.034360
      5          1           0        0.431385   -1.509350    0.169907
      6          1           0        1.920470    1.267312   -0.108761
      7          1           0        2.604370   -0.420776   -0.180313
      8          1           0       -0.610074    1.286677    0.308842
 ---------------------------------------------------------------------

 SCF Done:  E(RB2PLYPD3) =  -191.598742706     A.U. after   12 cycles
 E2(B2PLYPD3) =    -0.2458351054D+00 E(B2PLYPD3) =    -0.19184457781141D+03

 The electronic state is 1-A.
 Alpha  occ. eigenvalues --  -19.72354 -10.69961 -10.65592 -10.64743  -1.20713
 Alpha  occ. eigenvalues --   -0.92150  -0.75780  -0.68502  -0.57112  -0.56312
 Alpha  occ. eigenvalues --   -0.51303  -0.48204  -0.46638  -0.34382  -0.33036
 Alpha virt. eigenvalues --   -0.01531   0.05848   0.07433   0.08165   0.09514
 Alpha virt. eigenvalues --    0.12756   0.14067   0.15258   0.18035   0.19100
 Alpha virt. eigenvalues --    0.20004   0.21683   0.24517   0.26960   0.28283

 Mulliken charges:
               1
     1  C    0.158872
     2  O   -0.341085
     3  C   -0.069002
     4  C   -0.131478
     5  H    0.112047
     6  H    0.094162
     7  H    0.098912
     8  H    0.077571
 Sum of Mulliken charges =   0.00000

 Dipole moment (field-independent basis, Debye):
    X=              3.3697    Y=              0.6857    Z=              0.2416  Tot=              3.4473
 Quadrupole moment (field-independent basis, Debye-Ang):
   XX=            -27.5760   YY=            -21.5512   ZZ=            -25.0710
   XY=             -0.5586   XZ=             -1.0030   YZ=             -0.1991

 Normal termination of Gaussian 09 at Wed Aug 26 14:38:10 2020.
