 Gaussian 09, Revision D.01,
 Gaussian 09:  ES64L-G09RevD.01 24-Apr-2013

 --------------------
 #p B2PLYPD3/Def2QZVP
 --------------------

 --------
 acrolein
 --------
 Symbolic Z-matrix:
 Charge =  0 Multiplicity = 1

                         Standard orientation:
 ---------------------------------------------------------------------
 Center     Atomic      Atomic             Coordinates (Angstroms)
 Number     Number       Type             X           Y           Z
 ---------------------------------------------------------------------
      1          6           0        0.643717    0.314111    0.048809
      2          8           0        1.808516   -0.092298   -0.052929
      3          6           0       -0.575746   -0.480014    0.035691
      4          6           0       -1.711647    0.169546   -0.049408
      5          1           0       -0.535264   -1.553479    0.185437
      6          1           0       -1.795918    1.308778    0.099866
      7          1           0       -2.737815   -0.399647   -0.157864
      8          1           0        0.462927    1.360869    0.085434
 ---------------------------------------------------------------------

 SCF Done:  E(RB2PLYPD3) =  -191.600209568     A.U. after   14 cycles
 E2(B2PLYPD3) =    -0.2489691857D+00 E(B2PLYPD3) =    -0.19184917875354D+03

 The electronic state is 1-A.
 Alpha  occ. eigenvalues --  -19.72610 -10.71328 -10.67126 -10.64518  -1.17681
 Alpha  occ. eigenvalues --   -0.94096  -0.74966  -0.67261  -0.56196  -0.55670
 Alpha  occ. eigenvalues --   -0.50157  -0.46683  -0.45202  -0.35044  -0.33795
 Alpha virt. eigenvalues --   -0.01933   0.05281   0.06422   0.07944   0.09491
 Alpha virt. eigenvalues --    0.12395   0.13962   0.15039   0.17644   0.19477
 Alpha virt. eigenvalues --    0.20129   0.20931   0.24858   0.26649   0.28911

 Mulliken charges:
               1
     1  C    0.150114
     2  O   -0.364306
     3  C   -0.022827
     4  C   -0.117267
     5  H    0.104126
     6  H    0.085345
     7  H    0.090210
     8  H    0.074603
 Sum of Mulliken charges =   0.00000

 Dipole moment (field-independent basis, Debye):
    X=             -3.7701    Y=              0.6696    Z=              0.3361  Tot=              3.8438
 Quadrupole moment (field-independent basis, Debye-Ang):
   XX=            -27.9807   YY=            -21.6781   ZZ=            -25.2131
   XY=              0.7846   XZ=              0.3520   YZ=             -0.0158

 Normal termination of Gaussian 09 at Wed Aug 26 10:37:03 2020.
