 Gaussian 09, Revision D.01,
 Gaussian 09:  ES64L-G09RevD.01 24-Apr-2013

 --------------------
 #p B2PLYPD3/Def2QZVP
 --------------------

 --------
 acrolein
 --------
 Symbolic Z-matrix:
 Charge =  0 Multiplicity = 1

                         Standard orientation:
 ---------------------------------------------------------------------
 Center     Atomic      Atomic             Coordinates (Angstroms)
 Number     Number       Type             X           Y           Z
 ---------------------------------------------------------------------
      1          6           0       -0.665986    0.347530    0.012427
      2          8           0       -1.785082   -0.112685   -0.022422
      3          6           0        0.568855   -0.457347    0.019287
      4          6           0        1.756046    0.149131   -0.027081
      5          1           0        0.406572   -1.577076    0.060032
      6          1           0        1.850777    1.221267   -0.015988
      7          1           0        2.625291   -0.403219    0.004364
      8          1           0       -0.555477    1.424628    0.103178
 ---------------------------------------------------------------------

 SCF Done:  E(RB2PLYPD3) =  -191.612967542     A.U. after   12 cycles
 E2(B2PLYPD3) =    -0.2468977150D+00 E(B2PLYPD3) =    -0.19185986525721D+03

 The electronic state is 1-A.
 Alpha  occ. eigenvalues --  -19.72603 -10.71214 -10.65038 -10.64863  -1.19409
 Alpha  occ. eigenvalues --   -0.92959  -0.75807  -0.66774  -0.56729  -0.56695
 Alpha  occ. eigenvalues --   -0.50579  -0.47066  -0.46467  -0.34682  -0.33703
 Alpha virt. eigenvalues --   -0.01669   0.05856   0.07026   0.08199   0.09724
 Alpha virt. eigenvalues --    0.12646   0.14166   0.15340   0.17136   0.19678
 Alpha virt. eigenvalues --    0.20097   0.21987   0.25356   0.26497   0.28701

 Mulliken charges:
               1
     1  C    0.157389
     2  O   -0.350626
     3  C   -0.042851
     4  C   -0.129919
     5  H    0.102105
     6  H    0.087303
     7  H    0.104251
     8  H    0.072347
 Sum of Mulliken charges =   0.00000

 Dipole moment (field-independent basis, Debye):
    X=              3.4828    Y=              0.7667    Z=              0.1429  Tot=              3.5691
 Quadrupole moment (field-independent basis, Debye-Ang):
   XX=            -27.5091   YY=            -21.5994   ZZ=            -25.1949
   XY=             -0.8122   XZ=             -0.1093   YZ=             -0.0583

 Normal termination of Gaussian 09 at Wed Aug 26 15:07:18 2020.
