 Gaussian 09, Revision D.01,
 Gaussian 09:  ES64L-G09RevD.01 24-Apr-2013

 --------------------
 #p B2PLYPD3/Def2QZVP
 --------------------

 --------
 acrolein
 --------
 Symbolic Z-matrix:
 Charge =  0 Multiplicity = 1

                         Standard orientation:
 ---------------------------------------------------------------------
 Center     Atomic      Atomic             Coordinates (Angstroms)
 Number     Number       Type             X           Y           Z
 ---------------------------------------------------------------------
      1          6           0       -0.699018    0.349055    0.065588
      2          8           0       -1.782762   -0.108569   -0.076302
      3          6           0        0.548497   -0.475207    0.071896
      4          6           0        1.772644    0.136296   -0.071559
      5          1           0        0.361549   -1.553534    0.191265
      6          1           0        1.872407    1.352147    0.095939
      7          1           0        2.781326   -0.443772   -0.175254
      8          1           0       -0.485930    1.452848    0.102915
 ---------------------------------------------------------------------

 SCF Done:  E(RB2PLYPD3) =  -191.592225994     A.U. after   13 cycles
 E2(B2PLYPD3) =    -0.2490622640D+00 E(B2PLYPD3) =    -0.19184128825754D+03

 The electronic state is 1-A.
 Alpha  occ. eigenvalues --  -19.73108 -10.71734 -10.68330 -10.65445  -1.21330
 Alpha  occ. eigenvalues --   -0.91051  -0.73772  -0.65955  -0.55964  -0.54603
 Alpha  occ. eigenvalues --   -0.50747  -0.47674  -0.45266  -0.33969  -0.33574
 Alpha virt. eigenvalues --   -0.01779   0.05067   0.06757   0.08004   0.09545
 Alpha virt. eigenvalues --    0.11797   0.13720   0.15306   0.17599   0.19196
 Alpha virt. eigenvalues --    0.19863   0.20652   0.24448   0.26677   0.28670

 Mulliken charges:
               1
     1  C    0.170926
     2  O   -0.329236
     3  C   -0.050129
     4  C   -0.133852
     5  H    0.105444
     6  H    0.077424
     7  H    0.101508
     8  H    0.057915
 Sum of Mulliken charges =   0.00000

 Dipole moment (field-independent basis, Debye):
    X=              3.2327    Y=              0.6490    Z=              0.3656  Tot=              3.3174
 Quadrupole moment (field-independent basis, Debye-Ang):
   XX=            -27.2872   YY=            -21.9326   ZZ=            -25.5905
   XY=             -0.7368   XZ=             -0.5746   YZ=              0.0291

 Normal termination of Gaussian 09 at Wed Aug 26 12:37:06 2020.
