 Gaussian 09, Revision D.01,
 Gaussian 09:  ES64L-G09RevD.01 24-Apr-2013

 --------------------
 #p B2PLYPD3/Def2QZVP
 --------------------

 --------
 acrolein
 --------
 Symbolic Z-matrix:
 Charge =  0 Multiplicity = 1

                         Standard orientation:
 ---------------------------------------------------------------------
 Center     Atomic      Atomic             Coordinates (Angstroms)
 Number     Number       Type             X           Y           Z
 ---------------------------------------------------------------------
      1          6           0        0.701166    0.372983   -0.040831
      2          8           0        1.770840   -0.149876    0.036135
      3          6           0       -0.564985   -0.436368   -0.041517
      4          6           0       -1.752799    0.128163    0.004583
      5          1           0       -0.474178   -1.471376    0.008948
      6          1           0       -1.822640    1.162264    0.084048
      7          1           0       -2.687210   -0.394683    0.099538
      8          1           0        0.517010    1.514136   -0.015030
 ---------------------------------------------------------------------

 SCF Done:  E(RB2PLYPD3) =  -191.611264006     A.U. after   12 cycles
 E2(B2PLYPD3) =    -0.2460385633D+00 E(B2PLYPD3) =    -0.19185730256963D+03

 The electronic state is 1-A.
 Alpha  occ. eigenvalues --  -19.73322 -10.72367 -10.64114 -10.63567  -1.20984
 Alpha  occ. eigenvalues --   -0.92905  -0.74840  -0.67164  -0.56820  -0.56559
 Alpha  occ. eigenvalues --   -0.51339  -0.47545  -0.46829  -0.34821  -0.33826
 Alpha virt. eigenvalues --   -0.01088   0.05882   0.07387   0.08099   0.09839
 Alpha virt. eigenvalues --    0.12615   0.13959   0.15491   0.17699   0.19706
 Alpha virt. eigenvalues --    0.20031   0.21760   0.25610   0.26336   0.28600

 Mulliken charges:
               1
     1  C    0.157240
     2  O   -0.329667
     3  C   -0.046934
     4  C   -0.126746
     5  H    0.107868
     6  H    0.074739
     7  H    0.095958
     8  H    0.067542
 Sum of Mulliken charges =   0.00000

 Dipole moment (field-independent basis, Debye):
    X=             -3.1806    Y=              0.8160    Z=              0.0408  Tot=              3.2839
 Quadrupole moment (field-independent basis, Debye-Ang):
   XX=            -27.1018   YY=            -21.9383   ZZ=            -25.0941
   XY=              1.0750   XZ=             -0.5652   YZ=              0.0103

 Normal termination of Gaussian 09 at Wed Aug 26 09:57:29 2020.
