 Gaussian 09, Revision D.01,
 Gaussian 09:  ES64L-G09RevD.01 24-Apr-2013

 --------------------
 #p B2PLYPD3/Def2QZVP
 --------------------

 --------
 acrolein
 --------
 Symbolic Z-matrix:
 Charge =  0 Multiplicity = 1

                         Standard orientation:
 ---------------------------------------------------------------------
 Center     Atomic      Atomic             Coordinates (Angstroms)
 Number     Number       Type             X           Y           Z
 ---------------------------------------------------------------------
      1          6           0       -0.659015    0.365602   -0.041046
      2          8           0       -1.783118   -0.125843    0.039229
      3          6           0        0.563498   -0.441920   -0.055944
      4          6           0        1.752669    0.136046    0.008200
      5          1           0        0.438943   -1.552930    0.018404
      6          1           0        1.832160    1.197185    0.062239
      7          1           0        2.565618   -0.415885    0.145853
      8          1           0       -0.514679    1.420009   -0.007586
 ---------------------------------------------------------------------

 SCF Done:  E(RB2PLYPD3) =  -191.607191875     A.U. after   13 cycles
 E2(B2PLYPD3) =    -0.2473290236D+00 E(B2PLYPD3) =    -0.19185452089830D+03

 The electronic state is 1-A.
 Alpha  occ. eigenvalues --  -19.72705 -10.71346 -10.64563 -10.64127  -1.18341
 Alpha  occ. eigenvalues --   -0.93585  -0.76562  -0.67322  -0.57406  -0.56721
 Alpha  occ. eigenvalues --   -0.50532  -0.46956  -0.46160  -0.34721  -0.34002
 Alpha virt. eigenvalues --   -0.01908   0.05860   0.07113   0.07983   0.09802
 Alpha virt. eigenvalues --    0.12790   0.14191   0.15316   0.17269   0.19824
 Alpha virt. eigenvalues --    0.19927   0.22412   0.25122   0.26688   0.28704

 Mulliken charges:
               1
     1  C    0.154056
     2  O   -0.361043
     3  C   -0.035678
     4  C   -0.127274
     5  H    0.101103
     6  H    0.081122
     7  H    0.104201
     8  H    0.083513
 Sum of Mulliken charges =   0.00000

 Dipole moment (field-independent basis, Debye):
    X=              3.5439    Y=              0.8533    Z=              0.0629  Tot=              3.6457
 Quadrupole moment (field-independent basis, Debye-Ang):
   XX=            -27.7213   YY=            -21.5212   ZZ=            -25.0707
   XY=             -0.9938   XZ=              0.6667   YZ=             -0.0726

 Normal termination of Gaussian 09 at Wed Aug 26 09:57:03 2020.
