 Gaussian 09, Revision D.01,
 Gaussian 09:  ES64L-G09RevD.01 24-Apr-2013

 --------------------
 #p B2PLYPD3/Def2QZVP
 --------------------

 --------
 acrolein
 --------
 Symbolic Z-matrix:
 Charge =  0 Multiplicity = 1

                         Standard orientation:
 ---------------------------------------------------------------------
 Center     Atomic      Atomic             Coordinates (Angstroms)
 Number     Number       Type             X           Y           Z
 ---------------------------------------------------------------------
      1          6           0        0.673672    0.357702    0.020737
      2          8           0        1.794185   -0.125260   -0.024103
      3          6           0       -0.566760   -0.442944    0.003714
      4          6           0       -1.755482    0.141377   -0.004956
      5          1           0       -0.447384   -1.544589    0.080600
      6          1           0       -1.832656    1.198496   -0.068178
      7          1           0       -2.671466   -0.425616   -0.032470
      8          1           0        0.489443    1.436972    0.095898
 ---------------------------------------------------------------------

 SCF Done:  E(RB2PLYPD3) =  -191.615224917     A.U. after   12 cycles
 E2(B2PLYPD3) =    -0.2475107258D+00 E(B2PLYPD3) =    -0.19186273564313D+03

 The electronic state is 1-A.
 Alpha  occ. eigenvalues --  -19.72997 -10.71814 -10.65043 -10.64547  -1.18976
 Alpha  occ. eigenvalues --   -0.93167  -0.75650  -0.66928  -0.56557  -0.56426
 Alpha  occ. eigenvalues --   -0.50668  -0.46829  -0.46266  -0.34818  -0.33973
 Alpha virt. eigenvalues --   -0.01788   0.05781   0.07059   0.08020   0.09748
 Alpha virt. eigenvalues --    0.12665   0.13976   0.15249   0.17371   0.19685
 Alpha virt. eigenvalues --    0.20122   0.21733   0.25295   0.26672   0.28665

 Mulliken charges:
               1
     1  C    0.155466
     2  O   -0.351931
     3  C   -0.035544
     4  C   -0.131628
     5  H    0.101681
     6  H    0.082867
     7  H    0.102756
     8  H    0.076333
 Sum of Mulliken charges =   0.00000

 Dipole moment (field-independent basis, Debye):
    X=             -3.5023    Y=              0.8103    Z=              0.0964  Tot=              3.5961
 Quadrupole moment (field-independent basis, Debye-Ang):
   XX=            -27.5371   YY=            -21.7338   ZZ=            -25.1997
   XY=              0.9254   XZ=              0.2652   YZ=             -0.1394

 Normal termination of Gaussian 09 at Wed Aug 26 18:39:55 2020.
