 Gaussian 09, Revision D.01,
 Gaussian 09:  ES64L-G09RevD.01 24-Apr-2013

 --------------------
 #p B2PLYPD3/Def2QZVP
 --------------------

 --------
 acrolein
 --------
 Symbolic Z-matrix:
 Charge =  0 Multiplicity = 1

                         Standard orientation:
 ---------------------------------------------------------------------
 Center     Atomic      Atomic             Coordinates (Angstroms)
 Number     Number       Type             X           Y           Z
 ---------------------------------------------------------------------
      1          6           0       -0.671334    0.364773   -0.060553
      2          8           0       -1.795628   -0.150452    0.074189
      3          6           0        0.561969   -0.402625   -0.074245
      4          6           0        1.757257    0.100642    0.013488
      5          1           0        0.443931   -1.448492   -0.177383
      6          1           0        1.903952    1.158934    0.050474
      7          1           0        2.594144   -0.471012    0.338044
      8          1           0       -0.464355    1.587445   -0.076784
 ---------------------------------------------------------------------

 SCF Done:  E(RB2PLYPD3) =  -191.596602123     A.U. after   13 cycles
 E2(B2PLYPD3) =    -0.2497045076D+00 E(B2PLYPD3) =    -0.19184630663102D+03

 The electronic state is 1-A.
 Alpha  occ. eigenvalues --  -19.73632 -10.73507 -10.64846 -10.63953  -1.18075
 Alpha  occ. eigenvalues --   -0.94226  -0.76205  -0.66126  -0.57198  -0.55689
 Alpha  occ. eigenvalues --   -0.50406  -0.47274  -0.45584  -0.35168  -0.33965
 Alpha virt. eigenvalues --   -0.02521   0.05628   0.06879   0.07980   0.09776
 Alpha virt. eigenvalues --    0.12345   0.13409   0.14961   0.17497   0.19127
 Alpha virt. eigenvalues --    0.19979   0.22315   0.25012   0.26454   0.28095

 Mulliken charges:
               1
     1  C    0.163463
     2  O   -0.354292
     3  C   -0.020569
     4  C   -0.111363
     5  H    0.103845
     6  H    0.072932
     7  H    0.100543
     8  H    0.045443
 Sum of Mulliken charges =   0.00000

 Dipole moment (field-independent basis, Debye):
    X=              3.5815    Y=              0.7006    Z=             -0.0761  Tot=              3.6502
 Quadrupole moment (field-independent basis, Debye-Ang):
   XX=            -27.5126   YY=            -22.1658   ZZ=            -25.0532
   XY=             -0.9282   XZ=              1.1349   YZ=              0.0357

 Normal termination of Gaussian 09 at Wed Aug 26 10:43:39 2020.
