 Gaussian 09, Revision D.01,
 Gaussian 09:  ES64L-G09RevD.01 24-Apr-2013

 --------------------
 #p B2PLYPD3/Def2QZVP
 --------------------

 --------
 acrolein
 --------
 Symbolic Z-matrix:
 Charge =  0 Multiplicity = 1

                         Standard orientation:
 ---------------------------------------------------------------------
 Center     Atomic      Atomic             Coordinates (Angstroms)
 Number     Number       Type             X           Y           Z
 ---------------------------------------------------------------------
      1          6           0        0.667361    0.348237    0.008849
      2          8           0        1.787711   -0.124398   -0.018731
      3          6           0       -0.555111   -0.435864    0.013420
      4          6           0       -1.748374    0.138935   -0.020964
      5          1           0       -0.441945   -1.555420    0.061691
      6          1           0       -1.813101    1.182047   -0.032346
      7          1           0       -2.712508   -0.417609    0.008929
      8          1           0        0.482607    1.478318    0.103739
 ---------------------------------------------------------------------

 SCF Done:  E(RB2PLYPD3) =  -191.611924027     A.U. after   12 cycles
 E2(B2PLYPD3) =    -0.2478971254D+00 E(B2PLYPD3) =    -0.19185982115239D+03

 The electronic state is 1-A.
 Alpha  occ. eigenvalues --  -19.73008 -10.72062 -10.65421 -10.64665  -1.19305
 Alpha  occ. eigenvalues --   -0.93427  -0.75625  -0.66267  -0.56642  -0.56185
 Alpha  occ. eigenvalues --   -0.50444  -0.46905  -0.46215  -0.34898  -0.33929
 Alpha virt. eigenvalues --   -0.01951   0.05727   0.06774   0.08324   0.09771
 Alpha virt. eigenvalues --    0.12548   0.13981   0.15305   0.17096   0.19758
 Alpha virt. eigenvalues --    0.20182   0.21537   0.25513   0.26394   0.28799

 Mulliken charges:
               1
     1  C    0.155788
     2  O   -0.347997
     3  C   -0.026029
     4  C   -0.128213
     5  H    0.099259
     6  H    0.084541
     7  H    0.102792
     8  H    0.059859
 Sum of Mulliken charges =   0.00000

 Dipole moment (field-independent basis, Debye):
    X=             -3.5492    Y=              0.7353    Z=              0.1168  Tot=              3.6264
 Quadrupole moment (field-independent basis, Debye-Ang):
   XX=            -27.2969   YY=            -21.9332   ZZ=            -25.2409
   XY=              0.8828   XZ=              0.0885   YZ=             -0.0803

 Normal termination of Gaussian 09 at Wed Aug 26 15:56:31 2020.
