 Gaussian 09, Revision D.01,
 Gaussian 09:  ES64L-G09RevD.01 24-Apr-2013

 --------------------
 #p B2PLYPD3/Def2QZVP
 --------------------

 --------
 acrolein
 --------
 Symbolic Z-matrix:
 Charge =  0 Multiplicity = 1

                         Standard orientation:
 ---------------------------------------------------------------------
 Center     Atomic      Atomic             Coordinates (Angstroms)
 Number     Number       Type             X           Y           Z
 ---------------------------------------------------------------------
      1          6           0        0.679103    0.353260   -0.022804
      2          8           0        1.776409   -0.130012    0.020729
      3          6           0       -0.554846   -0.436830   -0.022813
      4          6           0       -1.748192    0.143345    0.000682
      5          1           0       -0.448997   -1.537110   -0.006872
      6          1           0       -1.785812    1.163530    0.026165
      7          1           0       -2.739223   -0.403934    0.083067
      8          1           0        0.506374    1.458966    0.001416
 ---------------------------------------------------------------------

 SCF Done:  E(RB2PLYPD3) =  -191.611639079     A.U. after   12 cycles
 E2(B2PLYPD3) =    -0.2467320873D+00 E(B2PLYPD3) =    -0.19185837116633D+03

 The electronic state is 1-A.
 Alpha  occ. eigenvalues --  -19.72936 -10.71660 -10.65142 -10.64343  -1.20308
 Alpha  occ. eigenvalues --   -0.93166  -0.75301  -0.66942  -0.56982  -0.56100
 Alpha  occ. eigenvalues --   -0.50640  -0.47280  -0.46509  -0.34771  -0.33915
 Alpha virt. eigenvalues --   -0.01573   0.05763   0.07057   0.08337   0.09792
 Alpha virt. eigenvalues --    0.12558   0.14093   0.15376   0.17325   0.19812
 Alpha virt. eigenvalues --    0.20153   0.21540   0.25627   0.26327   0.28874

 Mulliken charges:
               1
     1  C    0.151541
     2  O   -0.340180
     3  C   -0.029856
     4  C   -0.132885
     5  H    0.101317
     6  H    0.084038
     7  H    0.100051
     8  H    0.065976
 Sum of Mulliken charges =   0.00000

 Dipole moment (field-independent basis, Debye):
    X=             -3.3865    Y=              0.7866    Z=              0.0182  Tot=              3.4767
 Quadrupole moment (field-independent basis, Debye-Ang):
   XX=            -27.1969   YY=            -21.9217   ZZ=            -25.1756
   XY=              0.9793   XZ=             -0.3478   YZ=             -0.0104

 Normal termination of Gaussian 09 at Wed Aug 26 20:15:49 2020.
