 Gaussian 09, Revision D.01,
 Gaussian 09:  ES64L-G09RevD.01 24-Apr-2013

 --------------------
 #p B2PLYPD3/Def2QZVP
 --------------------

 --------
 acrolein
 --------
 Symbolic Z-matrix:
 Charge =  0 Multiplicity = 1

                         Standard orientation:
 ---------------------------------------------------------------------
 Center     Atomic      Atomic             Coordinates (Angstroms)
 Number     Number       Type             X           Y           Z
 ---------------------------------------------------------------------
      1          6           0        0.670804    0.344577   -0.005334
      2          8           0        1.790464   -0.109333    0.005695
      3          6           0       -0.561876   -0.455838   -0.004587
      4          6           0       -1.757649    0.151776    0.001091
      5          1           0       -0.421031   -1.573524   -0.015895
      6          1           0       -1.854548    1.222465   -0.006937
      7          1           0       -2.678936   -0.416491    0.031058
      8          1           0        0.523133    1.399119   -0.000803
 ---------------------------------------------------------------------

 SCF Done:  E(RB2PLYPD3) =  -191.614861362     A.U. after   12 cycles
 E2(B2PLYPD3) =    -0.2470233626D+00 E(B2PLYPD3) =    -0.19186188472451D+03

 The electronic state is 1-A.
 Alpha  occ. eigenvalues --  -19.72634 -10.71015 -10.65608 -10.64970  -1.19547
 Alpha  occ. eigenvalues --   -0.92759  -0.75662  -0.67121  -0.56809  -0.56153
 Alpha  occ. eigenvalues --   -0.50511  -0.46825  -0.46677  -0.34566  -0.33808
 Alpha virt. eigenvalues --   -0.01788   0.05748   0.07098   0.08226   0.09688
 Alpha virt. eigenvalues --    0.12618   0.14124   0.15349   0.17303   0.19798
 Alpha virt. eigenvalues --    0.19995   0.21646   0.25403   0.26594   0.28650

 Mulliken charges:
               1
     1  C    0.156901
     2  O   -0.350596
     3  C   -0.038464
     4  C   -0.134376
     5  H    0.101664
     6  H    0.087913
     7  H    0.102782
     8  H    0.074174
 Sum of Mulliken charges =   0.00000

 Dipole moment (field-independent basis, Debye):
    X=             -3.5073    Y=              0.7783    Z=             -0.0124  Tot=              3.5926
 Quadrupole moment (field-independent basis, Debye-Ang):
   XX=            -27.4793   YY=            -21.6528   ZZ=            -25.2390
   XY=              0.7813   XZ=             -0.0857   YZ=             -0.0040

 Normal termination of Gaussian 09 at Wed Aug 26 18:48:10 2020.
