 Gaussian 09, Revision D.01,
 Gaussian 09:  ES64L-G09RevD.01 24-Apr-2013

 --------------------
 #p B2PLYPD3/Def2QZVP
 --------------------

 --------
 acrolein
 --------
 Symbolic Z-matrix:
 Charge =  0 Multiplicity = 1

                         Standard orientation:
 ---------------------------------------------------------------------
 Center     Atomic      Atomic             Coordinates (Angstroms)
 Number     Number       Type             X           Y           Z
 ---------------------------------------------------------------------
      1          6           0       -0.659771    0.349677   -0.030779
      2          8           0       -1.795744   -0.114325    0.037564
      3          6           0        0.565377   -0.449868   -0.059115
      4          6           0        1.753888    0.138998    0.015171
      5          1           0        0.362689   -1.575163    0.003710
      6          1           0        1.811189    1.170646    0.033011
      7          1           0        2.676223   -0.405664    0.143251
      8          1           0       -0.441120    1.491937   -0.032154
 ---------------------------------------------------------------------

 SCF Done:  E(RB2PLYPD3) =  -191.607919082     A.U. after   13 cycles
 E2(B2PLYPD3) =    -0.2488322216D+00 E(B2PLYPD3) =    -0.19185675130402D+03

 The electronic state is 1-A.
 Alpha  occ. eigenvalues --  -19.73140 -10.72404 -10.65245 -10.65099  -1.18569
 Alpha  occ. eigenvalues --   -0.93464  -0.75912  -0.66014  -0.56735  -0.56096
 Alpha  occ. eigenvalues --   -0.50411  -0.46500  -0.46406  -0.34885  -0.33895
 Alpha virt. eigenvalues --   -0.02142   0.05738   0.06824   0.08013   0.09831
 Alpha virt. eigenvalues --    0.12646   0.13734   0.15248   0.16739   0.19804
 Alpha virt. eigenvalues --    0.20177   0.21921   0.25082   0.26493   0.28671

 Mulliken charges:
               1
     1  C    0.163022
     2  O   -0.356746
     3  C   -0.026925
     4  C   -0.126079
     5  H    0.100126
     6  H    0.087480
     7  H    0.104818
     8  H    0.054303
 Sum of Mulliken charges =   0.00000

 Dipole moment (field-independent basis, Debye):
    X=              3.6080    Y=              0.7129    Z=              0.0305  Tot=              3.6779
 Quadrupole moment (field-independent basis, Debye-Ang):
   XX=            -27.4589   YY=            -21.9225   ZZ=            -25.2710
   XY=             -0.6184   XZ=              0.5981   YZ=             -0.0854

 Normal termination of Gaussian 09 at Wed Aug 26 09:07:27 2020.
