 Gaussian 09, Revision D.01,
 Gaussian 09:  ES64L-G09RevD.01 24-Apr-2013

 --------------------
 #p B2PLYPD3/Def2QZVP
 --------------------

 --------
 acrolein
 --------
 Symbolic Z-matrix:
 Charge =  0 Multiplicity = 1

                         Standard orientation:
 ---------------------------------------------------------------------
 Center     Atomic      Atomic             Coordinates (Angstroms)
 Number     Number       Type             X           Y           Z
 ---------------------------------------------------------------------
      1          6           0       -0.637632    0.305106   -0.079931
      2          8           0       -1.796402   -0.097660    0.053224
      3          6           0        0.579441   -0.460955    0.003373
      4          6           0        1.741042    0.183015    0.000957
      5          1           0        0.544432   -1.549692   -0.052899
      6          1           0        1.725065    1.214349    0.254917
      7          1           0        2.572003   -0.399919   -0.023068
      8          1           0       -0.567392    1.353540   -0.151140
 ---------------------------------------------------------------------

 SCF Done:  E(RB2PLYPD3) =  -191.602064202     A.U. after   14 cycles
 E2(B2PLYPD3) =    -0.2477212989D+00 E(B2PLYPD3) =    -0.19184978550040D+03

 The electronic state is 1-A.
 Alpha  occ. eigenvalues --  -19.72297 -10.70785 -10.64723 -10.64459  -1.17842
 Alpha  occ. eigenvalues --   -0.94362  -0.76578  -0.67628  -0.58266  -0.56099
 Alpha  occ. eigenvalues --   -0.49768  -0.48153  -0.45914  -0.34719  -0.33644
 Alpha virt. eigenvalues --   -0.02392   0.05908   0.07006   0.07838   0.09767
 Alpha virt. eigenvalues --    0.13078   0.14216   0.14993   0.17190   0.19531
 Alpha virt. eigenvalues --    0.20567   0.22017   0.24238   0.26336   0.28283

 Mulliken charges:
               1
     1  C    0.144465
     2  O   -0.362820
     3  C   -0.021443
     4  C   -0.124088
     5  H    0.094693
     6  H    0.094085
     7  H    0.101891
     8  H    0.073216
 Sum of Mulliken charges =   0.00000

 Dipole moment (field-independent basis, Debye):
    X=              3.7242    Y=              0.6511    Z=             -0.1172  Tot=              3.7825
 Quadrupole moment (field-independent basis, Debye-Ang):
   XX=            -27.9849   YY=            -21.5723   ZZ=            -24.9693
   XY=             -1.1760   XZ=              0.5492   YZ=              0.3724

 Normal termination of Gaussian 09 at Wed Aug 26 13:37:46 2020.
