 Gaussian 09, Revision D.01,
 Gaussian 09:  ES64L-G09RevD.01 24-Apr-2013

 --------------------
 #p B2PLYPD3/Def2QZVP
 --------------------

 --------
 acrolein
 --------
 Symbolic Z-matrix:
 Charge =  0 Multiplicity = 1

                         Standard orientation:
 ---------------------------------------------------------------------
 Center     Atomic      Atomic             Coordinates (Angstroms)
 Number     Number       Type             X           Y           Z
 ---------------------------------------------------------------------
      1          6           0       -0.666302    0.343328    0.012028
      2          8           0       -1.786772   -0.115949   -0.024856
      3          6           0        0.558661   -0.457501    0.025478
      4          6           0        1.755364    0.138916   -0.009579
      5          1           0        0.429726   -1.531303    0.050322
      6          1           0        1.850249    1.256879   -0.048236
      7          1           0        2.649487   -0.420144   -0.065867
      8          1           0       -0.521621    1.473706    0.095065
 ---------------------------------------------------------------------

 SCF Done:  E(RB2PLYPD3) =  -191.614359573     A.U. after   12 cycles
 E2(B2PLYPD3) =    -0.2476125575D+00 E(B2PLYPD3) =    -0.19186197213083D+03

 The electronic state is 1-A.
 Alpha  occ. eigenvalues --  -19.72787 -10.71803 -10.65787 -10.64583  -1.19457
 Alpha  occ. eigenvalues --   -0.92971  -0.75443  -0.66372  -0.56741  -0.55991
 Alpha  occ. eigenvalues --   -0.50484  -0.47050  -0.46629  -0.34690  -0.33710
 Alpha virt. eigenvalues --   -0.01849   0.05715   0.07048   0.08192   0.09711
 Alpha virt. eigenvalues --    0.12449   0.13953   0.15326   0.17369   0.19534
 Alpha virt. eigenvalues --    0.19991   0.21657   0.25350   0.26376   0.28786

 Mulliken charges:
               1
     1  C    0.159607
     2  O   -0.347985
     3  C   -0.042287
     4  C   -0.125966
     5  H    0.106616
     6  H    0.084068
     7  H    0.104550
     8  H    0.061397
 Sum of Mulliken charges =   0.00000

 Dipole moment (field-independent basis, Debye):
    X=              3.5214    Y=              0.6770    Z=              0.0449  Tot=              3.5862
 Quadrupole moment (field-independent basis, Debye-Ang):
   XX=            -27.4320   YY=            -21.7515   ZZ=            -25.2694
   XY=             -0.8607   XZ=             -0.3473   YZ=             -0.0484

 Normal termination of Gaussian 09 at Wed Aug 26 19:11:09 2020.
