 Gaussian 09, Revision D.01,
 Gaussian 09:  ES64L-G09RevD.01 24-Apr-2013

 --------------------
 #p B2PLYPD3/Def2QZVP
 --------------------

 --------
 acrolein
 --------
 Symbolic Z-matrix:
 Charge =  0 Multiplicity = 1

                         Standard orientation:
 ---------------------------------------------------------------------
 Center     Atomic      Atomic             Coordinates (Angstroms)
 Number     Number       Type             X           Y           Z
 ---------------------------------------------------------------------
      1          6           0       -0.666340    0.324660   -0.071589
      2          8           0       -1.823549   -0.093485    0.047701
      3          6           0        0.604546   -0.497257    0.001460
      4          6           0        1.771282    0.183335    0.003087
      5          1           0        0.420241   -1.570850   -0.039115
      6          1           0        1.721647    1.220073    0.255979
      7          1           0        2.626177   -0.391601   -0.045177
      8          1           0       -0.436597    1.425830   -0.151043
 ---------------------------------------------------------------------

 SCF Done:  E(RB2PLYPD3) =  -191.602293561     A.U. after   14 cycles
 E2(B2PLYPD3) =    -0.2496136879D+00 E(B2PLYPD3) =    -0.19185190724877D+03

 The electronic state is 1-A.
 Alpha  occ. eigenvalues --  -19.73251 -10.72458 -10.65375 -10.65219  -1.18068
 Alpha  occ. eigenvalues --   -0.92924  -0.75398  -0.66768  -0.57153  -0.55169
 Alpha  occ. eigenvalues --   -0.50323  -0.48161  -0.45711  -0.34483  -0.33645
 Alpha virt. eigenvalues --   -0.02293   0.05828   0.07122   0.07138   0.09768
 Alpha virt. eigenvalues --    0.12864   0.13615   0.15139   0.16800   0.19458
 Alpha virt. eigenvalues --    0.20570   0.21718   0.23834   0.26589   0.28281

 Mulliken charges:
               1
     1  C    0.161948
     2  O   -0.356271
     3  C   -0.041954
     4  C   -0.132881
     5  H    0.103323
     6  H    0.097192
     7  H    0.105658
     8  H    0.062986
 Sum of Mulliken charges =   0.00000

 Dipole moment (field-independent basis, Debye):
    X=              3.5513    Y=              0.6018    Z=             -0.0944  Tot=              3.6031
 Quadrupole moment (field-independent basis, Debye-Ang):
   XX=            -28.1565   YY=            -21.6895   ZZ=            -25.2857
   XY=             -0.7334   XZ=              0.4651   YZ=              0.3753

 Normal termination of Gaussian 09 at Wed Aug 26 12:13:48 2020.
