 Gaussian 09, Revision D.01,
 Gaussian 09:  ES64L-G09RevD.01 24-Apr-2013

 --------------------
 #p B2PLYPD3/Def2QZVP
 --------------------

 --------
 acrolein
 --------
 Symbolic Z-matrix:
 Charge =  0 Multiplicity = 1

                         Standard orientation:
 ---------------------------------------------------------------------
 Center     Atomic      Atomic             Coordinates (Angstroms)
 Number     Number       Type             X           Y           Z
 ---------------------------------------------------------------------
      1          6           0       -0.665761    0.343310    0.016678
      2          8           0       -1.783315   -0.110739   -0.016385
      3          6           0        0.556161   -0.457571    0.013996
      4          6           0        1.756295    0.151150   -0.017203
      5          1           0        0.422897   -1.557816    0.038205
      6          1           0        1.822588    1.222527    0.021926
      7          1           0        2.701024   -0.393618   -0.028887
      8          1           0       -0.560155    1.393486    0.019015
 ---------------------------------------------------------------------

 SCF Done:  E(RB2PLYPD3) =  -191.614608098     A.U. after   12 cycles
 E2(B2PLYPD3) =    -0.2468427331D+00 E(B2PLYPD3) =    -0.19186145083145D+03

 The electronic state is 1-A.
 Alpha  occ. eigenvalues --  -19.72425 -10.70742 -10.65761 -10.64847  -1.19583
 Alpha  occ. eigenvalues --   -0.92773  -0.75610  -0.67486  -0.56957  -0.56200
 Alpha  occ. eigenvalues --   -0.50410  -0.47025  -0.46667  -0.34457  -0.33778
 Alpha virt. eigenvalues --   -0.01829   0.05743   0.07181   0.08267   0.09692
 Alpha virt. eigenvalues --    0.12568   0.14230   0.15347   0.17401   0.19873
 Alpha virt. eigenvalues --    0.20006   0.21462   0.25374   0.26470   0.29052

 Mulliken charges:
               1
     1  C    0.153341
     2  O   -0.351263
     3  C   -0.038025
     4  C   -0.132514
     5  H    0.104663
     6  H    0.086418
     7  H    0.102375
     8  H    0.075006
 Sum of Mulliken charges =   0.00000

 Dipole moment (field-independent basis, Debye):
    X=              3.5147    Y=              0.7819    Z=              0.0900  Tot=              3.6017
 Quadrupole moment (field-independent basis, Debye-Ang):
   XX=            -27.3940   YY=            -21.6595   ZZ=            -25.2154
   XY=             -0.8905   XZ=             -0.0984   YZ=              0.0003

 Normal termination of Gaussian 09 at Wed Aug 26 20:12:59 2020.
