 Gaussian 09, Revision D.01,
 Gaussian 09:  ES64L-G09RevD.01 24-Apr-2013

 --------------------
 #p B2PLYPD3/Def2QZVP
 --------------------

 --------
 acrolein
 --------
 Symbolic Z-matrix:
 Charge =  0 Multiplicity = 1

                         Standard orientation:
 ---------------------------------------------------------------------
 Center     Atomic      Atomic             Coordinates (Angstroms)
 Number     Number       Type             X           Y           Z
 ---------------------------------------------------------------------
      1          6           0       -0.681469    0.371189   -0.011051
      2          8           0       -1.778672   -0.143154    0.024209
      3          6           0        0.580759   -0.439459   -0.037677
      4          6           0        1.739281    0.135001    0.011402
      5          1           0        0.502932   -1.522188   -0.040864
      6          1           0        1.781664    1.171952   -0.004835
      7          1           0        2.614358   -0.375747    0.121598
      8          1           0       -0.501007    1.470829   -0.045614
 ---------------------------------------------------------------------

 SCF Done:  E(RB2PLYPD3) =  -191.610665005     A.U. after   13 cycles
 E2(B2PLYPD3) =    -0.2461266960D+00 E(B2PLYPD3) =    -0.19185679170083D+03

 The electronic state is 1-A.
 Alpha  occ. eigenvalues --  -19.73167 -10.72171 -10.63719 -10.63199  -1.19624
 Alpha  occ. eigenvalues --   -0.93747  -0.75411  -0.67200  -0.57419  -0.56633
 Alpha  occ. eigenvalues --   -0.51225  -0.47015  -0.46546  -0.35186  -0.33936
 Alpha virt. eigenvalues --   -0.01074   0.05959   0.07248   0.08035   0.09840
 Alpha virt. eigenvalues --    0.12778   0.14251   0.15383   0.17303   0.19779
 Alpha virt. eigenvalues --    0.20150   0.22126   0.25729   0.26484   0.28667

 Mulliken charges:
               1
     1  C    0.151928
     2  O   -0.342475
     3  C   -0.035602
     4  C   -0.127636
     5  H    0.100000
     6  H    0.074568
     7  H    0.100171
     8  H    0.079046
 Sum of Mulliken charges =   0.00000

 Dipole moment (field-independent basis, Debye):
    X=              3.3285    Y=              0.8560    Z=             -0.0128  Tot=              3.4368
 Quadrupole moment (field-independent basis, Debye-Ang):
   XX=            -27.4439   YY=            -21.7211   ZZ=            -24.9949
   XY=             -1.1358   XZ=              0.3964   YZ=             -0.0543

 Normal termination of Gaussian 09 at Wed Aug 26 09:35:07 2020.
