 Gaussian 09, Revision D.01,
 Gaussian 09:  ES64L-G09RevD.01 24-Apr-2013

 --------------------
 #p B2PLYPD3/Def2QZVP
 --------------------

 --------
 acrolein
 --------
 Symbolic Z-matrix:
 Charge =  0 Multiplicity = 1

                         Standard orientation:
 ---------------------------------------------------------------------
 Center     Atomic      Atomic             Coordinates (Angstroms)
 Number     Number       Type             X           Y           Z
 ---------------------------------------------------------------------
      1          6           0        0.688176    0.358810   -0.028602
      2          8           0        1.779626   -0.133095    0.024321
      3          6           0       -0.557652   -0.446538   -0.007783
      4          6           0       -1.761254    0.138269    0.004354
      5          1           0       -0.433270   -1.501567   -0.034333
      6          1           0       -1.836467    1.176624    0.098543
      7          1           0       -2.699074   -0.413606    0.002404
      8          1           0        0.516185    1.500059   -0.068998
 ---------------------------------------------------------------------

 SCF Done:  E(RB2PLYPD3) =  -191.614330203     A.U. after   12 cycles
 E2(B2PLYPD3) =    -0.2468116453D+00 E(B2PLYPD3) =    -0.19186114184835D+03

 The electronic state is 1-A.
 Alpha  occ. eigenvalues --  -19.73083 -10.72094 -10.65024 -10.64248  -1.20483
 Alpha  occ. eigenvalues --   -0.92654  -0.75165  -0.66807  -0.56584  -0.56403
 Alpha  occ. eigenvalues --   -0.50855  -0.47247  -0.47216  -0.34541  -0.33780
 Alpha virt. eigenvalues --   -0.01568   0.05831   0.07260   0.08128   0.09812
 Alpha virt. eigenvalues --    0.12551   0.13916   0.15409   0.17454   0.19769
 Alpha virt. eigenvalues --    0.20146   0.21624   0.25330   0.26371   0.28698

 Mulliken charges:
               1
     1  C    0.157934
     2  O   -0.336764
     3  C   -0.043095
     4  C   -0.132536
     5  H    0.107593
     6  H    0.084804
     7  H    0.099844
     8  H    0.062221
 Sum of Mulliken charges =   0.00000

 Dipole moment (field-independent basis, Debye):
    X=             -3.3344    Y=              0.7495    Z=             -0.0503  Tot=              3.4180
 Quadrupole moment (field-independent basis, Debye-Ang):
   XX=            -27.1811   YY=            -21.8943   ZZ=            -25.2141
   XY=              0.9204   XZ=             -0.2591   YZ=              0.1419

 Normal termination of Gaussian 09 at Wed Aug 26 14:53:22 2020.
