 Gaussian 09, Revision D.01,
 Gaussian 09:  ES64L-G09RevD.01 24-Apr-2013

 --------------------
 #p B2PLYPD3/Def2QZVP
 --------------------

 --------
 acrolein
 --------
 Symbolic Z-matrix:
 Charge =  0 Multiplicity = 1

                         Standard orientation:
 ---------------------------------------------------------------------
 Center     Atomic      Atomic             Coordinates (Angstroms)
 Number     Number       Type             X           Y           Z
 ---------------------------------------------------------------------
      1          6           0       -0.677271    0.348036    0.003573
      2          8           0       -1.788350   -0.114351   -0.004279
      3          6           0        0.572741   -0.470569    0.002383
      4          6           0        1.755468    0.150459   -0.013793
      5          1           0        0.456359   -1.525601    0.008850
      6          1           0        1.883523    1.258439   -0.007017
      7          1           0        2.624523   -0.405339    0.045269
      8          1           0       -0.563225    1.419756    0.034151
 ---------------------------------------------------------------------

 SCF Done:  E(RB2PLYPD3) =  -191.613710910     A.U. after   12 cycles
 E2(B2PLYPD3) =    -0.2463508666D+00 E(B2PLYPD3) =    -0.19186006177609D+03

 The electronic state is 1-A.
 Alpha  occ. eigenvalues --  -19.72615 -10.71200 -10.65145 -10.64424  -1.19836
 Alpha  occ. eigenvalues --   -0.92671  -0.75279  -0.67462  -0.56702  -0.56514
 Alpha  occ. eigenvalues --   -0.50765  -0.47300  -0.46753  -0.34608  -0.33630
 Alpha virt. eigenvalues --   -0.01393   0.05794   0.07371   0.08052   0.09655
 Alpha virt. eigenvalues --    0.12584   0.14170   0.15404   0.17629   0.19539
 Alpha virt. eigenvalues --    0.19998   0.21842   0.25351   0.26455   0.28557

 Mulliken charges:
               1
     1  C    0.156207
     2  O   -0.345546
     3  C   -0.055042
     4  C   -0.128547
     5  H    0.109703
     6  H    0.085259
     7  H    0.100055
     8  H    0.077911
 Sum of Mulliken charges =   0.00000

 Dipole moment (field-independent basis, Debye):
    X=              3.4154    Y=              0.7620    Z=              0.0677  Tot=              3.5000
 Quadrupole moment (field-independent basis, Debye-Ang):
   XX=            -27.5282   YY=            -21.5315   ZZ=            -25.1827
   XY=             -0.8650   XZ=              0.0826   YZ=             -0.0303

 Normal termination of Gaussian 09 at Wed Aug 26 18:54:37 2020.
