 Gaussian 09, Revision D.01,
 Gaussian 09:  ES64L-G09RevD.01 24-Apr-2013

 --------------------
 #p B2PLYPD3/Def2QZVP
 --------------------

 --------
 acrolein
 --------
 Symbolic Z-matrix:
 Charge =  0 Multiplicity = 1

                         Standard orientation:
 ---------------------------------------------------------------------
 Center     Atomic      Atomic             Coordinates (Angstroms)
 Number     Number       Type             X           Y           Z
 ---------------------------------------------------------------------
      1          6           0        0.669334    0.336551   -0.012927
      2          8           0        1.786785   -0.112620    0.015652
      3          6           0       -0.562402   -0.459703   -0.010791
      4          6           0       -1.746541    0.150990    0.007942
      5          1           0       -0.451438   -1.518649   -0.049890
      6          1           0       -1.841789    1.233246   -0.009146
      7          1           0       -2.701891   -0.409261    0.055458
      8          1           0        0.538491    1.428599   -0.026980
 ---------------------------------------------------------------------

 SCF Done:  E(RB2PLYPD3) =  -191.616498654     A.U. after   12 cycles
 E2(B2PLYPD3) =    -0.2467213002D+00 E(B2PLYPD3) =    -0.19186321995405D+03

 The electronic state is 1-A.
 Alpha  occ. eigenvalues --  -19.72627 -10.71265 -10.65827 -10.64311  -1.19781
 Alpha  occ. eigenvalues --   -0.93057  -0.75182  -0.67253  -0.56746  -0.56232
 Alpha  occ. eigenvalues --   -0.50541  -0.47149  -0.46739  -0.34750  -0.33687
 Alpha virt. eigenvalues --   -0.01632   0.05708   0.07212   0.08289   0.09684
 Alpha virt. eigenvalues --    0.12511   0.14081   0.15334   0.17620   0.19802
 Alpha virt. eigenvalues --    0.19954   0.21371   0.25484   0.26383   0.28805

 Mulliken charges:
               1
     1  C    0.153299
     2  O   -0.346874
     3  C   -0.038687
     4  C   -0.128592
     5  H    0.108160
     6  H    0.087095
     7  H    0.097961
     8  H    0.067637
 Sum of Mulliken charges =   0.00000

 Dipole moment (field-independent basis, Debye):
    X=             -3.4967    Y=              0.7217    Z=             -0.0639  Tot=              3.5710
 Quadrupole moment (field-independent basis, Debye-Ang):
   XX=            -27.3904   YY=            -21.7522   ZZ=            -25.1927
   XY=              0.8418   XZ=             -0.1726   YZ=              0.0197

 Normal termination of Gaussian 09 at Wed Aug 26 19:54:27 2020.
