 Gaussian 09, Revision D.01,
 Gaussian 09:  ES64L-G09RevD.01 24-Apr-2013

 --------------------
 #p B2PLYPD3/Def2QZVP
 --------------------

 --------
 acrolein
 --------
 Symbolic Z-matrix:
 Charge =  0 Multiplicity = 1

                         Standard orientation:
 ---------------------------------------------------------------------
 Center     Atomic      Atomic             Coordinates (Angstroms)
 Number     Number       Type             X           Y           Z
 ---------------------------------------------------------------------
      1          6           0        0.664110    0.336288    0.038422
      2          8           0        1.827130   -0.097714   -0.062156
      3          6           0       -0.601739   -0.487261    0.084937
      4          6           0       -1.724540    0.149900   -0.080951
      5          1           0       -0.577322   -1.461519    0.094298
      6          1           0       -1.986949    1.356587    0.010651
      7          1           0       -2.555428   -0.431203   -0.077370
      8          1           0        0.475668    1.324285    0.215223
 ---------------------------------------------------------------------

 SCF Done:  E(RB2PLYPD3) =  -191.576149978     A.U. after   13 cycles
 E2(B2PLYPD3) =    -0.2482790264D+00 E(B2PLYPD3) =    -0.19182442900481D+03

 The electronic state is 1-A.
 Alpha  occ. eigenvalues --  -19.72928 -10.71509 -10.65589 -10.63489  -1.17342
 Alpha  occ. eigenvalues --   -0.94232  -0.75981  -0.68716  -0.57365  -0.55667
 Alpha  occ. eigenvalues --   -0.50921  -0.46287  -0.45305  -0.35370  -0.33840
 Alpha virt. eigenvalues --   -0.01615   0.05321   0.06703   0.07951   0.09294
 Alpha virt. eigenvalues --    0.12509   0.13968   0.15339   0.18044   0.18741
 Alpha virt. eigenvalues --    0.20037   0.21763   0.24498   0.26717   0.27730

 Mulliken charges:
               1
     1  C    0.160170
     2  O   -0.365247
     3  C   -0.063673
     4  C   -0.104929
     5  H    0.110469
     6  H    0.076113
     7  H    0.088008
     8  H    0.099090
 Sum of Mulliken charges =   0.00000

 Dipole moment (field-independent basis, Debye):
    X=             -3.7002    Y=              0.7133    Z=              0.3165  Tot=              3.7816
 Quadrupole moment (field-independent basis, Debye-Ang):
   XX=            -28.0416   YY=            -21.4165   ZZ=            -25.0811
   XY=              0.7134   XZ=              0.4115   YZ=              0.0754

 Normal termination of Gaussian 09 at Wed Aug 26 10:53:11 2020.
