 Gaussian 09, Revision D.01,
 Gaussian 09:  ES64L-G09RevD.01 24-Apr-2013

 --------------------
 #p B2PLYPD3/Def2QZVP
 --------------------

 --------
 acrolein
 --------
 Symbolic Z-matrix:
 Charge =  0 Multiplicity = 1

                         Standard orientation:
 ---------------------------------------------------------------------
 Center     Atomic      Atomic             Coordinates (Angstroms)
 Number     Number       Type             X           Y           Z
 ---------------------------------------------------------------------
      1          6           0       -0.675580    0.354373   -0.019944
      2          8           0       -1.793914   -0.117017    0.010853
      3          6           0        0.562261   -0.463082   -0.010925
      4          6           0        1.758576    0.142089   -0.000156
      5          1           0        0.449669   -1.552421    0.020422
      6          1           0        1.883228    1.262871    0.020472
      7          1           0        2.650903   -0.425768    0.030154
      8          1           0       -0.504035    1.451178    0.028275
 ---------------------------------------------------------------------

 SCF Done:  E(RB2PLYPD3) =  -191.614202892     A.U. after   12 cycles
 E2(B2PLYPD3) =    -0.2477422975D+00 E(B2PLYPD3) =    -0.19186194518955D+03

 The electronic state is 1-A.
 Alpha  occ. eigenvalues --  -19.72872 -10.71801 -10.65747 -10.64807  -1.19325
 Alpha  occ. eigenvalues --   -0.92567  -0.75226  -0.66623  -0.56468  -0.55957
 Alpha  occ. eigenvalues --   -0.50532  -0.46797  -0.46531  -0.34563  -0.33813
 Alpha virt. eigenvalues --   -0.01744   0.05676   0.07081   0.07958   0.09649
 Alpha virt. eigenvalues --    0.12469   0.14020   0.15364   0.17416   0.19522
 Alpha virt. eigenvalues --    0.19984   0.21669   0.25302   0.26515   0.28534

 Mulliken charges:
               1
     1  C    0.160918
     2  O   -0.348421
     3  C   -0.048248
     4  C   -0.129500
     5  H    0.106191
     6  H    0.083062
     7  H    0.102598
     8  H    0.073401
 Sum of Mulliken charges =   0.00000

 Dipole moment (field-independent basis, Debye):
    X=              3.4862    Y=              0.7506    Z=              0.0259  Tot=              3.5662
 Quadrupole moment (field-independent basis, Debye-Ang):
   XX=            -27.5604   YY=            -21.6129   ZZ=            -25.3229
   XY=             -0.8405   XZ=              0.1686   YZ=             -0.0128

 Normal termination of Gaussian 09 at Wed Aug 26 13:46:22 2020.
