 Gaussian 09, Revision D.01,
 Gaussian 09:  ES64L-G09RevD.01 24-Apr-2013

 --------------------
 #p B2PLYPD3/Def2QZVP
 --------------------

 --------
 acrolein
 --------
 Symbolic Z-matrix:
 Charge =  0 Multiplicity = 1

                         Standard orientation:
 ---------------------------------------------------------------------
 Center     Atomic      Atomic             Coordinates (Angstroms)
 Number     Number       Type             X           Y           Z
 ---------------------------------------------------------------------
      1          6           0       -0.666917    0.339188    0.041814
      2          8           0       -1.784426   -0.100576   -0.043931
      3          6           0        0.555020   -0.482785    0.019846
      4          6           0        1.756407    0.149162   -0.010861
      5          1           0        0.428608   -1.580705    0.089518
      6          1           0        1.882389    1.301376   -0.093490
      7          1           0        2.661267   -0.379043   -0.076052
      8          1           0       -0.563915    1.429594    0.126683
 ---------------------------------------------------------------------

 SCF Done:  E(RB2PLYPD3) =  -191.609237981     A.U. after   13 cycles
 E2(B2PLYPD3) =    -0.2476346628D+00 E(B2PLYPD3) =    -0.19185687264426D+03

 The electronic state is 1-A.
 Alpha  occ. eigenvalues --  -19.72448 -10.71209 -10.66352 -10.65315  -1.19747
 Alpha  occ. eigenvalues --   -0.92220  -0.75165  -0.66585  -0.56555  -0.55887
 Alpha  occ. eigenvalues --   -0.50389  -0.46881  -0.46418  -0.34336  -0.33592
 Alpha virt. eigenvalues --   -0.01792   0.05607   0.07038   0.08022   0.09553
 Alpha virt. eigenvalues --    0.12364   0.14247   0.15263   0.17391   0.19409
 Alpha virt. eigenvalues --    0.19999   0.21532   0.24954   0.26347   0.28875

 Mulliken charges:
               1
     1  C    0.157108
     2  O   -0.345517
     3  C   -0.051090
     4  C   -0.124809
     5  H    0.108455
     6  H    0.081339
     7  H    0.102338
     8  H    0.072176
 Sum of Mulliken charges =   0.00000

 Dipole moment (field-independent basis, Debye):
    X=              3.4926    Y=              0.6882    Z=              0.1272  Tot=              3.5620
 Quadrupole moment (field-independent basis, Debye-Ang):
   XX=            -27.4511   YY=            -21.5661   ZZ=            -25.3573
   XY=             -0.7485   XZ=             -0.5249   YZ=             -0.1702

 Normal termination of Gaussian 09 at Wed Aug 26 09:22:41 2020.
