 Gaussian 09, Revision D.01,
 Gaussian 09:  ES64L-G09RevD.01 24-Apr-2013

 --------------------
 #p B2PLYPD3/Def2QZVP
 --------------------

 --------
 acrolein
 --------
 Symbolic Z-matrix:
 Charge =  0 Multiplicity = 1

                         Standard orientation:
 ---------------------------------------------------------------------
 Center     Atomic      Atomic             Coordinates (Angstroms)
 Number     Number       Type             X           Y           Z
 ---------------------------------------------------------------------
      1          6           0       -0.681614    0.358383    0.051841
      2          8           0       -1.770592   -0.127546   -0.040356
      3          6           0        0.549496   -0.429598    0.046681
      4          6           0        1.764022    0.140585   -0.032326
      5          1           0        0.383774   -1.565023   -0.000474
      6          1           0        1.763220    1.179289   -0.018689
      7          1           0        2.738145   -0.426054   -0.051223
      8          1           0       -0.511827    1.415934   -0.003945
 ---------------------------------------------------------------------

 SCF Done:  E(RB2PLYPD3) =  -191.608486863     A.U. after   12 cycles
 E2(B2PLYPD3) =    -0.2469982453D+00 E(B2PLYPD3) =    -0.19185548510858D+03

 The electronic state is 1-A.
 Alpha  occ. eigenvalues --  -19.72841 -10.71069 -10.65578 -10.64814  -1.20512
 Alpha  occ. eigenvalues --   -0.92703  -0.75579  -0.66928  -0.56777  -0.56112
 Alpha  occ. eigenvalues --   -0.50836  -0.47362  -0.45964  -0.34546  -0.33885
 Alpha virt. eigenvalues --   -0.01774   0.05779   0.07034   0.08280   0.09853
 Alpha virt. eigenvalues --    0.12513   0.13939   0.15394   0.17252   0.19796
 Alpha virt. eigenvalues --    0.20098   0.21425   0.25300   0.26771   0.29080

 Mulliken charges:
               1
     1  C    0.157869
     2  O   -0.341766
     3  C   -0.034353
     4  C   -0.139487
     5  H    0.096598
     6  H    0.083580
     7  H    0.108961
     8  H    0.068598
 Sum of Mulliken charges =   0.00000

 Dipole moment (field-independent basis, Debye):
    X=              3.3453    Y=              0.8316    Z=              0.0837  Tot=              3.4482
 Quadrupole moment (field-independent basis, Debye-Ang):
   XX=            -27.1757   YY=            -21.9058   ZZ=            -25.2439
   XY=             -1.0336   XZ=             -0.3518   YZ=              0.0378

 Normal termination of Gaussian 09 at Wed Aug 26 08:58:24 2020.
