 Gaussian 09, Revision D.01,
 Gaussian 09:  ES64L-G09RevD.01 24-Apr-2013

 --------------------
 #p B2PLYPD3/Def2QZVP
 --------------------

 --------
 acrolein
 --------
 Symbolic Z-matrix:
 Charge =  0 Multiplicity = 1

                         Standard orientation:
 ---------------------------------------------------------------------
 Center     Atomic      Atomic             Coordinates (Angstroms)
 Number     Number       Type             X           Y           Z
 ---------------------------------------------------------------------
      1          6           0       -0.654025    0.330830   -0.038070
      2          8           0       -1.795615   -0.104388    0.022777
      3          6           0        0.560266   -0.460040   -0.005750
      4          6           0        1.745120    0.136450    0.012539
      5          1           0        0.469003   -1.556305    0.006229
      6          1           0        1.861710    1.323265    0.090480
      7          1           0        2.614596   -0.424263   -0.048372
      8          1           0       -0.488557    1.448965   -0.042862
 ---------------------------------------------------------------------

 SCF Done:  E(RB2PLYPD3) =  -191.605849271     A.U. after   13 cycles
 E2(B2PLYPD3) =    -0.2484031946D+00 E(B2PLYPD3) =    -0.19185425246540D+03

 The electronic state is 1-A.
 Alpha  occ. eigenvalues --  -19.72739 -10.71734 -10.66254 -10.64637  -1.18675
 Alpha  occ. eigenvalues --   -0.93494  -0.75758  -0.66028  -0.56963  -0.55527
 Alpha  occ. eigenvalues --   -0.50285  -0.46596  -0.46143  -0.34899  -0.33766
 Alpha virt. eigenvalues --   -0.02069   0.05474   0.06824   0.08234   0.09635
 Alpha virt. eigenvalues --    0.12297   0.14010   0.15292   0.17257   0.19165
 Alpha virt. eigenvalues --    0.20010   0.21777   0.25374   0.26425   0.28793

 Mulliken charges:
               1
     1  C    0.160984
     2  O   -0.354192
     3  C   -0.036722
     4  C   -0.122219
     5  H    0.101421
     6  H    0.081246
     7  H    0.107623
     8  H    0.061860
 Sum of Mulliken charges =   0.00000

 Dipole moment (field-independent basis, Debye):
    X=              3.6570    Y=              0.6221    Z=             -0.0701  Tot=              3.7102
 Quadrupole moment (field-independent basis, Debye-Ang):
   XX=            -27.6450   YY=            -21.6804   ZZ=            -25.2882
   XY=             -0.8599   XZ=              0.1258   YZ=              0.1209

 Normal termination of Gaussian 09 at Wed Aug 26 09:04:53 2020.
