 Gaussian 09, Revision D.01,
 Gaussian 09:  ES64L-G09RevD.01 24-Apr-2013

 --------------------
 #p B2PLYPD3/Def2QZVP
 --------------------

 --------
 acrolein
 --------
 Symbolic Z-matrix:
 Charge =  0 Multiplicity = 1

                         Standard orientation:
 ---------------------------------------------------------------------
 Center     Atomic      Atomic             Coordinates (Angstroms)
 Number     Number       Type             X           Y           Z
 ---------------------------------------------------------------------
      1          6           0        0.664050    0.339722    0.024596
      2          8           0        1.796097   -0.105867   -0.024654
      3          6           0       -0.558657   -0.465865    0.003382
      4          6           0       -1.750070    0.138220   -0.006312
      5          1           0       -0.470677   -1.533401    0.070438
      6          1           0       -1.867929    1.280788   -0.066717
      7          1           0       -2.637979   -0.398019   -0.025569
      8          1           0        0.475866    1.425104    0.089087
 ---------------------------------------------------------------------

 SCF Done:  E(RB2PLYPD3) =  -191.612205045     A.U. after   12 cycles
 E2(B2PLYPD3) =    -0.2476552287D+00 E(B2PLYPD3) =    -0.19185986027367D+03

 The electronic state is 1-A.
 Alpha  occ. eigenvalues --  -19.72781 -10.71574 -10.65822 -10.64463  -1.19032
 Alpha  occ. eigenvalues --   -0.93134  -0.75743  -0.66917  -0.56904  -0.55926
 Alpha  occ. eigenvalues --   -0.50615  -0.46848  -0.46405  -0.34715  -0.33859
 Alpha virt. eigenvalues --   -0.01908   0.05644   0.07147   0.08074   0.09627
 Alpha virt. eigenvalues --    0.12548   0.14121   0.15245   0.17560   0.19464
 Alpha virt. eigenvalues --    0.20027   0.21646   0.25201   0.26638   0.28690

 Mulliken charges:
               1
     1  C    0.157535
     2  O   -0.351951
     3  C   -0.040114
     4  C   -0.125022
     5  H    0.105539
     6  H    0.078547
     7  H    0.103404
     8  H    0.072062
 Sum of Mulliken charges =   0.00000

 Dipole moment (field-independent basis, Debye):
    X=             -3.5990    Y=              0.6854    Z=              0.1025  Tot=              3.6652
 Quadrupole moment (field-independent basis, Debye-Ang):
   XX=            -27.5169   YY=            -21.7013   ZZ=            -25.2292
   XY=              0.7929   XZ=              0.2471   YZ=             -0.1394

 Normal termination of Gaussian 09 at Wed Aug 26 20:08:51 2020.
