 Gaussian 09, Revision D.01,
 Gaussian 09:  ES64L-G09RevD.01 24-Apr-2013

 --------------------
 #p B2PLYPD3/Def2QZVP
 --------------------

 --------
 acrolein
 --------
 Symbolic Z-matrix:
 Charge =  0 Multiplicity = 1

                         Standard orientation:
 ---------------------------------------------------------------------
 Center     Atomic      Atomic             Coordinates (Angstroms)
 Number     Number       Type             X           Y           Z
 ---------------------------------------------------------------------
      1          6           0       -0.663267    0.344181   -0.047780
      2          8           0       -1.823827   -0.099279    0.031422
      3          6           0        0.593116   -0.509439   -0.014359
      4          6           0        1.757688    0.169519   -0.012800
      5          1           0        0.505456   -1.603867    0.043165
      6          1           0        1.834022    1.281297    0.201852
      7          1           0        2.535722   -0.388974    0.014677
      8          1           0       -0.409799    1.480207   -0.061436
 ---------------------------------------------------------------------

 SCF Done:  E(RB2PLYPD3) =  -191.588453115     A.U. after   13 cycles
 E2(B2PLYPD3) =    -0.2503405507D+00 E(B2PLYPD3) =    -0.19183879366593D+03

 The electronic state is 1-A.
 Alpha  occ. eigenvalues --  -19.73249 -10.73071 -10.65551 -10.64831  -1.17550
 Alpha  occ. eigenvalues --   -0.92960  -0.75576  -0.66158  -0.57097  -0.54747
 Alpha  occ. eigenvalues --   -0.49960  -0.48052  -0.45459  -0.34520  -0.33705
 Alpha virt. eigenvalues --   -0.02146   0.05533   0.06778   0.07159   0.09636
 Alpha virt. eigenvalues --    0.12763   0.13821   0.15258   0.16862   0.19576
 Alpha virt. eigenvalues --    0.20159   0.21983   0.24153   0.26629   0.27703

 Mulliken charges:
               1
     1  C    0.164689
     2  O   -0.356982
     3  C   -0.049663
     4  C   -0.124248
     5  H    0.104669
     6  H    0.089517
     7  H    0.103016
     8  H    0.069001
 Sum of Mulliken charges =   0.00000

 Dipole moment (field-independent basis, Debye):
    X=              3.6253    Y=              0.6301    Z=              0.0861  Tot=              3.6807
 Quadrupole moment (field-independent basis, Debye-Ang):
   XX=            -28.2650   YY=            -21.3596   ZZ=            -25.3800
   XY=             -0.6849   XZ=              0.5416   YZ=              0.1559

 Normal termination of Gaussian 09 at Wed Aug 26 13:21:38 2020.
