 Gaussian 09, Revision D.01,
 Gaussian 09:  ES64L-G09RevD.01 24-Apr-2013

 --------------------
 #p B2PLYPD3/Def2QZVP
 --------------------

 --------
 acrolein
 --------
 Symbolic Z-matrix:
 Charge =  0 Multiplicity = 1

                         Standard orientation:
 ---------------------------------------------------------------------
 Center     Atomic      Atomic             Coordinates (Angstroms)
 Number     Number       Type             X           Y           Z
 ---------------------------------------------------------------------
      1          6           0       -0.713903    0.388985    0.066516
      2          8           0       -1.756736   -0.172327   -0.079655
      3          6           0        0.558676   -0.403413    0.035925
      4          6           0        1.760249    0.111835   -0.057127
      5          1           0        0.471699   -1.311398    0.308852
      6          1           0        1.867064    1.106405   -0.088990
      7          1           0        2.639187   -0.462822   -0.078452
      8          1           0       -0.554195    1.461992    0.223947
 ---------------------------------------------------------------------

 SCF Done:  E(RB2PLYPD3) =  -191.591124841     A.U. after   12 cycles
 E2(B2PLYPD3) =    -0.2448049584D+00 E(B2PLYPD3) =    -0.19183592979964D+03

 The electronic state is 1-A.
 Alpha  occ. eigenvalues --  -19.73290 -10.71749 -10.63080 -10.62043  -1.21003
 Alpha  occ. eigenvalues --   -0.93359  -0.75807  -0.68945  -0.57587  -0.56960
 Alpha  occ. eigenvalues --   -0.52052  -0.48657  -0.46420  -0.34638  -0.33768
 Alpha virt. eigenvalues --   -0.00960   0.06011   0.07425   0.08252   0.09848
 Alpha virt. eigenvalues --    0.12683   0.13727   0.15049   0.18850   0.19518
 Alpha virt. eigenvalues --    0.20133   0.21785   0.25273   0.27009   0.29174

 Mulliken charges:
               1
     1  C    0.149373
     2  O   -0.329915
     3  C   -0.050119
     4  C   -0.131337
     5  H    0.108834
     6  H    0.072237
     7  H    0.096111
     8  H    0.084816
 Sum of Mulliken charges =   0.00000

 Dipole moment (field-independent basis, Debye):
    X=              3.0768    Y=              0.9956    Z=              0.4637  Tot=              3.2670
 Quadrupole moment (field-independent basis, Debye-Ang):
   XX=            -27.0119   YY=            -21.9587   ZZ=            -24.7414
   XY=             -1.2533   XZ=             -0.5108   YZ=             -0.3187

 Normal termination of Gaussian 09 at Wed Aug 26 12:20:51 2020.
