 Gaussian 09, Revision D.01,
 Gaussian 09:  ES64L-G09RevD.01 24-Apr-2013

 --------------------
 #p B2PLYPD3/Def2QZVP
 --------------------

 --------
 acrolein
 --------
 Symbolic Z-matrix:
 Charge =  0 Multiplicity = 1

                         Standard orientation:
 ---------------------------------------------------------------------
 Center     Atomic      Atomic             Coordinates (Angstroms)
 Number     Number       Type             X           Y           Z
 ---------------------------------------------------------------------
      1          6           0        0.677870    0.354789   -0.048242
      2          8           0        1.788008   -0.100956    0.061437
      3          6           0       -0.560093   -0.486779   -0.064020
      4          6           0       -1.769235    0.137919    0.055124
      5          1           0       -0.401078   -1.665503   -0.162005
      6          1           0       -1.844946    1.371095   -0.103786
      7          1           0       -2.599744   -0.396859    0.203846
      8          1           0        0.450451    1.463345   -0.086721
 ---------------------------------------------------------------------

 SCF Done:  E(RB2PLYPD3) =  -191.584788131     A.U. after   13 cycles
 E2(B2PLYPD3) =    -0.2496630863D+00 E(B2PLYPD3) =    -0.19183445121706D+03

 The electronic state is 1-A.
 Alpha  occ. eigenvalues --  -19.73044 -10.72114 -10.66628 -10.66180  -1.19957
 Alpha  occ. eigenvalues --   -0.91670  -0.75150  -0.65088  -0.56849  -0.54172
 Alpha  occ. eigenvalues --   -0.50798  -0.47120  -0.45286  -0.34135  -0.33630
 Alpha virt. eigenvalues --   -0.01834   0.05040   0.06618   0.07716   0.09535
 Alpha virt. eigenvalues --    0.11944   0.13960   0.15302   0.16702   0.19294
 Alpha virt. eigenvalues --    0.19943   0.21656   0.24527   0.26535   0.28519

 Mulliken charges:
               1
     1  C    0.170000
     2  O   -0.338643
     3  C   -0.051011
     4  C   -0.136739
     5  H    0.098187
     6  H    0.079428
     7  H    0.114414
     8  H    0.064363
 Sum of Mulliken charges =   0.00000

 Dipole moment (field-independent basis, Debye):
    X=             -3.3759    Y=              0.6488    Z=             -0.2590  Tot=              3.4474
 Quadrupole moment (field-independent basis, Debye-Ang):
   XX=            -27.7527   YY=            -21.5670   ZZ=            -25.5435
   XY=              0.7420   XZ=             -0.5861   YZ=             -0.0887

 Normal termination of Gaussian 09 at Wed Aug 26 12:48:41 2020.
