 Gaussian 09, Revision D.01,
 Gaussian 09:  ES64L-G09RevD.01 24-Apr-2013

 --------------------
 #p B2PLYPD3/Def2QZVP
 --------------------

 --------
 acrolein
 --------
 Symbolic Z-matrix:
 Charge =  0 Multiplicity = 1

                         Standard orientation:
 ---------------------------------------------------------------------
 Center     Atomic      Atomic             Coordinates (Angstroms)
 Number     Number       Type             X           Y           Z
 ---------------------------------------------------------------------
      1          6           0       -0.676984    0.326783    0.043443
      2          8           0       -1.799544   -0.098776   -0.026636
      3          6           0        0.565579   -0.469465    0.020619
      4          6           0        1.767741    0.136817   -0.017786
      5          1           0        0.447720   -1.553430   -0.000421
      6          1           0        1.908476    1.338188   -0.010010
      7          1           0        2.597881   -0.418664   -0.030990
      8          1           0       -0.495739    1.459310   -0.023148
 ---------------------------------------------------------------------

 SCF Done:  E(RB2PLYPD3) =  -191.600442840     A.U. after   12 cycles
 E2(B2PLYPD3) =    -0.2479329127D+00 E(B2PLYPD3) =    -0.19184837575322D+03

 The electronic state is 1-A.
 Alpha  occ. eigenvalues --  -19.72961 -10.71875 -10.66170 -10.64967  -1.20047
 Alpha  occ. eigenvalues --   -0.92649  -0.75681  -0.65777  -0.57205  -0.55202
 Alpha  occ. eigenvalues --   -0.50808  -0.47023  -0.46485  -0.34681  -0.33584
 Alpha virt. eigenvalues --   -0.01897   0.05517   0.07026   0.08205   0.09563
 Alpha virt. eigenvalues --    0.12247   0.13981   0.15354   0.17355   0.19139
 Alpha virt. eigenvalues --    0.19970   0.21908   0.25130   0.26554   0.28490

 Mulliken charges:
               1
     1  C    0.169158
     2  O   -0.339326
     3  C   -0.049325
     4  C   -0.127219
     5  H    0.101233
     6  H    0.083339
     7  H    0.110360
     8  H    0.051778
 Sum of Mulliken charges =   0.00000

 Dipole moment (field-independent basis, Debye):
    X=              3.4982    Y=              0.5651    Z=              0.0625  Tot=              3.5441
 Quadrupole moment (field-independent basis, Debye-Ang):
   XX=            -27.4308   YY=            -21.7703   ZZ=            -25.3542
   XY=             -0.7056   XZ=             -0.2178   YZ=             -0.0023

 Normal termination of Gaussian 09 at Wed Aug 26 09:24:48 2020.
