 Gaussian 09, Revision D.01,
 Gaussian 09:  ES64L-G09RevD.01 24-Apr-2013

 --------------------
 #p B2PLYPD3/Def2QZVP
 --------------------

 --------
 acrolein
 --------
 Symbolic Z-matrix:
 Charge =  0 Multiplicity = 1

                         Standard orientation:
 ---------------------------------------------------------------------
 Center     Atomic      Atomic             Coordinates (Angstroms)
 Number     Number       Type             X           Y           Z
 ---------------------------------------------------------------------
      1          6           0       -0.666083    0.345986   -0.012397
      2          8           0       -1.789676   -0.114841    0.021020
      3          6           0        0.579306   -0.465433   -0.029252
      4          6           0        1.742599    0.153824    0.005464
      5          1           0        0.455189   -1.538807   -0.019961
      6          1           0        1.828723    1.237597    0.021150
      7          1           0        2.641422   -0.397120    0.091792
      8          1           0       -0.542856    1.410795   -0.044035
 ---------------------------------------------------------------------

 SCF Done:  E(RB2PLYPD3) =  -191.615754730     A.U. after   12 cycles
 E2(B2PLYPD3) =    -0.2466003860D+00 E(B2PLYPD3) =    -0.19186235511581D+03

 The electronic state is 1-A.
 Alpha  occ. eigenvalues --  -19.72647 -10.71265 -10.64947 -10.64342  -1.19138
 Alpha  occ. eigenvalues --   -0.93273  -0.75344  -0.67481  -0.56761  -0.56547
 Alpha  occ. eigenvalues --   -0.50640  -0.47101  -0.46461  -0.34925  -0.33717
 Alpha virt. eigenvalues --   -0.01400   0.05799   0.07250   0.08015   0.09713
 Alpha virt. eigenvalues --    0.12671   0.14143   0.15321   0.17469   0.19795
 Alpha virt. eigenvalues --    0.19942   0.21759   0.25422   0.26516   0.28726

 Mulliken charges:
               1
     1  C    0.153920
     2  O   -0.352939
     3  C   -0.043611
     4  C   -0.127838
     5  H    0.107231
     6  H    0.085407
     7  H    0.099589
     8  H    0.078241
 Sum of Mulliken charges =   0.00000

 Dipole moment (field-independent basis, Debye):
    X=              3.4838    Y=              0.7755    Z=              0.0032  Tot=              3.5691
 Quadrupole moment (field-independent basis, Debye-Ang):
   XX=            -27.6540   YY=            -21.5573   ZZ=            -25.1294
   XY=             -0.8892   XZ=              0.3632   YZ=             -0.0247

 Normal termination of Gaussian 09 at Wed Aug 26 15:17:56 2020.
