 Gaussian 09, Revision D.01,
 Gaussian 09:  ES64L-G09RevD.01 24-Apr-2013

 --------------------
 #p B2PLYPD3/Def2QZVP
 --------------------

 --------
 acrolein
 --------
 Symbolic Z-matrix:
 Charge =  0 Multiplicity = 1

                         Standard orientation:
 ---------------------------------------------------------------------
 Center     Atomic      Atomic             Coordinates (Angstroms)
 Number     Number       Type             X           Y           Z
 ---------------------------------------------------------------------
      1          6           0        0.663755    0.343969    0.006269
      2          8           0        1.788813   -0.113292    0.002294
      3          6           0       -0.566430   -0.463026   -0.014736
      4          6           0       -1.751676    0.156947   -0.004882
      5          1           0       -0.449836   -1.560734   -0.001808
      6          1           0       -1.821231    1.224789   -0.025053
      7          1           0       -2.653628   -0.409362    0.079367
      8          1           0        0.540297    1.424302    0.009235
 ---------------------------------------------------------------------

 SCF Done:  E(RB2PLYPD3) =  -191.615850026     A.U. after   12 cycles
 E2(B2PLYPD3) =    -0.2471787732D+00 E(B2PLYPD3) =    -0.19186302879897D+03

 The electronic state is 1-A.
 Alpha  occ. eigenvalues --  -19.72581 -10.71303 -10.65311 -10.64774  -1.19147
 Alpha  occ. eigenvalues --   -0.93003  -0.75489  -0.67108  -0.56813  -0.56307
 Alpha  occ. eigenvalues --   -0.50272  -0.47299  -0.46517  -0.34605  -0.33732
 Alpha virt. eigenvalues --   -0.01760   0.05799   0.07078   0.08086   0.09730
 Alpha virt. eigenvalues --    0.12628   0.14113   0.15328   0.17309   0.19847
 Alpha virt. eigenvalues --    0.20012   0.21707   0.25322   0.26410   0.28861

 Mulliken charges:
               1
     1  C    0.152231
     2  O   -0.352377
     3  C   -0.038093
     4  C   -0.132252
     5  H    0.104878
     6  H    0.089286
     7  H    0.102525
     8  H    0.073803
 Sum of Mulliken charges =   0.00000

 Dipole moment (field-independent basis, Debye):
    X=             -3.5282    Y=              0.7583    Z=              0.0521  Tot=              3.6092
 Quadrupole moment (field-independent basis, Debye-Ang):
   XX=            -27.6156   YY=            -21.5716   ZZ=            -25.2167
   XY=              0.9056   XZ=             -0.1744   YZ=             -0.0767

 Normal termination of Gaussian 09 at Wed Aug 26 20:14:49 2020.
