 Gaussian 09, Revision D.01,
 Gaussian 09:  ES64L-G09RevD.01 24-Apr-2013

 --------------------
 #p B2PLYPD3/Def2QZVP
 --------------------

 --------
 acrolein
 --------
 Symbolic Z-matrix:
 Charge =  0 Multiplicity = 1

                         Standard orientation:
 ---------------------------------------------------------------------
 Center     Atomic      Atomic             Coordinates (Angstroms)
 Number     Number       Type             X           Y           Z
 ---------------------------------------------------------------------
      1          6           0       -0.685833    0.379504   -0.030743
      2          8           0       -1.790263   -0.148918    0.016787
      3          6           0        0.544595   -0.419346   -0.050902
      4          6           0        1.770097    0.125401    0.012682
      5          1           0        0.347978   -1.487106    0.080042
      6          1           0        1.891711    1.124434   -0.096407
      7          1           0        2.792211   -0.500672    0.135244
      8          1           0       -0.482952    1.541335    0.160598
 ---------------------------------------------------------------------

 SCF Done:  E(RB2PLYPD3) =  -191.594405206     A.U. after   13 cycles
 E2(B2PLYPD3) =    -0.2496908377D+00 E(B2PLYPD3) =    -0.19184409604386D+03

 The electronic state is 1-A.
 Alpha  occ. eigenvalues --  -19.73400 -10.72892 -10.66235 -10.64797  -1.19097
 Alpha  occ. eigenvalues --   -0.92690  -0.75347  -0.66216  -0.56566  -0.55251
 Alpha  occ. eigenvalues --   -0.50090  -0.46663  -0.46016  -0.34613  -0.33913
 Alpha virt. eigenvalues --   -0.02310   0.05376   0.06640   0.07750   0.09860
 Alpha virt. eigenvalues --    0.12028   0.13551   0.15187   0.17355   0.19508
 Alpha virt. eigenvalues --    0.20260   0.21396   0.24205   0.26821   0.28565

 Mulliken charges:
               1
     1  C    0.165146
     2  O   -0.349643
     3  C   -0.040622
     4  C   -0.133046
     5  H    0.111546
     6  H    0.093884
     7  H    0.095567
     8  H    0.057168
 Sum of Mulliken charges =   0.00000

 Dipole moment (field-independent basis, Debye):
    X=              3.4586    Y=              0.8333    Z=              0.0765  Tot=              3.5584
 Quadrupole moment (field-independent basis, Debye-Ang):
   XX=            -27.2571   YY=            -22.0750   ZZ=            -25.3814
   XY=             -0.8087   XZ=              0.2788   YZ=             -0.2610

 Normal termination of Gaussian 09 at Wed Aug 26 14:14:21 2020.
