 Gaussian 09, Revision D.01,
 Gaussian 09:  ES64L-G09RevD.01 24-Apr-2013

 --------------------
 #p B2PLYPD3/Def2QZVP
 --------------------

 --------
 acrolein
 --------
 Symbolic Z-matrix:
 Charge =  0 Multiplicity = 1

                         Standard orientation:
 ---------------------------------------------------------------------
 Center     Atomic      Atomic             Coordinates (Angstroms)
 Number     Number       Type             X           Y           Z
 ---------------------------------------------------------------------
      1          6           0        0.660986    0.338199    0.003911
      2          8           0        1.792849   -0.104006    0.012702
      3          6           0       -0.563686   -0.478181   -0.030164
      4          6           0       -1.746503    0.169133   -0.004766
      5          1           0       -0.435238   -1.556474   -0.009371
      6          1           0       -1.806529    1.211872    0.002716
      7          1           0       -2.697887   -0.415197    0.123413
      8          1           0        0.492076    1.416936   -0.032260
 ---------------------------------------------------------------------

 SCF Done:  E(RB2PLYPD3) =  -191.612906216     A.U. after   12 cycles
 E2(B2PLYPD3) =    -0.2477223811D+00 E(B2PLYPD3) =    -0.19186062859683D+03

 The electronic state is 1-A.
 Alpha  occ. eigenvalues --  -19.72636 -10.71370 -10.65877 -10.64836  -1.19090
 Alpha  occ. eigenvalues --   -0.92910  -0.75237  -0.67449  -0.56751  -0.55824
 Alpha  occ. eigenvalues --   -0.50171  -0.47516  -0.46495  -0.34499  -0.33682
 Alpha virt. eigenvalues --   -0.01909   0.05710   0.07087   0.07912   0.09724
 Alpha virt. eigenvalues --    0.12635   0.13975   0.15291   0.17396   0.19856
 Alpha virt. eigenvalues --    0.20079   0.21453   0.25108   0.26514   0.28707

 Mulliken charges:
               1
     1  C    0.151624
     2  O   -0.353971
     3  C   -0.034829
     4  C   -0.133721
     5  H    0.109018
     6  H    0.093954
     7  H    0.097119
     8  H    0.070807
 Sum of Mulliken charges =   0.00000

 Dipole moment (field-independent basis, Debye):
    X=             -3.5470    Y=              0.7219    Z=              0.0659  Tot=              3.6203
 Quadrupole moment (field-independent basis, Debye-Ang):
   XX=            -27.7373   YY=            -21.5893   ZZ=            -25.2608
   XY=              0.7316   XZ=             -0.3814   YZ=             -0.0786

 Normal termination of Gaussian 09 at Wed Aug 26 08:40:00 2020.
