 Gaussian 09, Revision D.01,
 Gaussian 09:  ES64L-G09RevD.01 24-Apr-2013

 --------------------
 #p B2PLYPD3/Def2QZVP
 --------------------

 --------
 acrolein
 --------
 Symbolic Z-matrix:
 Charge =  0 Multiplicity = 1

                         Standard orientation:
 ---------------------------------------------------------------------
 Center     Atomic      Atomic             Coordinates (Angstroms)
 Number     Number       Type             X           Y           Z
 ---------------------------------------------------------------------
      1          6           0        0.676804    0.353601   -0.012067
      2          8           0        1.782992   -0.125045    0.011464
      3          6           0       -0.558531   -0.447356   -0.008332
      4          6           0       -1.751243    0.138237    0.003854
      5          1           0       -0.427323   -1.532309   -0.009630
      6          1           0       -1.838760    1.205034    0.035843
      7          1           0       -2.685684   -0.424712    0.009804
      8          1           0        0.485647    1.485448   -0.028460
 ---------------------------------------------------------------------

 SCF Done:  E(RB2PLYPD3) =  -191.615963119     A.U. after   12 cycles
 E2(B2PLYPD3) =    -0.2472128913D+00 E(B2PLYPD3) =    -0.19186317601021D+03

 The electronic state is 1-A.
 Alpha  occ. eigenvalues --  -19.73032 -10.72004 -10.65329 -10.64413  -1.19972
 Alpha  occ. eigenvalues --   -0.92977  -0.75229  -0.66460  -0.56582  -0.56179
 Alpha  occ. eigenvalues --   -0.50681  -0.47059  -0.46749  -0.34775  -0.33818
 Alpha virt. eigenvalues --   -0.01621   0.05764   0.07069   0.08224   0.09787
 Alpha virt. eigenvalues --    0.12546   0.13891   0.15371   0.17298   0.19850
 Alpha virt. eigenvalues --    0.19995   0.21592   0.25572   0.26385   0.28638

 Mulliken charges:
               1
     1  C    0.159518
     2  O   -0.342662
     3  C   -0.036828
     4  C   -0.130927
     5  H    0.104151
     6  H    0.084503
     7  H    0.101673
     8  H    0.060573
 Sum of Mulliken charges =   0.00000

 Dipole moment (field-independent basis, Debye):
    X=             -3.4277    Y=              0.7264    Z=             -0.0167  Tot=              3.5039
 Quadrupole moment (field-independent basis, Debye-Ang):
   XX=            -27.3179   YY=            -21.8534   ZZ=            -25.2413
   XY=              0.8406   XZ=             -0.1315   YZ=              0.0384

 Normal termination of Gaussian 09 at Wed Aug 26 19:14:03 2020.
