 Gaussian 09, Revision D.01,
 Gaussian 09:  ES64L-G09RevD.01 24-Apr-2013

 --------------------
 #p B2PLYPD3/Def2QZVP
 --------------------

 --------
 acrolein
 --------
 Symbolic Z-matrix:
 Charge =  0 Multiplicity = 1

                         Standard orientation:
 ---------------------------------------------------------------------
 Center     Atomic      Atomic             Coordinates (Angstroms)
 Number     Number       Type             X           Y           Z
 ---------------------------------------------------------------------
      1          6           0       -0.690738    0.358617    0.032607
      2          8           0       -1.767236   -0.135797   -0.035784
      3          6           0        0.548232   -0.441453    0.000725
      4          6           0        1.758744    0.127382   -0.012167
      5          1           0        0.479493   -1.449187    0.149754
      6          1           0        1.827193    1.244396   -0.062351
      7          1           0        2.684331   -0.414504   -0.050409
      8          1           0       -0.550560    1.438396    0.122288
 ---------------------------------------------------------------------

 SCF Done:  E(RB2PLYPD3) =  -191.611979511     A.U. after   13 cycles
 E2(B2PLYPD3) =    -0.2457724931D+00 E(B2PLYPD3) =    -0.19185775200451D+03

 The electronic state is 1-A.
 Alpha  occ. eigenvalues --  -19.72788 -10.71225 -10.65453 -10.63487  -1.21102
 Alpha  occ. eigenvalues --   -0.92646  -0.75080  -0.67680  -0.56800  -0.56695
 Alpha  occ. eigenvalues --   -0.51210  -0.47737  -0.46426  -0.34514  -0.33808
 Alpha virt. eigenvalues --   -0.01336   0.05824   0.07454   0.08229   0.09716
 Alpha virt. eigenvalues --    0.12453   0.14038   0.15273   0.18210   0.19445
 Alpha virt. eigenvalues --    0.19882   0.21413   0.25277   0.26673   0.29127

 Mulliken charges:
               1
     1  C    0.152812
     2  O   -0.332361
     3  C   -0.049905
     4  C   -0.129209
     5  H    0.108804
     6  H    0.071444
     7  H    0.102152
     8  H    0.076263
 Sum of Mulliken charges =   0.00000

 Dipole moment (field-independent basis, Debye):
    X=              3.2618    Y=              0.7889    Z=              0.2017  Tot=              3.3619
 Quadrupole moment (field-independent basis, Debye-Ang):
   XX=            -27.1295   YY=            -21.8699   ZZ=            -25.1026
   XY=             -1.1876   XZ=             -0.3009   YZ=             -0.2124

 Normal termination of Gaussian 09 at Wed Aug 26 21:09:17 2020.
