 Gaussian 09, Revision D.01,
 Gaussian 09:  ES64L-G09RevD.01 24-Apr-2013

 --------------------
 #p B2PLYPD3/Def2QZVP
 --------------------

 --------
 acrolein
 --------
 Symbolic Z-matrix:
 Charge =  0 Multiplicity = 1

                         Standard orientation:
 ---------------------------------------------------------------------
 Center     Atomic      Atomic             Coordinates (Angstroms)
 Number     Number       Type             X           Y           Z
 ---------------------------------------------------------------------
      1          6           0        0.686694    0.359039    0.031050
      2          8           0        1.788502   -0.140066   -0.018042
      3          6           0       -0.564693   -0.433439   -0.027429
      4          6           0       -1.761710    0.152599   -0.036902
      5          1           0       -0.514981   -1.553368    0.153747
      6          1           0       -1.745257    1.071713    0.048481
      7          1           0       -2.739197   -0.348614    0.080791
      8          1           0        0.529670    1.481602    0.061003
 ---------------------------------------------------------------------

 SCF Done:  E(RB2PLYPD3) =  -191.586400500     A.U. after   13 cycles
 E2(B2PLYPD3) =    -0.2474659893D+00 E(B2PLYPD3) =    -0.19183386648952D+03

 The electronic state is 1-A.
 Alpha  occ. eigenvalues --  -19.73193 -10.72349 -10.64901 -10.63711  -1.19800
 Alpha  occ. eigenvalues --   -0.93473  -0.75875  -0.67114  -0.57416  -0.56305
 Alpha  occ. eigenvalues --   -0.50801  -0.47425  -0.46060  -0.34625  -0.34067
 Alpha virt. eigenvalues --   -0.01875   0.05881   0.06788   0.07980   0.09788
 Alpha virt. eigenvalues --    0.12714   0.14247   0.15158   0.17279   0.19481
 Alpha virt. eigenvalues --    0.20389   0.22506   0.25155   0.26157   0.28846

 Mulliken charges:
               1
     1  C    0.142646
     2  O   -0.337012
     3  C   -0.023250
     4  C   -0.135206
     5  H    0.093895
     6  H    0.089082
     7  H    0.098082
     8  H    0.071765
 Sum of Mulliken charges =   0.00000

 Dipole moment (field-independent basis, Debye):
    X=             -3.3923    Y=              0.8708    Z=              0.3485  Tot=              3.5196
 Quadrupole moment (field-independent basis, Debye-Ang):
   XX=            -27.1565   YY=            -22.0024   ZZ=            -25.1110
   XY=              1.1436   XZ=             -0.3119   YZ=             -0.1935

 Normal termination of Gaussian 09 at Wed Aug 26 10:41:22 2020.
