 Gaussian 09, Revision D.01,
 Gaussian 09:  ES64L-G09RevD.01 24-Apr-2013

 --------------------
 #p B2PLYPD3/Def2QZVP
 --------------------

 --------
 acrolein
 --------
 Symbolic Z-matrix:
 Charge =  0 Multiplicity = 1

                         Standard orientation:
 ---------------------------------------------------------------------
 Center     Atomic      Atomic             Coordinates (Angstroms)
 Number     Number       Type             X           Y           Z
 ---------------------------------------------------------------------
      1          6           0       -0.671627    0.339282    0.021361
      2          8           0       -1.788202   -0.110867   -0.023315
      3          6           0        0.556526   -0.451723    0.015845
      4          6           0        1.767953    0.143400   -0.023606
      5          1           0        0.439934   -1.538119    0.037225
      6          1           0        1.859154    1.249431   -0.044663
      7          1           0        2.654922   -0.409263    0.024914
      8          1           0       -0.565502    1.399134    0.087446
 ---------------------------------------------------------------------

 SCF Done:  E(RB2PLYPD3) =  -191.614362830     A.U. after   12 cycles
 E2(B2PLYPD3) =    -0.2467991277D+00 E(B2PLYPD3) =    -0.19186116195744D+03

 The electronic state is 1-A.
 Alpha  occ. eigenvalues --  -19.72503 -10.70861 -10.65732 -10.64740  -1.19736
 Alpha  occ. eigenvalues --   -0.92678  -0.75892  -0.67241  -0.56688  -0.56623
 Alpha  occ. eigenvalues --   -0.50645  -0.47045  -0.46754  -0.34419  -0.33770
 Alpha virt. eigenvalues --   -0.01949   0.05762   0.07235   0.08383   0.09679
 Alpha virt. eigenvalues --    0.12535   0.14194   0.15406   0.17526   0.19451
 Alpha virt. eigenvalues --    0.20044   0.21747   0.25345   0.26448   0.28904

 Mulliken charges:
               1
     1  C    0.155542
     2  O   -0.348313
     3  C   -0.042773
     4  C   -0.131350
     5  H    0.103638
     6  H    0.084236
     7  H    0.106172
     8  H    0.072846
 Sum of Mulliken charges =   0.00000

 Dipole moment (field-independent basis, Debye):
    X=              3.5149    Y=              0.7467    Z=              0.1239  Tot=              3.5955
 Quadrupole moment (field-independent basis, Debye-Ang):
   XX=            -27.3658   YY=            -21.6872   ZZ=            -25.2127
   XY=             -0.9239   XZ=             -0.1130   YZ=             -0.0834

 Normal termination of Gaussian 09 at Wed Aug 26 15:32:44 2020.
