 Gaussian 09, Revision D.01,
 Gaussian 09:  ES64L-G09RevD.01 24-Apr-2013

 --------------------
 #p B2PLYPD3/Def2QZVP
 --------------------

 --------
 acrolein
 --------
 Symbolic Z-matrix:
 Charge =  0 Multiplicity = 1

                         Standard orientation:
 ---------------------------------------------------------------------
 Center     Atomic      Atomic             Coordinates (Angstroms)
 Number     Number       Type             X           Y           Z
 ---------------------------------------------------------------------
      1          6           0        0.681281   -0.355013    0.022521
      2          8           0        1.804490    0.093177   -0.024226
      3          6           0       -0.587144    0.494712    0.016064
      4          6           0       -1.777932   -0.160955   -0.033009
      5          1           0       -0.448553    1.630996    0.151944
      6          1           0       -1.911795   -1.292622    0.175925
      7          1           0       -2.487267    0.371714   -0.150846
      8          1           0        0.514465   -1.327972   -0.016662
 ---------------------------------------------------------------------

 SCF Done:  E(RB2PLYPD3) =  -191.559285204     A.U. after   14 cycles
 E2(B2PLYPD3) =    -0.2475264713D+00 E(B2PLYPD3) =    -0.19180681167558D+03

 The electronic state is 1-A.
 Alpha  occ. eigenvalues --  -19.72685 -10.70620 -10.65748 -10.64338  -1.19354
 Alpha  occ. eigenvalues --   -0.92420  -0.76993  -0.67817  -0.57270  -0.55849
 Alpha  occ. eigenvalues --   -0.50755  -0.47783  -0.46009  -0.34176  -0.33395
 Alpha virt. eigenvalues --   -0.01721   0.05610   0.06981   0.07635   0.09532
 Alpha virt. eigenvalues --    0.12448   0.14171   0.15533   0.17338   0.19413
 Alpha virt. eigenvalues --    0.20212   0.22475   0.24603   0.26918   0.27950

 Mulliken charges:
               1
     1  C    0.163800
     2  O   -0.349778
     3  C   -0.059820
     4  C   -0.167078
     5  H    0.100170
     6  H    0.092717
     7  H    0.128725
     8  H    0.091263
 Sum of Mulliken charges =   0.00000

 Dipole moment (field-independent basis, Debye):
    X=             -3.4183    Y=             -0.8033    Z=              0.2356  Tot=              3.5193
 Quadrupole moment (field-independent basis, Debye-Ang):
   XX=            -27.9729   YY=            -21.2272   ZZ=            -25.1530
   XY=             -0.6599   XZ=              0.0916   YZ=             -0.0934

 Normal termination of Gaussian 09 at Wed Aug 26 11:46:22 2020.
