 Gaussian 09, Revision D.01,
 Gaussian 09:  ES64L-G09RevD.01 24-Apr-2013

 --------------------
 #p B2PLYPD3/Def2QZVP
 --------------------

 --------
 acrolein
 --------
 Symbolic Z-matrix:
 Charge =  0 Multiplicity = 1

                         Standard orientation:
 ---------------------------------------------------------------------
 Center     Atomic      Atomic             Coordinates (Angstroms)
 Number     Number       Type             X           Y           Z
 ---------------------------------------------------------------------
      1          6           0       -0.634494    0.330484   -0.067704
      2          8           0       -1.804286   -0.095936    0.033371
      3          6           0        0.565151   -0.466442    0.002805
      4          6           0        1.752582    0.144682   -0.000530
      5          1           0        0.395329   -1.539931   -0.000684
      6          1           0        1.778352    1.202701    0.138032
      7          1           0        2.611902   -0.366377   -0.009953
      8          1           0       -0.450732    1.418752   -0.001789
 ---------------------------------------------------------------------

 SCF Done:  E(RB2PLYPD3) =  -191.604367859     A.U. after   13 cycles
 E2(B2PLYPD3) =    -0.2490480392D+00 E(B2PLYPD3) =    -0.19185341589862D+03

 The electronic state is 1-A.
 Alpha  occ. eigenvalues --  -19.72741 -10.71639 -10.65041 -10.64680  -1.17138
 Alpha  occ. eigenvalues --   -0.94090  -0.77018  -0.67170  -0.57666  -0.56136
 Alpha  occ. eigenvalues --   -0.50099  -0.47798  -0.45688  -0.34708  -0.33788
 Alpha virt. eigenvalues --   -0.02741   0.05758   0.07110   0.07806   0.09802
 Alpha virt. eigenvalues --    0.12891   0.14048   0.15105   0.17156   0.19946
 Alpha virt. eigenvalues --    0.20168   0.22044   0.25028   0.26542   0.28992

 Mulliken charges:
               1
     1  C    0.162819
     2  O   -0.372735
     3  C   -0.026297
     4  C   -0.124258
     5  H    0.103895
     6  H    0.087635
     7  H    0.105525
     8  H    0.063416
 Sum of Mulliken charges =   0.00000

 Dipole moment (field-independent basis, Debye):
    X=              3.8261    Y=              0.6616    Z=             -0.0431  Tot=              3.8831
 Quadrupole moment (field-independent basis, Debye-Ang):
   XX=            -27.7033   YY=            -21.7526   ZZ=            -25.1098
   XY=             -0.6706   XZ=              0.3153   YZ=              0.1898

 Normal termination of Gaussian 09 at Wed Aug 26 14:06:31 2020.
