 Gaussian 09, Revision D.01,
 Gaussian 09:  ES64L-G09RevD.01 24-Apr-2013

 --------------------
 #p B2PLYPD3/Def2QZVP
 --------------------

 --------
 acrolein
 --------
 Symbolic Z-matrix:
 Charge =  0 Multiplicity = 1

                         Standard orientation:
 ---------------------------------------------------------------------
 Center     Atomic      Atomic             Coordinates (Angstroms)
 Number     Number       Type             X           Y           Z
 ---------------------------------------------------------------------
      1          6           0        0.664578    0.358981    0.029020
      2          8           0        1.787445   -0.125820   -0.021063
      3          6           0       -0.563479   -0.445458    0.013064
      4          6           0       -1.752005    0.136737   -0.016537
      5          1           0       -0.426216   -1.532649    0.017194
      6          1           0       -1.806634    1.191325   -0.039784
      7          1           0       -2.665171   -0.401035    0.008770
      8          1           0        0.503894    1.447362    0.029048
 ---------------------------------------------------------------------

 SCF Done:  E(RB2PLYPD3) =  -191.615575196     A.U. after   12 cycles
 E2(B2PLYPD3) =    -0.2473933808D+00 E(B2PLYPD3) =    -0.19186296857723D+03

 The electronic state is 1-A.
 Alpha  occ. eigenvalues --  -19.72859 -10.71708 -10.64842 -10.64380  -1.18742
 Alpha  occ. eigenvalues --   -0.93383  -0.75822  -0.67149  -0.56766  -0.56593
 Alpha  occ. eigenvalues --   -0.50610  -0.46897  -0.46402  -0.34794  -0.33951
 Alpha virt. eigenvalues --   -0.01840   0.05799   0.07174   0.08063   0.09804
 Alpha virt. eigenvalues --    0.12649   0.14076   0.15340   0.17278   0.19910
 Alpha virt. eigenvalues --    0.20028   0.21792   0.25566   0.26460   0.28960

 Mulliken charges:
               1
     1  C    0.154695
     2  O   -0.356159
     3  C   -0.033469
     4  C   -0.130802
     5  H    0.104343
     6  H    0.082388
     7  H    0.103912
     8  H    0.075091
 Sum of Mulliken charges =   0.00000

 Dipole moment (field-independent basis, Debye):
    X=             -3.5346    Y=              0.8077    Z=              0.0793  Tot=              3.6266
 Quadrupole moment (field-independent basis, Debye-Ang):
   XX=            -27.4842   YY=            -21.7152   ZZ=            -25.1622
   XY=              0.9455   XZ=              0.1264   YZ=             -0.0563

 Normal termination of Gaussian 09 at Wed Aug 26 19:33:02 2020.
