 Gaussian 09, Revision D.01,
 Gaussian 09:  ES64L-G09RevD.01 24-Apr-2013

 --------------------
 #p B2PLYPD3/Def2QZVP
 --------------------

 --------
 acrolein
 --------
 Symbolic Z-matrix:
 Charge =  0 Multiplicity = 1

                         Standard orientation:
 ---------------------------------------------------------------------
 Center     Atomic      Atomic             Coordinates (Angstroms)
 Number     Number       Type             X           Y           Z
 ---------------------------------------------------------------------
      1          6           0       -0.673269    0.344843    0.032485
      2          8           0       -1.780823   -0.124794   -0.022899
      3          6           0        0.551637   -0.446975    0.007683
      4          6           0        1.755415    0.142560   -0.020951
      5          1           0        0.474996   -1.498434    0.030414
      6          1           0        1.829418    1.192602   -0.052289
      7          1           0        2.655796   -0.418915    0.040286
      8          1           0       -0.516319    1.480534    0.049484
 ---------------------------------------------------------------------

 SCF Done:  E(RB2PLYPD3) =  -191.614866120     A.U. after   12 cycles
 E2(B2PLYPD3) =    -0.2468713078D+00 E(B2PLYPD3) =    -0.19186173742770D+03

 The electronic state is 1-A.
 Alpha  occ. eigenvalues --  -19.72832 -10.71793 -10.65044 -10.64099  -1.19952
 Alpha  occ. eigenvalues --   -0.93134  -0.75694  -0.66999  -0.56824  -0.56559
 Alpha  occ. eigenvalues --   -0.50550  -0.47631  -0.47049  -0.34563  -0.33768
 Alpha virt. eigenvalues --   -0.01854   0.05854   0.07182   0.08324   0.09796
 Alpha virt. eigenvalues --    0.12647   0.14018   0.15394   0.17529   0.19839
 Alpha virt. eigenvalues --    0.20062   0.21685   0.25481   0.26283   0.28834

 Mulliken charges:
               1
     1  C    0.152890
     2  O   -0.342219
     3  C   -0.034080
     4  C   -0.131629
     5  H    0.105902
     6  H    0.086297
     7  H    0.102086
     8  H    0.060753
 Sum of Mulliken charges =   0.00000

 Dipole moment (field-independent basis, Debye):
    X=              3.4774    Y=              0.7035    Z=              0.1202  Tot=              3.5499
 Quadrupole moment (field-independent basis, Debye-Ang):
   XX=            -27.2663   YY=            -21.8292   ZZ=            -25.1608
   XY=             -0.9715   XZ=             -0.0668   YZ=             -0.1125

 Normal termination of Gaussian 09 at Wed Aug 26 15:42:12 2020.
