 Gaussian 09, Revision D.01,
 Gaussian 09:  ES64L-G09RevD.01 24-Apr-2013

 --------------------
 #p B2PLYPD3/Def2QZVP
 --------------------

 --------
 acrolein
 --------
 Symbolic Z-matrix:
 Charge =  0 Multiplicity = 1

                         Standard orientation:
 ---------------------------------------------------------------------
 Center     Atomic      Atomic             Coordinates (Angstroms)
 Number     Number       Type             X           Y           Z
 ---------------------------------------------------------------------
      1          6           0       -0.684808    0.360436    0.023375
      2          8           0       -1.773349   -0.130796   -0.022702
      3          6           0        0.559592   -0.447147    0.013094
      4          6           0        1.753763    0.141291   -0.023160
      5          1           0        0.460733   -1.522525    0.032957
      6          1           0        1.813454    1.231682   -0.060739
      7          1           0        2.683100   -0.417100    0.043061
      8          1           0       -0.541777    1.426830    0.086491
 ---------------------------------------------------------------------

 SCF Done:  E(RB2PLYPD3) =  -191.616771362     A.U. after   12 cycles
 E2(B2PLYPD3) =    -0.2461310539D+00 E(B2PLYPD3) =    -0.19186290241637D+03

 The electronic state is 1-A.
 Alpha  occ. eigenvalues --  -19.72775 -10.71231 -10.65252 -10.64137  -1.20507
 Alpha  occ. eigenvalues --   -0.92624  -0.75028  -0.67323  -0.56712  -0.56364
 Alpha  occ. eigenvalues --   -0.50907  -0.47201  -0.46666  -0.34573  -0.33843
 Alpha virt. eigenvalues --   -0.01315   0.05811   0.07267   0.08209   0.09755
 Alpha virt. eigenvalues --    0.12533   0.14129   0.15463   0.17612   0.19515
 Alpha virt. eigenvalues --    0.20012   0.21560   0.25552   0.26525   0.28881

 Mulliken charges:
               1
     1  C    0.154120
     2  O   -0.339062
     3  C   -0.047089
     4  C   -0.133491
     5  H    0.105214
     6  H    0.079327
     7  H    0.102133
     8  H    0.078848
 Sum of Mulliken charges =   0.00000

 Dipole moment (field-independent basis, Debye):
    X=              3.2956    Y=              0.8173    Z=              0.1245  Tot=              3.3977
 Quadrupole moment (field-independent basis, Debye-Ang):
   XX=            -27.3817   YY=            -21.6886   ZZ=            -25.1805
   XY=             -1.0978   XZ=             -0.0778   YZ=             -0.1023

 Normal termination of Gaussian 09 at Wed Aug 26 15:04:55 2020.
