 Gaussian 09, Revision D.01,
 Gaussian 09:  ES64L-G09RevD.01 24-Apr-2013

 --------------------
 #p B2PLYPD3/Def2QZVP
 --------------------

 --------
 acrolein
 --------
 Symbolic Z-matrix:
 Charge =  0 Multiplicity = 1

                         Standard orientation:
 ---------------------------------------------------------------------
 Center     Atomic      Atomic             Coordinates (Angstroms)
 Number     Number       Type             X           Y           Z
 ---------------------------------------------------------------------
      1          6           0       -0.654849    0.336522   -0.014770
      2          8           0       -1.794843   -0.109457    0.020399
      3          6           0        0.571885   -0.449649   -0.036591
      4          6           0        1.754240    0.147219    0.008379
      5          1           0        0.411650   -1.543039    0.020696
      6          1           0        1.811264    1.205831    0.037556
      7          1           0        2.635606   -0.402520    0.067944
      8          1           0       -0.527426    1.410824   -0.031499
 ---------------------------------------------------------------------

 SCF Done:  E(RB2PLYPD3) =  -191.613882508     A.U. after   12 cycles
 E2(B2PLYPD3) =    -0.2472594655D+00 E(B2PLYPD3) =    -0.19186114197378D+03

 The electronic state is 1-A.
 Alpha  occ. eigenvalues --  -19.72632 -10.71226 -10.64977 -10.64597  -1.18544
 Alpha  occ. eigenvalues --   -0.93671  -0.76287  -0.67151  -0.57025  -0.56763
 Alpha  occ. eigenvalues --   -0.50459  -0.47145  -0.46316  -0.34890  -0.33798
 Alpha virt. eigenvalues --   -0.01998   0.05818   0.07148   0.08248   0.09779
 Alpha virt. eigenvalues --    0.12737   0.13991   0.15284   0.17277   0.19865
 Alpha virt. eigenvalues --    0.20053   0.21912   0.25362   0.26557   0.28883

 Mulliken charges:
               1
     1  C    0.155118
     2  O   -0.360384
     3  C   -0.030476
     4  C   -0.128612
     5  H    0.101504
     6  H    0.087947
     7  H    0.105985
     8  H    0.068918
 Sum of Mulliken charges =   0.00000

 Dipole moment (field-independent basis, Debye):
    X=              3.6355    Y=              0.7444    Z=              0.0377  Tot=              3.7111
 Quadrupole moment (field-independent basis, Debye-Ang):
   XX=            -27.5484   YY=            -21.7204   ZZ=            -25.1155
   XY=             -0.8341   XZ=              0.3500   YZ=             -0.0518

 Normal termination of Gaussian 09 at Wed Aug 26 08:38:07 2020.
