 Gaussian 09, Revision D.01,
 Gaussian 09:  ES64L-G09RevD.01 24-Apr-2013

 --------------------
 #p B2PLYPD3/Def2QZVP
 --------------------

 --------
 acrolein
 --------
 Symbolic Z-matrix:
 Charge =  0 Multiplicity = 1

                         Standard orientation:
 ---------------------------------------------------------------------
 Center     Atomic      Atomic             Coordinates (Angstroms)
 Number     Number       Type             X           Y           Z
 ---------------------------------------------------------------------
      1          6           0        0.663565    0.354606   -0.021962
      2          8           0        1.771084   -0.148356   -0.007962
      3          6           0       -0.558854   -0.405600    0.060435
      4          6           0       -1.739891    0.141330   -0.026921
      5          1           0       -0.483638   -1.444561   -0.002231
      6          1           0       -1.741949    1.012749    0.159235
      7          1           0       -2.680168   -0.396765   -0.150949
      8          1           0        0.548166    1.473410   -0.011673
 ---------------------------------------------------------------------

 SCF Done:  E(RB2PLYPD3) =  -191.573793198     A.U. after   14 cycles
 E2(B2PLYPD3) =    -0.2462698686D+00 E(B2PLYPD3) =    -0.19182006306636D+03

 The electronic state is 1-A.
 Alpha  occ. eigenvalues --  -19.72797 -10.71681 -10.63195 -10.62924  -1.19244
 Alpha  occ. eigenvalues --   -0.95092  -0.76903  -0.68365  -0.58253  -0.56760
 Alpha  occ. eigenvalues --   -0.50787  -0.47855  -0.46730  -0.34960  -0.33912
 Alpha virt. eigenvalues --   -0.01940   0.05943   0.07302   0.08289   0.09953
 Alpha virt. eigenvalues --    0.12639   0.14198   0.15102   0.17231   0.19738
 Alpha virt. eigenvalues --    0.21074   0.22390   0.24654   0.26547   0.28872

 Mulliken charges:
               1
     1  C    0.143814
     2  O   -0.349740
     3  C   -0.015016
     4  C   -0.160598
     5  H    0.101464
     6  H    0.112462
     7  H    0.100917
     8  H    0.066697
 Sum of Mulliken charges =   0.00000

 Dipole moment (field-independent basis, Debye):
    X=             -3.5249    Y=              0.8245    Z=             -0.0044  Tot=              3.6200
 Quadrupole moment (field-independent basis, Debye-Ang):
   XX=            -27.0744   YY=            -22.0206   ZZ=            -24.7530
   XY=              1.2740   XZ=              0.1983   YZ=              0.2839

 Normal termination of Gaussian 09 at Wed Aug 26 10:46:29 2020.
