 Gaussian 09, Revision D.01,
 Gaussian 09:  ES64L-G09RevD.01 24-Apr-2013

 --------------------
 #p B2PLYPD3/Def2QZVP
 --------------------

 --------
 acrolein
 --------
 Symbolic Z-matrix:
 Charge =  0 Multiplicity = 1

                         Standard orientation:
 ---------------------------------------------------------------------
 Center     Atomic      Atomic             Coordinates (Angstroms)
 Number     Number       Type             X           Y           Z
 ---------------------------------------------------------------------
      1          6           0       -0.662189    0.331126    0.039108
      2          8           0       -1.791459   -0.101170   -0.054878
      3          6           0        0.544672   -0.459957    0.094043
      4          6           0        1.795613    0.121486   -0.067706
      5          1           0        0.383400   -1.513720    0.004704
      6          1           0        1.886531    1.289667    0.011732
      7          1           0        2.518238   -0.403147   -0.071379
      8          1           0       -0.525076    1.480627    0.101300
 ---------------------------------------------------------------------

 SCF Done:  E(RB2PLYPD3) =  -191.570048710     A.U. after   13 cycles
 E2(B2PLYPD3) =    -0.2489664561D+00 E(B2PLYPD3) =    -0.19181901516580D+03

 The electronic state is 1-A.
 Alpha  occ. eigenvalues --  -19.72727 -10.71737 -10.65710 -10.65168  -1.19349
 Alpha  occ. eigenvalues --   -0.92859  -0.77919  -0.66020  -0.58353  -0.55236
 Alpha  occ. eigenvalues --   -0.50889  -0.47367  -0.46652  -0.34116  -0.33616
 Alpha virt. eigenvalues --   -0.02934   0.05711   0.07099   0.08198   0.09723
 Alpha virt. eigenvalues --    0.12282   0.13810   0.15330   0.17344   0.19342
 Alpha virt. eigenvalues --    0.19925   0.22549   0.24153   0.26317   0.28654

 Mulliken charges:
               1
     1  C    0.163871
     2  O   -0.349243
     3  C   -0.039955
     4  C   -0.150655
     5  H    0.104175
     6  H    0.090559
     7  H    0.133487
     8  H    0.047760
 Sum of Mulliken charges =   0.00000

 Dipole moment (field-independent basis, Debye):
    X=              3.6140    Y=              0.5851    Z=              0.1242  Tot=              3.6632
 Quadrupole moment (field-independent basis, Debye-Ang):
   XX=            -27.3741   YY=            -21.7831   ZZ=            -25.2972
   XY=             -0.7378   XZ=             -0.4787   YZ=              0.1450

 Normal termination of Gaussian 09 at Wed Aug 26 12:05:37 2020.
