 Gaussian 09, Revision D.01,
 Gaussian 09:  ES64L-G09RevD.01 24-Apr-2013

 --------------------
 #p B2PLYPD3/Def2QZVP
 --------------------

 --------
 acrolein
 --------
 Symbolic Z-matrix:
 Charge =  0 Multiplicity = 1

                         Standard orientation:
 ---------------------------------------------------------------------
 Center     Atomic      Atomic             Coordinates (Angstroms)
 Number     Number       Type             X           Y           Z
 ---------------------------------------------------------------------
      1          6           0        0.667390    0.346189   -0.004955
      2          8           0        1.790382   -0.111309    0.003861
      3          6           0       -0.568955   -0.455941    0.002755
      4          6           0       -1.747324    0.151687   -0.005467
      5          1           0       -0.431633   -1.555141    0.008550
      6          1           0       -1.863596    1.219153    0.065497
      7          1           0       -2.665204   -0.414667   -0.023049
      8          1           0        0.530712    1.389511   -0.035888
 ---------------------------------------------------------------------

 SCF Done:  E(RB2PLYPD3) =  -191.614930928     A.U. after   12 cycles
 E2(B2PLYPD3) =    -0.2466721099D+00 E(B2PLYPD3) =    -0.19186160303783D+03

 The electronic state is 1-A.
 Alpha  occ. eigenvalues --  -19.72604 -10.70935 -10.65271 -10.64611  -1.19256
 Alpha  occ. eigenvalues --   -0.93122  -0.75673  -0.67485  -0.56969  -0.56260
 Alpha  occ. eigenvalues --   -0.50590  -0.46833  -0.46535  -0.34791  -0.33791
 Alpha virt. eigenvalues --   -0.01615   0.05751   0.07198   0.08149   0.09694
 Alpha virt. eigenvalues --    0.12677   0.14173   0.15327   0.17398   0.19732
 Alpha virt. eigenvalues --    0.20082   0.21713   0.25396   0.26661   0.28544

 Mulliken charges:
               1
     1  C    0.155906
     2  O   -0.353876
     3  C   -0.040071
     4  C   -0.131464
     5  H    0.104254
     6  H    0.087418
     7  H    0.099345
     8  H    0.078489
 Sum of Mulliken charges =   0.00000

 Dipole moment (field-independent basis, Debye):
    X=             -3.5145    Y=              0.7954    Z=              0.0169  Tot=              3.6034
 Quadrupole moment (field-independent basis, Debye-Ang):
   XX=            -27.5545   YY=            -21.6098   ZZ=            -25.1519
   XY=              0.7909   XZ=             -0.0803   YZ=              0.0697

 Normal termination of Gaussian 09 at Wed Aug 26 14:23:38 2020.
