 Gaussian 09, Revision D.01,
 Gaussian 09:  ES64L-G09RevD.01 24-Apr-2013

 --------------------
 #p B2PLYPD3/Def2QZVP
 --------------------

 --------
 acrolein
 --------
 Symbolic Z-matrix:
 Charge =  0 Multiplicity = 1

                         Standard orientation:
 ---------------------------------------------------------------------
 Center     Atomic      Atomic             Coordinates (Angstroms)
 Number     Number       Type             X           Y           Z
 ---------------------------------------------------------------------
      1          6           0       -0.696018    0.365060    0.110835
      2          8           0       -1.754208   -0.143743   -0.076662
      3          6           0        0.508254   -0.443285    0.030126
      4          6           0        1.756711    0.148228   -0.066553
      5          1           0        0.467025   -1.470138    0.100874
      6          1           0        1.716169    1.128168   -0.174435
      7          1           0        2.924727   -0.418966    0.107300
      8          1           0       -0.487935    1.490865    0.133102
 ---------------------------------------------------------------------

 SCF Done:  E(RB2PLYPD3) =  -191.569112854     A.U. after   13 cycles
 E2(B2PLYPD3) =    -0.2489859708D+00 E(B2PLYPD3) =    -0.19181809882478D+03

 The electronic state is 1-A.
 Alpha  occ. eigenvalues --  -19.73099 -10.71938 -10.66873 -10.64106  -1.21302
 Alpha  occ. eigenvalues --   -0.92168  -0.74673  -0.67817  -0.57025  -0.55147
 Alpha  occ. eigenvalues --   -0.49467  -0.47617  -0.46651  -0.34321  -0.33219
 Alpha virt. eigenvalues --   -0.02369   0.05029   0.06984   0.07802   0.09647
 Alpha virt. eigenvalues --    0.11962   0.13986   0.15429   0.17769   0.19269
 Alpha virt. eigenvalues --    0.20047   0.20963   0.24790   0.25722   0.28500

 Mulliken charges:
               1
     1  C    0.152186
     2  O   -0.328074
     3  C   -0.034939
     4  C   -0.154352
     5  H    0.112061
     6  H    0.090776
     7  H    0.098256
     8  H    0.064085
 Sum of Mulliken charges =   0.00000

 Dipole moment (field-independent basis, Debye):
    X=              3.1864    Y=              0.8236    Z=              0.3770  Tot=              3.3127
 Quadrupole moment (field-independent basis, Debye-Ang):
   XX=            -26.9607   YY=            -22.0736   ZZ=            -25.3905
   XY=             -1.1700   XZ=             -0.2345   YZ=             -0.3476

 Normal termination of Gaussian 09 at Wed Aug 26 12:40:03 2020.
