 Gaussian 09, Revision D.01,
 Gaussian 09:  ES64L-G09RevD.01 24-Apr-2013

 --------------------
 #p B2PLYPD3/Def2QZVP
 --------------------

 --------
 acrolein
 --------
 Symbolic Z-matrix:
 Charge =  0 Multiplicity = 1

                         Standard orientation:
 ---------------------------------------------------------------------
 Center     Atomic      Atomic             Coordinates (Angstroms)
 Number     Number       Type             X           Y           Z
 ---------------------------------------------------------------------
      1          6           0       -0.647843    0.334960   -0.022170
      2          8           0       -1.810861   -0.097452    0.014860
      3          6           0        0.602251   -0.495258   -0.048143
      4          6           0        1.714466    0.168509    0.029510
      5          1           0        0.417937   -1.569284    0.112353
      6          1           0        1.845533    1.220255    0.010956
      7          1           0        2.601880   -0.409849   -0.022264
      8          1           0       -0.391710    1.489231    0.024890
 ---------------------------------------------------------------------

 SCF Done:  E(RB2PLYPD3) =  -191.601322132     A.U. after   13 cycles
 E2(B2PLYPD3) =    -0.2491926111D+00 E(B2PLYPD3) =    -0.19185051474323D+03

 The electronic state is 1-A.
 Alpha  occ. eigenvalues --  -19.73202 -10.72810 -10.64824 -10.64642  -1.17723
 Alpha  occ. eigenvalues --   -0.94164  -0.75110  -0.66370  -0.56622  -0.55870
 Alpha  occ. eigenvalues --   -0.50246  -0.47019  -0.45655  -0.35573  -0.33455
 Alpha virt. eigenvalues --   -0.01577   0.05706   0.06792   0.07394   0.09750
 Alpha virt. eigenvalues --    0.12626   0.13621   0.14912   0.17055   0.19754
 Alpha virt. eigenvalues --    0.19959   0.21888   0.25062   0.26907   0.28044

 Mulliken charges:
               1
     1  C    0.161269
     2  O   -0.359827
     3  C   -0.036973
     4  C   -0.114019
     5  H    0.111753
     6  H    0.093438
     7  H    0.091617
     8  H    0.052742
 Sum of Mulliken charges =   0.00000

 Dipole moment (field-independent basis, Debye):
    X=              3.6606    Y=              0.6161    Z=              0.0417  Tot=              3.7123
 Quadrupole moment (field-independent basis, Debye-Ang):
   XX=            -28.0283   YY=            -21.6487   ZZ=            -25.2079
   XY=             -0.3343   XZ=              0.0811   YZ=             -0.1576

 Normal termination of Gaussian 09 at Wed Aug 26 14:37:56 2020.
