 Gaussian 09, Revision D.01,
 Gaussian 09:  ES64L-G09RevD.01 24-Apr-2013

 --------------------
 #p B2PLYPD3/Def2QZVP
 --------------------

 --------
 acrolein
 --------
 Symbolic Z-matrix:
 Charge =  0 Multiplicity = 1

                         Standard orientation:
 ---------------------------------------------------------------------
 Center     Atomic      Atomic             Coordinates (Angstroms)
 Number     Number       Type             X           Y           Z
 ---------------------------------------------------------------------
      1          6           0       -0.666006    0.310872    0.026531
      2          8           0       -1.819345   -0.082686   -0.049039
      3          6           0        0.574045   -0.486571    0.015531
      4          6           0        1.771761    0.151401   -0.020289
      5          1           0        0.419113   -1.468985    0.153243
      6          1           0        1.915097    1.207167   -0.188315
      7          1           0        2.593036   -0.364124   -0.004995
      8          1           0       -0.451290    1.433215    0.301748
 ---------------------------------------------------------------------

 SCF Done:  E(RB2PLYPD3) =  -191.593534938     A.U. after   13 cycles
 E2(B2PLYPD3) =    -0.2481930588D+00 E(B2PLYPD3) =    -0.19184172799714D+03

 The electronic state is 1-A.
 Alpha  occ. eigenvalues --  -19.73106 -10.72238 -10.64995 -10.64532  -1.18924
 Alpha  occ. eigenvalues --   -0.93315  -0.77101  -0.67005  -0.57728  -0.55810
 Alpha  occ. eigenvalues --   -0.50925  -0.48812  -0.46057  -0.34698  -0.33333
 Alpha virt. eigenvalues --   -0.02418   0.05870   0.07043   0.07974   0.09645
 Alpha virt. eigenvalues --    0.12939   0.13956   0.15057   0.17636   0.19187
 Alpha virt. eigenvalues --    0.20319   0.22059   0.23982   0.27070   0.28353

 Mulliken charges:
               1
     1  C    0.157747
     2  O   -0.348896
     3  C   -0.044326
     4  C   -0.120005
     5  H    0.111111
     6  H    0.091286
     7  H    0.101572
     8  H    0.051511
 Sum of Mulliken charges =   0.00000

 Dipole moment (field-independent basis, Debye):
    X=              3.6921    Y=              0.5067    Z=              0.2016  Tot=              3.7322
 Quadrupole moment (field-independent basis, Debye-Ang):
   XX=            -27.3251   YY=            -22.0152   ZZ=            -25.0901
   XY=             -0.2816   XZ=             -0.4812   YZ=             -0.3706

 Normal termination of Gaussian 09 at Wed Aug 26 11:09:41 2020.
