 Gaussian 09, Revision D.01,
 Gaussian 09:  ES64L-G09RevD.01 24-Apr-2013

 --------------------
 #p B2PLYPD3/Def2QZVP
 --------------------

 --------
 acrolein
 --------
 Symbolic Z-matrix:
 Charge =  0 Multiplicity = 1

                         Standard orientation:
 ---------------------------------------------------------------------
 Center     Atomic      Atomic             Coordinates (Angstroms)
 Number     Number       Type             X           Y           Z
 ---------------------------------------------------------------------
      1          6           0       -0.668107    0.347974   -0.036872
      2          8           0       -1.789294   -0.132525    0.042347
      3          6           0        0.555060   -0.417104   -0.037408
      4          6           0        1.765990    0.135137    0.018183
      5          1           0        0.444078   -1.521819   -0.017309
      6          1           0        1.776130    1.167428    0.195817
      7          1           0        2.675778   -0.451658   -0.012613
      8          1           0       -0.499292    1.470204   -0.168086
 ---------------------------------------------------------------------

 SCF Done:  E(RB2PLYPD3) =  -191.610524380     A.U. after   13 cycles
 E2(B2PLYPD3) =    -0.2482222399D+00 E(B2PLYPD3) =    -0.19185874661976D+03

 The electronic state is 1-A.
 Alpha  occ. eigenvalues --  -19.73025 -10.72004 -10.65326 -10.64447  -1.18955
 Alpha  occ. eigenvalues --   -0.93567  -0.76157  -0.66329  -0.56866  -0.56295
 Alpha  occ. eigenvalues --   -0.50736  -0.46597  -0.46505  -0.34663  -0.34009
 Alpha virt. eigenvalues --   -0.02367   0.05792   0.06906   0.08232   0.09877
 Alpha virt. eigenvalues --    0.12649   0.13698   0.15401   0.17138   0.19251
 Alpha virt. eigenvalues --    0.20439   0.21653   0.25159   0.26441   0.28935

 Mulliken charges:
               1
     1  C    0.154985
     2  O   -0.351772
     3  C   -0.026472
     4  C   -0.130235
     5  H    0.096851
     6  H    0.084920
     7  H    0.110940
     8  H    0.060783
 Sum of Mulliken charges =   0.00000

 Dipole moment (field-independent basis, Debye):
    X=              3.5772    Y=              0.7267    Z=             -0.0430  Tot=              3.6505
 Quadrupole moment (field-independent basis, Debye-Ang):
   XX=            -27.3682   YY=            -21.9943   ZZ=            -25.1776
   XY=             -1.1487   XZ=              0.4657   YZ=              0.1765

 Normal termination of Gaussian 09 at Wed Aug 26 09:00:20 2020.
