 Gaussian 09, Revision D.01,
 Gaussian 09:  ES64L-G09RevD.01 24-Apr-2013

 --------------------
 #p B2PLYPD3/Def2QZVP
 --------------------

 --------
 acrolein
 --------
 Symbolic Z-matrix:
 Charge =  0 Multiplicity = 1

                         Standard orientation:
 ---------------------------------------------------------------------
 Center     Atomic      Atomic             Coordinates (Angstroms)
 Number     Number       Type             X           Y           Z
 ---------------------------------------------------------------------
      1          6           0       -0.668335    0.348295   -0.015436
      2          8           0       -1.808618   -0.103065    0.037643
      3          6           0        0.565367   -0.467000   -0.061350
      4          6           0        1.760964    0.140190    0.014108
      5          1           0        0.388202   -1.568100   -0.038675
      6          1           0        1.899549    1.252341    0.008559
      7          1           0        2.697025   -0.408968    0.186431
      8          1           0       -0.463817    1.420333   -0.081386
 ---------------------------------------------------------------------

 SCF Done:  E(RB2PLYPD3) =  -191.610605275     A.U. after   12 cycles
 E2(B2PLYPD3) =    -0.2488535089D+00 E(B2PLYPD3) =    -0.19185945878417D+03

 The electronic state is 1-A.
 Alpha  occ. eigenvalues --  -19.72942 -10.71791 -10.66490 -10.65254  -1.18499
 Alpha  occ. eigenvalues --   -0.92647  -0.75425  -0.66709  -0.56531  -0.55381
 Alpha  occ. eigenvalues --   -0.50504  -0.46506  -0.45995  -0.34613  -0.33833
 Alpha virt. eigenvalues --   -0.02142   0.05525   0.07067   0.07800   0.09604
 Alpha virt. eigenvalues --    0.12411   0.13939   0.15301   0.17258   0.19531
 Alpha virt. eigenvalues --    0.19816   0.21575   0.24887   0.26703   0.28397

 Mulliken charges:
               1
     1  C    0.164487
     2  O   -0.359167
     3  C   -0.042954
     4  C   -0.125344
     5  H    0.106759
     6  H    0.082903
     7  H    0.100197
     8  H    0.073119
 Sum of Mulliken charges =   0.00000

 Dipole moment (field-independent basis, Debye):
    X=              3.6184    Y=              0.7530    Z=              0.0034  Tot=              3.6960
 Quadrupole moment (field-independent basis, Debye-Ang):
   XX=            -27.6105   YY=            -21.7438   ZZ=            -25.3523
   XY=             -0.5240   XZ=              0.6617   YZ=             -0.0967

 Normal termination of Gaussian 09 at Wed Aug 26 10:20:56 2020.
