 Gaussian 09, Revision D.01,
 Gaussian 09:  ES64L-G09RevD.01 24-Apr-2013

 --------------------
 #p B2PLYPD3/Def2QZVP
 --------------------

 --------
 acrolein
 --------
 Symbolic Z-matrix:
 Charge =  0 Multiplicity = 1

                         Standard orientation:
 ---------------------------------------------------------------------
 Center     Atomic      Atomic             Coordinates (Angstroms)
 Number     Number       Type             X           Y           Z
 ---------------------------------------------------------------------
      1          6           0        0.674103    0.360105   -0.042705
      2          8           0        1.767867   -0.143412    0.038257
      3          6           0       -0.501545   -0.417091   -0.066705
      4          6           0       -1.753765    0.106295    0.008057
      5          1           0       -0.430818   -1.414120    0.064580
      6          1           0       -1.929543    1.201034    0.035841
      7          1           0       -2.809709   -0.480069    0.147719
      8          1           0        0.514374    1.544602    0.053919
 ---------------------------------------------------------------------

 SCF Done:  E(RB2PLYPD3) =  -191.589538003     A.U. after   13 cycles
 E2(B2PLYPD3) =    -0.2491756050D+00 E(B2PLYPD3) =    -0.19183871360813D+03

 The electronic state is 1-A.
 Alpha  occ. eigenvalues --  -19.72840 -10.72016 -10.67774 -10.63809  -1.20010
 Alpha  occ. eigenvalues --   -0.93077  -0.75276  -0.66864  -0.56690  -0.55664
 Alpha  occ. eigenvalues --   -0.49806  -0.47405  -0.45684  -0.34439  -0.33794
 Alpha virt. eigenvalues --   -0.02580   0.05153   0.06985   0.08426   0.09638
 Alpha virt. eigenvalues --    0.11740   0.13771   0.15318   0.18261   0.19540
 Alpha virt. eigenvalues --    0.19750   0.20706   0.24785   0.26335   0.28794

 Mulliken charges:
               1
     1  C    0.158272
     2  O   -0.344212
     3  C   -0.036291
     4  C   -0.117696
     5  H    0.118089
     6  H    0.078159
     7  H    0.091387
     8  H    0.052292
 Sum of Mulliken charges =   0.00000

 Dipole moment (field-independent basis, Debye):
    X=             -3.5696    Y=              0.7330    Z=              0.1025  Tot=              3.6455
 Quadrupole moment (field-independent basis, Debye-Ang):
   XX=            -26.7750   YY=            -22.2314   ZZ=            -25.3333
   XY=              0.9235   XZ=             -0.6537   YZ=             -0.1246

 Normal termination of Gaussian 09 at Wed Aug 26 14:12:25 2020.
