 Gaussian 09, Revision D.01,
 Gaussian 09:  ES64L-G09RevD.01 24-Apr-2013

 --------------------
 #p B2PLYPD3/Def2QZVP
 --------------------

 --------
 acrolein
 --------
 Symbolic Z-matrix:
 Charge =  0 Multiplicity = 1

                         Standard orientation:
 ---------------------------------------------------------------------
 Center     Atomic      Atomic             Coordinates (Angstroms)
 Number     Number       Type             X           Y           Z
 ---------------------------------------------------------------------
      1          6           0       -0.671919    0.340221    0.015697
      2          8           0       -1.792687   -0.113530   -0.017188
      3          6           0        0.577561   -0.460464   -0.002036
      4          6           0        1.758806    0.154411    0.002469
      5          1           0        0.438866   -1.541354    0.064171
      6          1           0        1.819524    1.225810   -0.053401
      7          1           0        2.649020   -0.400219   -0.036441
      8          1           0       -0.552607    1.418992    0.066399
 ---------------------------------------------------------------------

 SCF Done:  E(RB2PLYPD3) =  -191.615793625     A.U. after   12 cycles
 E2(B2PLYPD3) =    -0.2467101529D+00 E(B2PLYPD3) =    -0.19186250377765D+03

 The electronic state is 1-A.
 Alpha  occ. eigenvalues --  -19.72708 -10.71334 -10.65019 -10.64628  -1.19503
 Alpha  occ. eigenvalues --   -0.93000  -0.75520  -0.67149  -0.56822  -0.56520
 Alpha  occ. eigenvalues --   -0.50662  -0.47334  -0.46583  -0.34767  -0.33691
 Alpha virt. eigenvalues --   -0.01604   0.05859   0.07231   0.08092   0.09737
 Alpha virt. eigenvalues --    0.12677   0.14033   0.15287   0.17440   0.19767
 Alpha virt. eigenvalues --    0.20028   0.21796   0.25236   0.26549   0.28800

 Mulliken charges:
               1
     1  C    0.154889
     2  O   -0.348490
     3  C   -0.042036
     4  C   -0.130698
     5  H    0.104232
     6  H    0.087104
     7  H    0.103640
     8  H    0.071360
 Sum of Mulliken charges =   0.00000

 Dipole moment (field-independent basis, Debye):
    X=              3.4678    Y=              0.7469    Z=              0.0598  Tot=              3.5478
 Quadrupole moment (field-independent basis, Debye-Ang):
   XX=            -27.5325   YY=            -21.6672   ZZ=            -25.1685
   XY=             -0.9007   XZ=             -0.2309   YZ=             -0.1222

 Normal termination of Gaussian 09 at Wed Aug 26 16:30:04 2020.
