 Gaussian 09, Revision D.01,
 Gaussian 09:  ES64L-G09RevD.01 24-Apr-2013

 --------------------
 #p B2PLYPD3/Def2QZVP
 --------------------

 --------
 acrolein
 --------
 Symbolic Z-matrix:
 Charge =  0 Multiplicity = 1

                         Standard orientation:
 ---------------------------------------------------------------------
 Center     Atomic      Atomic             Coordinates (Angstroms)
 Number     Number       Type             X           Y           Z
 ---------------------------------------------------------------------
      1          6           0       -0.673199    0.360396    0.002851
      2          8           0       -1.775715   -0.131968   -0.013985
      3          6           0        0.546931   -0.434664    0.028052
      4          6           0        1.755088    0.142650   -0.019399
      5          1           0        0.434751   -1.544143    0.024221
      6          1           0        1.804625    1.188517    0.034015
      7          1           0        2.743202   -0.430592   -0.047157
      8          1           0       -0.549776    1.431665    0.031781
 ---------------------------------------------------------------------

 SCF Done:  E(RB2PLYPD3) =  -191.612034126     A.U. after   12 cycles
 E2(B2PLYPD3) =    -0.2471924644D+00 E(B2PLYPD3) =    -0.19185922659014D+03

 The electronic state is 1-A.
 Alpha  occ. eigenvalues --  -19.72634 -10.71186 -10.65788 -10.64617  -1.19695
 Alpha  occ. eigenvalues --   -0.92852  -0.75376  -0.67211  -0.57055  -0.55804
 Alpha  occ. eigenvalues --   -0.50306  -0.46973  -0.46343  -0.34485  -0.33958
 Alpha virt. eigenvalues --   -0.01817   0.05669   0.07035   0.08257   0.09745
 Alpha virt. eigenvalues --    0.12412   0.14117   0.15359   0.17398   0.19911
 Alpha virt. eigenvalues --    0.20016   0.21255   0.25467   0.26382   0.29050

 Mulliken charges:
               1
     1  C    0.151206
     2  O   -0.348339
     3  C   -0.036066
     4  C   -0.133458
     5  H    0.103557
     6  H    0.085078
     7  H    0.101157
     8  H    0.076865
 Sum of Mulliken charges =   0.00000

 Dipole moment (field-independent basis, Debye):
    X=              3.4485    Y=              0.8481    Z=              0.0537  Tot=              3.5516
 Quadrupole moment (field-independent basis, Debye-Ang):
   XX=            -27.3195   YY=            -21.7471   ZZ=            -25.2476
   XY=             -1.1021   XZ=             -0.1300   YZ=              0.0649

 Normal termination of Gaussian 09 at Wed Aug 26 16:23:37 2020.
