 Gaussian 09, Revision D.01,
 Gaussian 09:  ES64L-G09RevD.01 24-Apr-2013

 --------------------
 #p B2PLYPD3/Def2QZVP
 --------------------

 --------
 acrolein
 --------
 Symbolic Z-matrix:
 Charge =  0 Multiplicity = 1

                         Standard orientation:
 ---------------------------------------------------------------------
 Center     Atomic      Atomic             Coordinates (Angstroms)
 Number     Number       Type             X           Y           Z
 ---------------------------------------------------------------------
      1          6           0       -0.652007   -0.325585    0.016699
      2          8           0       -1.794708    0.088581    0.018829
      3          6           0        0.583977    0.480756   -0.062300
      4          6           0        1.752200   -0.175756    0.031968
      5          1           0        0.428652    1.705044   -0.037255
      6          1           0        1.809723   -1.313525   -0.094210
      7          1           0        2.538665    0.422924    0.142730
      8          1           0       -0.524403   -1.399583   -0.080101
 ---------------------------------------------------------------------

 SCF Done:  E(RB2PLYPD3) =  -191.588442093     A.U. after   13 cycles
 E2(B2PLYPD3) =    -0.2487656621D+00 E(B2PLYPD3) =    -0.19183720775546D+03

 The electronic state is 1-A.
 Alpha  occ. eigenvalues --  -19.72515 -10.71246 -10.66185 -10.65555  -1.18966
 Alpha  occ. eigenvalues --   -0.93009  -0.75755  -0.65498  -0.56798  -0.55605
 Alpha  occ. eigenvalues --   -0.50001  -0.46755  -0.45925  -0.34633  -0.33439
 Alpha virt. eigenvalues --   -0.01880   0.05581   0.06329   0.07821   0.09588
 Alpha virt. eigenvalues --    0.12425   0.13898   0.15184   0.16690   0.19564
 Alpha virt. eigenvalues --    0.19974   0.22023   0.24643   0.26288   0.28413

 Mulliken charges:
               1
     1  C    0.163705
     2  O   -0.351089
     3  C   -0.046267
     4  C   -0.129434
     5  H    0.091443
     6  H    0.098373
     7  H    0.109800
     8  H    0.063468
 Sum of Mulliken charges =   0.00000

 Dipole moment (field-independent basis, Debye):
    X=              3.5621    Y=             -0.6779    Z=             -0.0378  Tot=              3.6262
 Quadrupole moment (field-independent basis, Debye-Ang):
   XX=            -28.0716   YY=            -21.3384   ZZ=            -25.3610
   XY=              0.7028   XZ=              0.3066   YZ=              0.2357

 Normal termination of Gaussian 09 at Wed Aug 26 13:29:36 2020.
