 Gaussian 09, Revision D.01,
 Gaussian 09:  ES64L-G09RevD.01 24-Apr-2013

 --------------------
 #p B2PLYPD3/Def2QZVP
 --------------------

 --------
 acrolein
 --------
 Symbolic Z-matrix:
 Charge =  0 Multiplicity = 1

                         Standard orientation:
 ---------------------------------------------------------------------
 Center     Atomic      Atomic             Coordinates (Angstroms)
 Number     Number       Type             X           Y           Z
 ---------------------------------------------------------------------
      1          6           0       -0.661912    0.332339   -0.009368
      2          8           0       -1.812967   -0.100950    0.029509
      3          6           0        0.579628   -0.475765   -0.045120
      4          6           0        1.753856    0.165887    0.015080
      5          1           0        0.457142   -1.588780   -0.042519
      6          1           0        1.842676    1.213179    0.018903
      7          1           0        2.653324   -0.396690    0.122951
      8          1           0       -0.478836    1.445128   -0.098961
 ---------------------------------------------------------------------

 SCF Done:  E(RB2PLYPD3) =  -191.611521116     A.U. after   13 cycles
 E2(B2PLYPD3) =    -0.2486315160D+00 E(B2PLYPD3) =    -0.19186015263201D+03

 The electronic state is 1-A.
 Alpha  occ. eigenvalues --  -19.72920 -10.72165 -10.65407 -10.65283  -1.18268
 Alpha  occ. eigenvalues --   -0.93122  -0.75624  -0.66562  -0.56340  -0.56316
 Alpha  occ. eigenvalues --   -0.50118  -0.47446  -0.46011  -0.34736  -0.33697
 Alpha virt. eigenvalues --   -0.02072   0.05765   0.06870   0.07801   0.09659
 Alpha virt. eigenvalues --    0.12695   0.13984   0.15258   0.17044   0.19829
 Alpha virt. eigenvalues --    0.20129   0.21716   0.24978   0.26424   0.28414

 Mulliken charges:
               1
     1  C    0.157640
     2  O   -0.356919
     3  C   -0.034988
     4  C   -0.127527
     5  H    0.103645
     6  H    0.092269
     7  H    0.100862
     8  H    0.065019
 Sum of Mulliken charges =   0.00000

 Dipole moment (field-independent basis, Debye):
    X=              3.6660    Y=              0.6827    Z=             -0.0248  Tot=              3.7291
 Quadrupole moment (field-independent basis, Debye-Ang):
   XX=            -27.7338   YY=            -21.6504   ZZ=            -25.2996
   XY=             -0.6353   XZ=              0.4726   YZ=             -0.0415

 Normal termination of Gaussian 09 at Wed Aug 26 08:47:17 2020.
