 Gaussian 09, Revision D.01,
 Gaussian 09:  ES64L-G09RevD.01 24-Apr-2013

 --------------------
 #p B2PLYPD3/Def2QZVP
 --------------------

 --------
 acrolein
 --------
 Symbolic Z-matrix:
 Charge =  0 Multiplicity = 1

                         Standard orientation:
 ---------------------------------------------------------------------
 Center     Atomic      Atomic             Coordinates (Angstroms)
 Number     Number       Type             X           Y           Z
 ---------------------------------------------------------------------
      1          6           0       -0.654259    0.343301   -0.036413
      2          8           0       -1.786776   -0.125745    0.032312
      3          6           0        0.547051   -0.444745   -0.046577
      4          6           0        1.743473    0.144623    0.001644
      5          1           0        0.482259   -1.485720    0.015064
      6          1           0        1.808298    1.209596    0.017723
      7          1           0        2.713105   -0.442726    0.160183
      8          1           0       -0.527042    1.465735    0.036604
 ---------------------------------------------------------------------

 SCF Done:  E(RB2PLYPD3) =  -191.609658788     A.U. after   13 cycles
 E2(B2PLYPD3) =    -0.2483278662D+00 E(B2PLYPD3) =    -0.19185798665451D+03

 The electronic state is 1-A.
 Alpha  occ. eigenvalues --  -19.72631 -10.71752 -10.66199 -10.64058  -1.18446
 Alpha  occ. eigenvalues --   -0.93659  -0.75449  -0.67372  -0.56781  -0.55954
 Alpha  occ. eigenvalues --   -0.49797  -0.47157  -0.46409  -0.34681  -0.33859
 Alpha virt. eigenvalues --   -0.02242   0.05576   0.06979   0.08143   0.09730
 Alpha virt. eigenvalues --    0.12405   0.13929   0.15267   0.17733   0.19619
 Alpha virt. eigenvalues --    0.20069   0.21305   0.25065   0.26433   0.29058

 Mulliken charges:
               1
     1  C    0.148457
     2  O   -0.358535
     3  C   -0.028449
     4  C   -0.123106
     5  H    0.111139
     6  H    0.086712
     7  H    0.096501
     8  H    0.067281
 Sum of Mulliken charges =   0.00000

 Dipole moment (field-independent basis, Debye):
    X=              3.6536    Y=              0.7405    Z=              0.0667  Tot=              3.7285
 Quadrupole moment (field-independent basis, Debye-Ang):
   XX=            -27.5286   YY=            -21.7787   ZZ=            -25.2042
   XY=             -1.0681   XZ=              0.5832   YZ=             -0.0865

 Normal termination of Gaussian 09 at Wed Aug 26 10:20:41 2020.
