 Gaussian 09, Revision D.01,
 Gaussian 09:  ES64L-G09RevD.01 24-Apr-2013

 --------------------
 #p B2PLYPD3/Def2QZVP
 --------------------

 --------
 acrolein
 --------
 Symbolic Z-matrix:
 Charge =  0 Multiplicity = 1

                         Standard orientation:
 ---------------------------------------------------------------------
 Center     Atomic      Atomic             Coordinates (Angstroms)
 Number     Number       Type             X           Y           Z
 ---------------------------------------------------------------------
      1          6           0        0.666463    0.360524    0.049408
      2          8           0        1.794710   -0.132909   -0.039885
      3          6           0       -0.540703   -0.436531    0.009976
      4          6           0       -1.759811    0.142401   -0.030833
      5          1           0       -0.446635   -1.533571    0.095757
      6          1           0       -1.823777    1.173047   -0.079061
      7          1           0       -2.795599   -0.448200    0.026217
      8          1           0        0.512639    1.473636    0.104862
 ---------------------------------------------------------------------

 SCF Done:  E(RB2PLYPD3) =  -191.603231665     A.U. after   13 cycles
 E2(B2PLYPD3) =    -0.2494914141D+00 E(B2PLYPD3) =    -0.19185272307929D+03

 The electronic state is 1-A.
 Alpha  occ. eigenvalues --  -19.72873 -10.72091 -10.66541 -10.64930  -1.18190
 Alpha  occ. eigenvalues --   -0.92947  -0.75457  -0.66925  -0.56742  -0.55291
 Alpha  occ. eigenvalues --   -0.49709  -0.46559  -0.46037  -0.34380  -0.34071
 Alpha virt. eigenvalues --   -0.02501   0.05404   0.06773   0.07968   0.09664
 Alpha virt. eigenvalues --    0.12204   0.13945   0.15249   0.17404   0.19762
 Alpha virt. eigenvalues --    0.20120   0.21015   0.25169   0.26194   0.29176

 Mulliken charges:
               1
     1  C    0.149490
     2  O   -0.358692
     3  C   -0.027684
     4  C   -0.131723
     5  H    0.107194
     6  H    0.088788
     7  H    0.097676
     8  H    0.074951
 Sum of Mulliken charges =   0.00000

 Dipole moment (field-independent basis, Debye):
    X=             -3.6305    Y=              0.8433    Z=              0.2214  Tot=              3.7338
 Quadrupole moment (field-independent basis, Debye-Ang):
   XX=            -27.4542   YY=            -21.7860   ZZ=            -25.3958
   XY=              1.0204   XZ=              0.1874   YZ=             -0.1961

 Normal termination of Gaussian 09 at Wed Aug 26 10:22:16 2020.
