 Gaussian 09, Revision D.01,
 Gaussian 09:  ES64L-G09RevD.01 24-Apr-2013

 --------------------
 #p B2PLYPD3/Def2QZVP
 --------------------

 --------
 acrolein
 --------
 Symbolic Z-matrix:
 Charge =  0 Multiplicity = 1

                         Standard orientation:
 ---------------------------------------------------------------------
 Center     Atomic      Atomic             Coordinates (Angstroms)
 Number     Number       Type             X           Y           Z
 ---------------------------------------------------------------------
      1          6           0       -0.671237    0.356592   -0.013075
      2          8           0       -1.783426   -0.133545    0.016715
      3          6           0        0.553531   -0.446968   -0.016732
      4          6           0        1.751662    0.145050   -0.001917
      5          1           0        0.458493   -1.502097   -0.036143
      6          1           0        1.796932    1.191370    0.004229
      7          1           0        2.720395   -0.440223    0.097713
      8          1           0       -0.512142    1.491259   -0.009176
 ---------------------------------------------------------------------

 SCF Done:  E(RB2PLYPD3) =  -191.612100039     A.U. after   12 cycles
 E2(B2PLYPD3) =    -0.2478159697D+00 E(B2PLYPD3) =    -0.19185991600911D+03

 The electronic state is 1-A.
 Alpha  occ. eigenvalues --  -19.72907 -10.72076 -10.65674 -10.64206  -1.19311
 Alpha  occ. eigenvalues --   -0.93094  -0.75069  -0.67087  -0.56559  -0.55967
 Alpha  occ. eigenvalues --   -0.50179  -0.47256  -0.46682  -0.34603  -0.33880
 Alpha virt. eigenvalues --   -0.01861   0.05681   0.07039   0.08066   0.09794
 Alpha virt. eigenvalues --    0.12418   0.13807   0.15332   0.17554   0.19805
 Alpha virt. eigenvalues --    0.20071   0.21327   0.25474   0.26214   0.28979

 Mulliken charges:
               1
     1  C    0.152071
     2  O   -0.348758
     3  C   -0.034180
     4  C   -0.131163
     5  H    0.109417
     6  H    0.086964
     7  H    0.099339
     8  H    0.066309
 Sum of Mulliken charges =   0.00000

 Dipole moment (field-independent basis, Debye):
    X=              3.4789    Y=              0.7627    Z=              0.0018  Tot=              3.5615
 Quadrupole moment (field-independent basis, Debye-Ang):
   XX=            -27.4573   YY=            -21.7772   ZZ=            -25.2602
   XY=             -1.0617   XZ=              0.3142   YZ=             -0.0080

 Normal termination of Gaussian 09 at Wed Aug 26 15:25:37 2020.
