 Gaussian 09, Revision D.01,
 Gaussian 09:  ES64L-G09RevD.01 24-Apr-2013

 --------------------
 #p B2PLYPD3/Def2QZVP
 --------------------

 --------
 acrolein
 --------
 Symbolic Z-matrix:
 Charge =  0 Multiplicity = 1

                         Standard orientation:
 ---------------------------------------------------------------------
 Center     Atomic      Atomic             Coordinates (Angstroms)
 Number     Number       Type             X           Y           Z
 ---------------------------------------------------------------------
      1          6           0       -0.675048    0.343092    0.080951
      2          8           0       -1.783859   -0.101864   -0.073014
      3          6           0        0.567138   -0.456805    0.019960
      4          6           0        1.775253    0.124493   -0.061767
      5          1           0        0.353276   -1.535825    0.210233
      6          1           0        1.956324    1.348613   -0.037486
      7          1           0        2.579950   -0.420791   -0.004727
      8          1           0       -0.622735    1.358233    0.181227
 ---------------------------------------------------------------------

 SCF Done:  E(RB2PLYPD3) =  -191.584913706     A.U. after   12 cycles
 E2(B2PLYPD3) =    -0.2471130396D+00 E(B2PLYPD3) =    -0.19183202674576D+03

 The electronic state is 1-A.
 Alpha  occ. eigenvalues --  -19.72470 -10.70364 -10.65959 -10.65130  -1.19803
 Alpha  occ. eigenvalues --   -0.92430  -0.76279  -0.67479  -0.57381  -0.55442
 Alpha  occ. eigenvalues --   -0.51146  -0.46891  -0.45422  -0.34525  -0.33689
 Alpha virt. eigenvalues --   -0.01760   0.05397   0.07023   0.08260   0.09456
 Alpha virt. eigenvalues --    0.12140   0.14092   0.15209   0.17780   0.18716
 Alpha virt. eigenvalues --    0.19985   0.22167   0.24862   0.26891   0.28980

 Mulliken charges:
               1
     1  C    0.164158
     2  O   -0.347795
     3  C   -0.051908
     4  C   -0.129465
     5  H    0.100153
     6  H    0.078094
     7  H    0.110701
     8  H    0.076062
 Sum of Mulliken charges =   0.00000

 Dipole moment (field-independent basis, Debye):
    X=              3.3864    Y=              0.7599    Z=              0.4828  Tot=              3.5041
 Quadrupole moment (field-independent basis, Debye-Ang):
   XX=            -27.4927   YY=            -21.5905   ZZ=            -25.2163
   XY=             -0.7758   XZ=             -0.3456   YZ=             -0.2781

 Normal termination of Gaussian 09 at Wed Aug 26 14:50:02 2020.
