 Gaussian 09, Revision D.01,
 Gaussian 09:  ES64L-G09RevD.01 24-Apr-2013

 --------------------
 #p B2PLYPD3/Def2QZVP
 --------------------

 --------
 acrolein
 --------
 Symbolic Z-matrix:
 Charge =  0 Multiplicity = 1

                         Standard orientation:
 ---------------------------------------------------------------------
 Center     Atomic      Atomic             Coordinates (Angstroms)
 Number     Number       Type             X           Y           Z
 ---------------------------------------------------------------------
      1          6           0       -0.671617    0.313834    0.061448
      2          8           0       -1.807714   -0.085379   -0.059894
      3          6           0        0.572679   -0.466690    0.105342
      4          6           0        1.768004    0.155700   -0.072871
      5          1           0        0.419472   -1.528971   -0.082605
      6          1           0        1.844675    1.221834   -0.011069
      7          1           0        2.658917   -0.372524   -0.047215
      8          1           0       -0.475741    1.345625    0.056530
 ---------------------------------------------------------------------

 SCF Done:  E(RB2PLYPD3) =  -191.606491089     A.U. after   13 cycles
 E2(B2PLYPD3) =    -0.2475724901D+00 E(B2PLYPD3) =    -0.19185406357932D+03

 The electronic state is 1-A.
 Alpha  occ. eigenvalues --  -19.72773 -10.70869 -10.65699 -10.64976  -1.19405
 Alpha  occ. eigenvalues --   -0.92973  -0.76604  -0.67619  -0.56831  -0.56430
 Alpha  occ. eigenvalues --   -0.50866  -0.47516  -0.46501  -0.34732  -0.33568
 Alpha virt. eigenvalues --   -0.02461   0.05824   0.07446   0.07888   0.09744
 Alpha virt. eigenvalues --    0.12827   0.13590   0.15404   0.17865   0.19524
 Alpha virt. eigenvalues --    0.19959   0.21814   0.24116   0.27077   0.28525

 Mulliken charges:
               1
     1  C    0.159162
     2  O   -0.351470
     3  C   -0.042612
     4  C   -0.119345
     5  H    0.103231
     6  H    0.082795
     7  H    0.104007
     8  H    0.064231
 Sum of Mulliken charges =   0.00000

 Dipole moment (field-independent basis, Debye):
    X=              3.6320    Y=              0.6935    Z=              0.0876  Tot=              3.6986
 Quadrupole moment (field-independent basis, Debye-Ang):
   XX=            -27.3286   YY=            -21.9630   ZZ=            -25.1425
   XY=             -0.5265   XZ=             -0.4993   YZ=              0.2077

 Normal termination of Gaussian 09 at Wed Aug 26 15:04:12 2020.
