 Gaussian 09, Revision D.01,
 Gaussian 09:  ES64L-G09RevD.01 24-Apr-2013

 --------------------
 #p B2PLYPD3/Def2QZVP
 --------------------

 --------
 acrolein
 --------
 Symbolic Z-matrix:
 Charge =  0 Multiplicity = 1

                         Standard orientation:
 ---------------------------------------------------------------------
 Center     Atomic      Atomic             Coordinates (Angstroms)
 Number     Number       Type             X           Y           Z
 ---------------------------------------------------------------------
      1          6           0       -0.674017    0.361209    0.010602
      2          8           0       -1.776755   -0.129432   -0.009408
      3          6           0        0.550646   -0.434425    0.005852
      4          6           0        1.754853    0.139431   -0.011966
      5          1           0        0.419062   -1.539173    0.007725
      6          1           0        1.821989    1.178620   -0.031029
      7          1           0        2.711069   -0.428621    0.032999
      8          1           0       -0.526977    1.427339    0.038640
 ---------------------------------------------------------------------

 SCF Done:  E(RB2PLYPD3) =  -191.614328778     A.U. after   12 cycles
 E2(B2PLYPD3) =    -0.2468026435D+00 E(B2PLYPD3) =    -0.19186113142197D+03

 The electronic state is 1-A.
 Alpha  occ. eigenvalues --  -19.72716 -10.71173 -10.65311 -10.64472  -1.19738
 Alpha  occ. eigenvalues --   -0.92976  -0.75647  -0.67291  -0.57079  -0.56087
 Alpha  occ. eigenvalues --   -0.50586  -0.46931  -0.46545  -0.34582  -0.33954
 Alpha virt. eigenvalues --   -0.01745   0.05750   0.07144   0.08296   0.09781
 Alpha virt. eigenvalues --    0.12552   0.14103   0.15393   0.17379   0.19844
 Alpha virt. eigenvalues --    0.20034   0.21566   0.25642   0.26480   0.28885

 Mulliken charges:
               1
     1  C    0.152867
     2  O   -0.348847
     3  C   -0.035123
     4  C   -0.135400
     5  H    0.102917
     6  H    0.084724
     7  H    0.102113
     8  H    0.076750
 Sum of Mulliken charges =   0.00000

 Dipole moment (field-independent basis, Debye):
    X=              3.4382    Y=              0.8467    Z=              0.0553  Tot=              3.5413
 Quadrupole moment (field-independent basis, Debye-Ang):
   XX=            -27.3283   YY=            -21.7488   ZZ=            -25.1854
   XY=             -0.9893   XZ=             -0.0080   YZ=             -0.0461

 Normal termination of Gaussian 09 at Wed Aug 26 14:02:11 2020.
