 Gaussian 09, Revision D.01,
 Gaussian 09:  ES64L-G09RevD.01 24-Apr-2013

 --------------------
 #p B2PLYPD3/Def2QZVP
 --------------------

 --------
 acrolein
 --------
 Symbolic Z-matrix:
 Charge =  0 Multiplicity = 1

                         Standard orientation:
 ---------------------------------------------------------------------
 Center     Atomic      Atomic             Coordinates (Angstroms)
 Number     Number       Type             X           Y           Z
 ---------------------------------------------------------------------
      1          6           0        0.672400   -0.347819   -0.044923
      2          8           0        1.809864    0.099309    0.049663
      3          6           0       -0.610808    0.474181   -0.092495
      4          6           0       -1.786498   -0.148336    0.015764
      5          1           0       -0.383228    1.676642    0.104233
      6          1           0       -1.846302   -1.300845    0.137265
      7          1           0       -2.437344    0.365756    0.155787
      8          1           0        0.537398   -1.404181   -0.064663
 ---------------------------------------------------------------------

 SCF Done:  E(RB2PLYPD3) =  -191.529310893     A.U. after   13 cycles
 E2(B2PLYPD3) =    -0.2489385949D+00 E(B2PLYPD3) =    -0.19177824948807D+03

 The electronic state is 1-A.
 Alpha  occ. eigenvalues --  -19.73036 -10.71789 -10.66431 -10.63756  -1.18633
 Alpha  occ. eigenvalues --   -0.93484  -0.77240  -0.66066  -0.58284  -0.55358
 Alpha  occ. eigenvalues --   -0.50937  -0.46237  -0.45519  -0.34867  -0.33761
 Alpha virt. eigenvalues --   -0.01852   0.05456   0.06700   0.07623   0.09484
 Alpha virt. eigenvalues --    0.12400   0.13752   0.15444   0.16822   0.19256
 Alpha virt. eigenvalues --    0.19885   0.23261   0.24059   0.26303   0.28412

 Mulliken charges:
               1
     1  C    0.162621
     2  O   -0.353498
     3  C   -0.046585
     4  C   -0.200290
     5  H    0.092726
     6  H    0.092451
     7  H    0.173768
     8  H    0.078807
 Sum of Mulliken charges =   0.00000

 Dipole moment (field-independent basis, Debye):
    X=             -3.4060    Y=             -0.8194    Z=              0.1721  Tot=              3.5074
 Quadrupole moment (field-independent basis, Debye-Ang):
   XX=            -28.1480   YY=            -21.3923   ZZ=            -25.2227
   XY=             -0.6419   XZ=             -0.9350   YZ=              0.1589

 Normal termination of Gaussian 09 at Wed Aug 26 14:30:41 2020.
