 Gaussian 09, Revision D.01,
 Gaussian 09:  ES64L-G09RevD.01 24-Apr-2013

 --------------------
 #p B2PLYPD3/Def2QZVP
 --------------------

 --------
 acrolein
 --------
 Symbolic Z-matrix:
 Charge =  0 Multiplicity = 1

                         Standard orientation:
 ---------------------------------------------------------------------
 Center     Atomic      Atomic             Coordinates (Angstroms)
 Number     Number       Type             X           Y           Z
 ---------------------------------------------------------------------
      1          6           0        0.672163    0.344766   -0.022041
      2          8           0        1.782966   -0.112839    0.020150
      3          6           0       -0.557545   -0.451122   -0.022662
      4          6           0       -1.750914    0.141227    0.002551
      5          1           0       -0.438573   -1.537118   -0.009300
      6          1           0       -1.861989    1.255594    0.015727
      7          1           0       -2.660445   -0.426761    0.083845
      8          1           0        0.515053    1.401776    0.001443
 ---------------------------------------------------------------------

 SCF Done:  E(RB2PLYPD3) =  -191.615594235     A.U. after   12 cycles
 E2(B2PLYPD3) =    -0.2465694867D+00 E(B2PLYPD3) =    -0.19186216372175D+03

 The electronic state is 1-A.
 Alpha  occ. eigenvalues --  -19.72644 -10.70941 -10.65752 -10.64383  -1.19946
 Alpha  occ. eigenvalues --   -0.92935  -0.75536  -0.67174  -0.56670  -0.56291
 Alpha  occ. eigenvalues --   -0.50752  -0.47011  -0.46559  -0.34694  -0.33817
 Alpha virt. eigenvalues --   -0.01624   0.05707   0.07204   0.08337   0.09690
 Alpha virt. eigenvalues --    0.12560   0.14113   0.15365   0.17575   0.19541
 Alpha virt. eigenvalues --    0.19939   0.21657   0.25484   0.26650   0.28638

 Mulliken charges:
               1
     1  C    0.158215
     2  O   -0.347195
     3  C   -0.041059
     4  C   -0.130801
     5  H    0.103610
     6  H    0.082035
     7  H    0.102439
     8  H    0.072757
 Sum of Mulliken charges =   0.00000

 Dipole moment (field-independent basis, Debye):
    X=             -3.4617    Y=              0.7507    Z=              0.0085  Tot=              3.5421
 Quadrupole moment (field-independent basis, Debye-Ang):
   XX=            -27.4371   YY=            -21.6987   ZZ=            -25.1812
   XY=              0.8578   XZ=             -0.3287   YZ=             -0.0229

 Normal termination of Gaussian 09 at Wed Aug 26 14:05:05 2020.
