 Gaussian 09, Revision D.01,
 Gaussian 09:  ES64L-G09RevD.01 24-Apr-2013

 --------------------
 #p B2PLYPD3/Def2QZVP
 --------------------

 --------
 acrolein
 --------
 Symbolic Z-matrix:
 Charge =  0 Multiplicity = 1

                         Standard orientation:
 ---------------------------------------------------------------------
 Center     Atomic      Atomic             Coordinates (Angstroms)
 Number     Number       Type             X           Y           Z
 ---------------------------------------------------------------------
      1          6           0        0.666030    0.361115    0.016247
      2          8           0        1.780773   -0.138848   -0.014146
      3          6           0       -0.558957   -0.434795    0.013438
      4          6           0       -1.733829    0.122637   -0.019551
      5          1           0       -0.476201   -1.434938   -0.005807
      6          1           0       -1.784754    1.167531   -0.063655
      7          1           0       -2.680854   -0.401123    0.061735
      8          1           0        0.456162    1.485573    0.060098
 ---------------------------------------------------------------------

 SCF Done:  E(RB2PLYPD3) =  -191.608061873     A.U. after   12 cycles
 E2(B2PLYPD3) =    -0.2469515476D+00 E(B2PLYPD3) =    -0.19185501342063D+03

 The electronic state is 1-A.
 Alpha  occ. eigenvalues --  -19.73117 -10.72197 -10.64489 -10.62900  -1.19036
 Alpha  occ. eigenvalues --   -0.94228  -0.75607  -0.67962  -0.56976  -0.56492
 Alpha  occ. eigenvalues --   -0.50863  -0.47246  -0.46631  -0.35157  -0.34008
 Alpha virt. eigenvalues --   -0.01661   0.05788   0.07346   0.08193   0.09844
 Alpha virt. eigenvalues --    0.12677   0.13855   0.15361   0.17799   0.19666
 Alpha virt. eigenvalues --    0.20153   0.21553   0.25767   0.26484   0.28959

 Mulliken charges:
               1
     1  C    0.151195
     2  O   -0.351601
     3  C   -0.027627
     4  C   -0.123368
     5  H    0.109493
     6  H    0.075761
     7  H    0.098206
     8  H    0.067940
 Sum of Mulliken charges =   0.00000

 Dipole moment (field-independent basis, Debye):
    X=             -3.5078    Y=              0.7699    Z=              0.0651  Tot=              3.5919
 Quadrupole moment (field-independent basis, Debye-Ang):
   XX=            -27.3137   YY=            -21.9322   ZZ=            -24.9945
   XY=              1.0312   XZ=              0.0071   YZ=             -0.0609

 Normal termination of Gaussian 09 at Wed Aug 26 09:26:13 2020.
