 Gaussian 09, Revision D.01,
 Gaussian 09:  ES64L-G09RevD.01 24-Apr-2013

 --------------------
 #p B2PLYPD3/Def2QZVP
 --------------------

 --------
 acrolein
 --------
 Symbolic Z-matrix:
 Charge =  0 Multiplicity = 1

                         Standard orientation:
 ---------------------------------------------------------------------
 Center     Atomic      Atomic             Coordinates (Angstroms)
 Number     Number       Type             X           Y           Z
 ---------------------------------------------------------------------
      1          6           0        0.649614   -0.321394   -0.058871
      2          8           0        1.809606    0.092941    0.073146
      3          6           0       -0.589585    0.486491   -0.071788
      4          6           0       -1.729238   -0.180315    0.024987
      5          1           0       -0.478245    1.610503   -0.126744
      6          1           0       -1.760699   -1.158821    0.039688
      7          1           0       -2.630926    0.349469    0.286390
      8          1           0        0.408274   -1.453368   -0.150475
 ---------------------------------------------------------------------

 SCF Done:  E(RB2PLYPD3) =  -191.598761011     A.U. after   13 cycles
 E2(B2PLYPD3) =    -0.2491318047D+00 E(B2PLYPD3) =    -0.19184789281570D+03

 The electronic state is 1-A.
 Alpha  occ. eigenvalues --  -19.73095 -10.72633 -10.65342 -10.64500  -1.17841
 Alpha  occ. eigenvalues --   -0.94060  -0.75844  -0.66847  -0.56561  -0.56332
 Alpha  occ. eigenvalues --   -0.50000  -0.47907  -0.45757  -0.35002  -0.33665
 Alpha virt. eigenvalues --   -0.02031   0.05832   0.06650   0.07637   0.09701
 Alpha virt. eigenvalues --    0.12867   0.13959   0.15135   0.16764   0.19384
 Alpha virt. eigenvalues --    0.20583   0.22126   0.24647   0.26618   0.28209

 Mulliken charges:
               1
     1  C    0.151995
     2  O   -0.359404
     3  C   -0.016417
     4  C   -0.122812
     5  H    0.101868
     6  H    0.091349
     7  H    0.096289
     8  H    0.057132
 Sum of Mulliken charges =   0.00000

 Dipole moment (field-independent basis, Debye):
    X=             -3.6882    Y=             -0.6088    Z=             -0.1136  Tot=              3.7399
 Quadrupole moment (field-independent basis, Debye-Ang):
   XX=            -27.9433   YY=            -21.7354   ZZ=            -25.1403
   XY=             -0.5136   XZ=             -1.0313   YZ=             -0.0211

 Normal termination of Gaussian 09 at Wed Aug 26 14:05:42 2020.
