 Gaussian 09, Revision D.01,
 Gaussian 09:  ES64L-G09RevD.01 24-Apr-2013

 --------------------
 #p B2PLYPD3/Def2QZVP
 --------------------

 --------
 acrolein
 --------
 Symbolic Z-matrix:
 Charge =  0 Multiplicity = 1

                         Standard orientation:
 ---------------------------------------------------------------------
 Center     Atomic      Atomic             Coordinates (Angstroms)
 Number     Number       Type             X           Y           Z
 ---------------------------------------------------------------------
      1          6           0       -0.689872    0.359996    0.037139
      2          8           0       -1.778076   -0.135261   -0.034344
      3          6           0        0.543722   -0.432584    0.022710
      4          6           0        1.775850    0.144473   -0.028132
      5          1           0        0.434269   -1.539020    0.027673
      6          1           0        1.846274    1.197213   -0.109845
      7          1           0        2.737742   -0.464243    0.053457
      8          1           0       -0.571877    1.456832    0.113165
 ---------------------------------------------------------------------

 SCF Done:  E(RB2PLYPD3) =  -191.611563383     A.U. after   12 cycles
 E2(B2PLYPD3) =    -0.2474426018D+00 E(B2PLYPD3) =    -0.19185900598510D+03

 The electronic state is 1-A.
 Alpha  occ. eigenvalues --  -19.72759 -10.71452 -10.66150 -10.64922  -1.20383
 Alpha  occ. eigenvalues --   -0.92047  -0.75129  -0.66731  -0.56830  -0.55709
 Alpha  occ. eigenvalues --   -0.50296  -0.47145  -0.46643  -0.34180  -0.33792
 Alpha virt. eigenvalues --   -0.01964   0.05669   0.07039   0.08269   0.09754
 Alpha virt. eigenvalues --    0.12305   0.13941   0.15502   0.17433   0.19474
 Alpha virt. eigenvalues --    0.20053   0.21334   0.25358   0.26298   0.28936

 Mulliken charges:
               1
     1  C    0.153532
     2  O   -0.339543
     3  C   -0.044357
     4  C   -0.138056
     5  H    0.104334
     6  H    0.088324
     7  H    0.103276
     8  H    0.072491
 Sum of Mulliken charges =   0.00000

 Dipole moment (field-independent basis, Debye):
    X=              3.3568    Y=              0.8243    Z=              0.1296  Tot=              3.4590
 Quadrupole moment (field-independent basis, Debye-Ang):
   XX=            -27.2635   YY=            -21.7675   ZZ=            -25.3560
   XY=             -1.1133   XZ=             -0.1976   YZ=             -0.1539

 Normal termination of Gaussian 09 at Wed Aug 26 09:11:08 2020.
