 Gaussian 09, Revision D.01,
 Gaussian 09:  ES64L-G09RevD.01 24-Apr-2013

 --------------------
 #p B2PLYPD3/Def2QZVP
 --------------------

 --------
 acrolein
 --------
 Symbolic Z-matrix:
 Charge =  0 Multiplicity = 1

                         Standard orientation:
 ---------------------------------------------------------------------
 Center     Atomic      Atomic             Coordinates (Angstroms)
 Number     Number       Type             X           Y           Z
 ---------------------------------------------------------------------
      1          6           0        0.626141    0.334362    0.093130
      2          8           0        1.823935   -0.087618   -0.062784
      3          6           0       -0.587982   -0.490277    0.056998
      4          6           0       -1.731541    0.142155   -0.054316
      5          1           0       -0.454295   -1.674317    0.030372
      6          1           0       -1.876163    1.322718    0.018970
      7          1           0       -2.511417   -0.350565   -0.103517
      8          1           0        0.410694    1.485671   -0.018425
 ---------------------------------------------------------------------

 SCF Done:  E(RB2PLYPD3) =  -191.563500647     A.U. after   14 cycles
 E2(B2PLYPD3) =    -0.2521061980D+00 E(B2PLYPD3) =    -0.19181560684495D+03

 The electronic state is 1-A.
 Alpha  occ. eigenvalues --  -19.73053 -10.73128 -10.66035 -10.64995  -1.15531
 Alpha  occ. eigenvalues --   -0.94377  -0.76969  -0.64971  -0.57834  -0.54548
 Alpha  occ. eigenvalues --   -0.49285  -0.46124  -0.44967  -0.35165  -0.33791
 Alpha virt. eigenvalues --   -0.02585   0.05160   0.06400   0.07062   0.09469
 Alpha virt. eigenvalues --    0.12323   0.14122   0.15028   0.16412   0.19657
 Alpha virt. eigenvalues --    0.19998   0.22425   0.24411   0.26690   0.28471

 Mulliken charges:
               1
     1  C    0.168292
     2  O   -0.377509
     3  C   -0.031681
     4  C   -0.120640
     5  H    0.099138
     6  H    0.084087
     7  H    0.114503
     8  H    0.063810
 Sum of Mulliken charges =   0.00000

 Dipole moment (field-independent basis, Debye):
    X=             -3.9485    Y=              0.5966    Z=              0.1812  Tot=              3.9974
 Quadrupole moment (field-independent basis, Debye-Ang):
   XX=            -28.1504   YY=            -21.3878   ZZ=            -25.3897
   XY=              0.4756   XZ=              0.4772   YZ=              0.0404

 Normal termination of Gaussian 09 at Wed Aug 26 10:46:13 2020.
