 Gaussian 09, Revision D.01,
 Gaussian 09:  ES64L-G09RevD.01 24-Apr-2013

 --------------------
 #p B2PLYPD3/Def2QZVP
 --------------------

 --------
 acrolein
 --------
 Symbolic Z-matrix:
 Charge =  0 Multiplicity = 1

                         Standard orientation:
 ---------------------------------------------------------------------
 Center     Atomic      Atomic             Coordinates (Angstroms)
 Number     Number       Type             X           Y           Z
 ---------------------------------------------------------------------
      1          6           0        0.671500    0.371063    0.040584
      2          8           0        1.781311   -0.134851   -0.040258
      3          6           0       -0.545837   -0.445520    0.007449
      4          6           0       -1.747366    0.129162   -0.009181
      5          1           0       -0.478980   -1.544464    0.120511
      6          1           0       -1.788931    1.202728   -0.111754
      7          1           0       -2.706407   -0.391596   -0.050535
      8          1           0        0.454043    1.483915    0.130726
 ---------------------------------------------------------------------

 SCF Done:  E(RB2PLYPD3) =  -191.611799775     A.U. after   13 cycles
 E2(B2PLYPD3) =    -0.2484200843D+00 E(B2PLYPD3) =    -0.19186021985911D+03

 The electronic state is 1-A.
 Alpha  occ. eigenvalues --  -19.73107 -10.72342 -10.65368 -10.64510  -1.19045
 Alpha  occ. eigenvalues --   -0.93018  -0.75283  -0.66564  -0.56459  -0.56052
 Alpha  occ. eigenvalues --   -0.50567  -0.46755  -0.45941  -0.34616  -0.34112
 Alpha virt. eigenvalues --   -0.01890   0.05728   0.06880   0.07833   0.09732
 Alpha virt. eigenvalues --    0.12552   0.14034   0.15111   0.17416   0.19504
 Alpha virt. eigenvalues --    0.20192   0.21475   0.25058   0.26586   0.28944

 Mulliken charges:
               1
     1  C    0.154221
     2  O   -0.347504
     3  C   -0.034374
     4  C   -0.125155
     5  H    0.103008
     6  H    0.072402
     7  H    0.101504
     8  H    0.075899
 Sum of Mulliken charges =   0.00000

 Dipole moment (field-independent basis, Debye):
    X=             -3.4842    Y=              0.8120    Z=              0.1530  Tot=              3.5808
 Quadrupole moment (field-independent basis, Debye-Ang):
   XX=            -27.4053   YY=            -21.8208   ZZ=            -25.2707
   XY=              1.0558   XZ=              0.4094   YZ=             -0.2112

 Normal termination of Gaussian 09 at Wed Aug 26 10:24:55 2020.
