 Gaussian 09, Revision D.01,
 Gaussian 09:  ES64L-G09RevD.01 24-Apr-2013

 --------------------
 #p B2PLYPD3/Def2QZVP
 --------------------

 --------
 acrolein
 --------
 Symbolic Z-matrix:
 Charge =  0 Multiplicity = 1

                         Standard orientation:
 ---------------------------------------------------------------------
 Center     Atomic      Atomic             Coordinates (Angstroms)
 Number     Number       Type             X           Y           Z
 ---------------------------------------------------------------------
      1          6           0        0.665864    0.349118    0.018334
      2          8           0        1.796401   -0.110578   -0.020624
      3          6           0       -0.560991   -0.465848    0.018401
      4          6           0       -1.751323    0.146511   -0.018453
      5          1           0       -0.457202   -1.557497    0.055025
      6          1           0       -1.878883    1.252281    0.023792
      7          1           0       -2.657536   -0.411555   -0.054716
      8          1           0        0.501111    1.422710    0.031201
 ---------------------------------------------------------------------

 SCF Done:  E(RB2PLYPD3) =  -191.614737832     A.U. after   12 cycles
 E2(B2PLYPD3) =    -0.2477738580D+00 E(B2PLYPD3) =    -0.19186251168963D+03

 The electronic state is 1-A.
 Alpha  occ. eigenvalues --  -19.72707 -10.71499 -10.65767 -10.64814  -1.18792
 Alpha  occ. eigenvalues --   -0.92861  -0.75522  -0.67037  -0.56480  -0.56175
 Alpha  occ. eigenvalues --   -0.50373  -0.46940  -0.46256  -0.34571  -0.33852
 Alpha virt. eigenvalues --   -0.01870   0.05665   0.07080   0.07974   0.09629
 Alpha virt. eigenvalues --    0.12546   0.14139   0.15311   0.17418   0.19676
 Alpha virt. eigenvalues --    0.20014   0.21608   0.25272   0.26521   0.28588

 Mulliken charges:
               1
     1  C    0.156257
     2  O   -0.355047
     3  C   -0.041736
     4  C   -0.128860
     5  H    0.106182
     6  H    0.084273
     7  H    0.100685
     8  H    0.078245
 Sum of Mulliken charges =   0.00000

 Dipole moment (field-independent basis, Debye):
    X=             -3.5854    Y=              0.7602    Z=              0.1014  Tot=              3.6665
 Quadrupole moment (field-independent basis, Debye-Ang):
   XX=            -27.6030   YY=            -21.5792   ZZ=            -25.2760
   XY=              0.7923   XZ=              0.1659   YZ=              0.0008

 Normal termination of Gaussian 09 at Wed Aug 26 18:11:53 2020.
