 Gaussian 09, Revision D.01,
 Gaussian 09:  ES64L-G09RevD.01 24-Apr-2013

 --------------------
 #p B2PLYPD3/Def2QZVP
 --------------------

 --------
 acrolein
 --------
 Symbolic Z-matrix:
 Charge =  0 Multiplicity = 1

                         Standard orientation:
 ---------------------------------------------------------------------
 Center     Atomic      Atomic             Coordinates (Angstroms)
 Number     Number       Type             X           Y           Z
 ---------------------------------------------------------------------
      1          6           0       -0.679931    0.333850    0.033689
      2          8           0       -1.796814   -0.098277   -0.025314
      3          6           0        0.561138   -0.476626    0.032194
      4          6           0        1.754395    0.144234   -0.030390
      5          1           0        0.443420   -1.518281    0.023819
      6          1           0        1.932515    1.297751    0.070569
      7          1           0        2.658620   -0.423409   -0.067530
      8          1           0       -0.473658    1.421407   -0.037307
 ---------------------------------------------------------------------

 SCF Done:  E(RB2PLYPD3) =  -191.609206912     A.U. after   13 cycles
 E2(B2PLYPD3) =    -0.2472967637D+00 E(B2PLYPD3) =    -0.19185650367555D+03

 The electronic state is 1-A.
 Alpha  occ. eigenvalues --  -19.72856 -10.71446 -10.66436 -10.64481  -1.20192
 Alpha  occ. eigenvalues --   -0.92523  -0.75093  -0.66948  -0.56644  -0.55656
 Alpha  occ. eigenvalues --   -0.50883  -0.47095  -0.46647  -0.34569  -0.33630
 Alpha virt. eigenvalues --   -0.01703   0.05552   0.07324   0.08011   0.09580
 Alpha virt. eigenvalues --    0.12450   0.13997   0.15355   0.17776   0.19318
 Alpha virt. eigenvalues --    0.20003   0.21483   0.24834   0.26825   0.28221

 Mulliken charges:
               1
     1  C    0.163781
     2  O   -0.341697
     3  C   -0.052005
     4  C   -0.126085
     5  H    0.109423
     6  H    0.083803
     7  H    0.098762
     8  H    0.064018
 Sum of Mulliken charges =   0.00000

 Dipole moment (field-independent basis, Debye):
    X=              3.4776    Y=              0.6354    Z=              0.1037  Tot=              3.5367
 Quadrupole moment (field-independent basis, Debye-Ang):
   XX=            -27.3933   YY=            -21.7624   ZZ=            -25.2845
   XY=             -0.5828   XZ=             -0.1516   YZ=              0.0960

 Normal termination of Gaussian 09 at Wed Aug 26 10:04:43 2020.
