 Gaussian 09, Revision D.01,
 Gaussian 09:  ES64L-G09RevD.01 24-Apr-2013

 --------------------
 #p B2PLYPD3/Def2QZVP
 --------------------

 --------
 acrolein
 --------
 Symbolic Z-matrix:
 Charge =  0 Multiplicity = 1

                         Standard orientation:
 ---------------------------------------------------------------------
 Center     Atomic      Atomic             Coordinates (Angstroms)
 Number     Number       Type             X           Y           Z
 ---------------------------------------------------------------------
      1          6           0        0.673469    0.365330    0.017218
      2          8           0        1.786519   -0.142275   -0.021980
      3          6           0       -0.568714   -0.425289    0.054075
      4          6           0       -1.755167    0.150505   -0.033356
      5          1           0       -0.440194   -1.518657   -0.034153
      6          1           0       -1.752928    1.109458    0.036884
      7          1           0       -2.709981   -0.450361   -0.048217
      8          1           0        0.513426    1.454476   -0.006296
 ---------------------------------------------------------------------

 SCF Done:  E(RB2PLYPD3) =  -191.600304366     A.U. after   13 cycles
 E2(B2PLYPD3) =    -0.2475456873D+00 E(B2PLYPD3) =    -0.19184785005354D+03

 The electronic state is 1-A.
 Alpha  occ. eigenvalues --  -19.73015 -10.71908 -10.64423 -10.64257  -1.18855
 Alpha  occ. eigenvalues --   -0.93740  -0.75810  -0.67548  -0.57453  -0.55943
 Alpha  occ. eigenvalues --   -0.50389  -0.46961  -0.46451  -0.34865  -0.34031
 Alpha virt. eigenvalues --   -0.01853   0.05804   0.07035   0.07962   0.09929
 Alpha virt. eigenvalues --    0.12589   0.13731   0.15164   0.17342   0.19786
 Alpha virt. eigenvalues --    0.20637   0.21707   0.24949   0.26593   0.28982

 Mulliken charges:
               1
     1  C    0.147457
     2  O   -0.353454
     3  C   -0.026133
     4  C   -0.138856
     5  H    0.101406
     6  H    0.089884
     7  H    0.104842
     8  H    0.074855
 Sum of Mulliken charges =   0.00000

 Dipole moment (field-independent basis, Debye):
    X=             -3.4683    Y=              0.8664    Z=              0.0267  Tot=              3.5750
 Quadrupole moment (field-independent basis, Debye-Ang):
   XX=            -27.4961   YY=            -21.7896   ZZ=            -25.1315
   XY=              1.1935   XZ=              0.1873   YZ=              0.1521

 Normal termination of Gaussian 09 at Wed Aug 26 09:53:41 2020.
