 Gaussian 09, Revision D.01,
 Gaussian 09:  ES64L-G09RevD.01 24-Apr-2013

 --------------------
 #p B2PLYPD3/Def2QZVP
 --------------------

 --------
 acrolein
 --------
 Symbolic Z-matrix:
 Charge =  0 Multiplicity = 1

                         Standard orientation:
 ---------------------------------------------------------------------
 Center     Atomic      Atomic             Coordinates (Angstroms)
 Number     Number       Type             X           Y           Z
 ---------------------------------------------------------------------
      1          6           0        0.673651    0.342747   -0.042130
      2          8           0        1.779885   -0.121174    0.030395
      3          6           0       -0.550569   -0.459554    0.000235
      4          6           0       -1.741502    0.141670   -0.002079
      5          1           0       -0.503324   -1.483812   -0.046442
      6          1           0       -1.862591    1.226911    0.132970
      7          1           0       -2.665379   -0.410074    0.008225
      8          1           0        0.502733    1.487195   -0.074073
 ---------------------------------------------------------------------

 SCF Done:  E(RB2PLYPD3) =  -191.611997570     A.U. after   13 cycles
 E2(B2PLYPD3) =    -0.2469432074D+00 E(B2PLYPD3) =    -0.19185894077731D+03

 The electronic state is 1-A.
 Alpha  occ. eigenvalues --  -19.72859 -10.71926 -10.65476 -10.63847  -1.20122
 Alpha  occ. eigenvalues --   -0.93152  -0.75162  -0.67090  -0.56640  -0.56420
 Alpha  occ. eigenvalues --   -0.50543  -0.47209  -0.47125  -0.34679  -0.33740
 Alpha virt. eigenvalues --   -0.01674   0.05765   0.07240   0.08113   0.09695
 Alpha virt. eigenvalues --    0.12594   0.14035   0.15272   0.17759   0.19727
 Alpha virt. eigenvalues --    0.20063   0.21387   0.25115   0.26403   0.28574

 Mulliken charges:
               1
     1  C    0.157129
     2  O   -0.339009
     3  C   -0.042912
     4  C   -0.121815
     5  H    0.109243
     6  H    0.081346
     7  H    0.094657
     8  H    0.061362
 Sum of Mulliken charges =   0.00000

 Dipole moment (field-independent basis, Debye):
    X=             -3.4569    Y=              0.6682    Z=             -0.0627  Tot=              3.5215
 Quadrupole moment (field-independent basis, Debye-Ang):
   XX=            -27.2749   YY=            -21.8413   ZZ=            -25.1634
   XY=              0.9072   XZ=             -0.3421   YZ=              0.2081

 Normal termination of Gaussian 09 at Wed Aug 26 20:43:00 2020.
