 Gaussian 09, Revision D.01,
 Gaussian 09:  ES64L-G09RevD.01 24-Apr-2013

 --------------------
 #p B2PLYPD3/Def2QZVP
 --------------------

 --------
 acrolein
 --------
 Symbolic Z-matrix:
 Charge =  0 Multiplicity = 1

                         Standard orientation:
 ---------------------------------------------------------------------
 Center     Atomic      Atomic             Coordinates (Angstroms)
 Number     Number       Type             X           Y           Z
 ---------------------------------------------------------------------
      1          6           0        0.670557    0.326370    0.020548
      2          8           0        1.809437   -0.102051   -0.038873
      3          6           0       -0.587920   -0.494302    0.043602
      4          6           0       -1.740956    0.182364   -0.010720
      5          1           0       -0.441395   -1.545616    0.005993
      6          1           0       -1.825864    1.216532   -0.185560
      7          1           0       -2.772017   -0.401879   -0.029944
      8          1           0        0.513690    1.460781    0.199920
 ---------------------------------------------------------------------

 SCF Done:  E(RB2PLYPD3) =  -191.602903936     A.U. after   12 cycles
 E2(B2PLYPD3) =    -0.2487277014D+00 E(B2PLYPD3) =    -0.19185163163785D+03

 The electronic state is 1-A.
 Alpha  occ. eigenvalues --  -19.73010 -10.72350 -10.66464 -10.65086  -1.19084
 Alpha  occ. eigenvalues --   -0.92789  -0.74325  -0.66866  -0.56372  -0.55487
 Alpha  occ. eigenvalues --   -0.50620  -0.46783  -0.46118  -0.34810  -0.33473
 Alpha virt. eigenvalues --   -0.01779   0.05541   0.06953   0.07443   0.09623
 Alpha virt. eigenvalues --    0.12297   0.13872   0.15292   0.17293   0.19319
 Alpha virt. eigenvalues --    0.20345   0.20982   0.24512   0.26410   0.28360

 Mulliken charges:
               1
     1  C    0.159155
     2  O   -0.347939
     3  C   -0.048682
     4  C   -0.118472
     5  H    0.114084
     6  H    0.097661
     7  H    0.085418
     8  H    0.058776
 Sum of Mulliken charges =   0.00000

 Dipole moment (field-independent basis, Debye):
    X=             -3.4910    Y=              0.6399    Z=             -0.0111  Tot=              3.5492
 Quadrupole moment (field-independent basis, Debye-Ang):
   XX=            -27.8032   YY=            -21.7583   ZZ=            -25.3568
   XY=              0.5711   XZ=              0.5861   YZ=             -0.1440

 Normal termination of Gaussian 09 at Wed Aug 26 12:13:24 2020.
