 Gaussian 09, Revision D.01,
 Gaussian 09:  ES64L-G09RevD.01 24-Apr-2013

 --------------------
 #p B2PLYPD3/Def2QZVP
 --------------------

 --------
 acrolein
 --------
 Symbolic Z-matrix:
 Charge =  0 Multiplicity = 1

                         Standard orientation:
 ---------------------------------------------------------------------
 Center     Atomic      Atomic             Coordinates (Angstroms)
 Number     Number       Type             X           Y           Z
 ---------------------------------------------------------------------
      1          6           0       -0.678504    0.349353    0.020746
      2          8           0       -1.796913   -0.100864   -0.033882
      3          6           0        0.560154   -0.478676    0.035588
      4          6           0        1.764321    0.136506   -0.035550
      5          1           0        0.425727   -1.592896    0.056094
      6          1           0        1.943273    1.326879   -0.036631
      7          1           0        2.650240   -0.387716   -0.010297
      8          1           0       -0.519760    1.417543    0.137185
 ---------------------------------------------------------------------

 SCF Done:  E(RB2PLYPD3) =  -191.603210960     A.U. after   12 cycles
 E2(B2PLYPD3) =    -0.2480116251D+00 E(B2PLYPD3) =    -0.19185122258489D+03

 The electronic state is 1-A.
 Alpha  occ. eigenvalues --  -19.72765 -10.71453 -10.66410 -10.65455  -1.19695
 Alpha  occ. eigenvalues --   -0.92008  -0.75297  -0.66471  -0.56759  -0.55245
 Alpha  occ. eigenvalues --   -0.50815  -0.46666  -0.45866  -0.34393  -0.33770
 Alpha virt. eigenvalues --   -0.01768   0.05453   0.06990   0.07978   0.09465
 Alpha virt. eigenvalues --    0.12232   0.14207   0.15426   0.17302   0.19052
 Alpha virt. eigenvalues --    0.20014   0.21704   0.25043   0.26560   0.28449

 Mulliken charges:
               1
     1  C    0.165702
     2  O   -0.345388
     3  C   -0.058440
     4  C   -0.124790
     5  H    0.105623
     6  H    0.075273
     7  H    0.104527
     8  H    0.077493
 Sum of Mulliken charges =   0.00000

 Dipole moment (field-independent basis, Debye):
    X=              3.4734    Y=              0.7092    Z=              0.1584  Tot=              3.5486
 Quadrupole moment (field-independent basis, Debye-Ang):
   XX=            -27.4553   YY=            -21.5871   ZZ=            -25.4182
   XY=             -0.6605   XZ=             -0.2376   YZ=             -0.0457

 Normal termination of Gaussian 09 at Wed Aug 26 09:05:28 2020.
