 Gaussian 09, Revision D.01,
 Gaussian 09:  ES64L-G09RevD.01 24-Apr-2013

 --------------------
 #p B2PLYPD3/Def2QZVP
 --------------------

 --------
 acrolein
 --------
 Symbolic Z-matrix:
 Charge =  0 Multiplicity = 1

                         Standard orientation:
 ---------------------------------------------------------------------
 Center     Atomic      Atomic             Coordinates (Angstroms)
 Number     Number       Type             X           Y           Z
 ---------------------------------------------------------------------
      1          6           0       -0.693373    0.363778    0.084992
      2          8           0       -1.788713   -0.107346   -0.044731
      3          6           0        0.571893   -0.485590   -0.010417
      4          6           0        1.786450    0.145860   -0.037229
      5          1           0        0.375248   -1.598148    0.055508
      6          1           0        1.972051    1.352207   -0.098792
      7          1           0        2.588098   -0.435645    0.134621
      8          1           0       -0.615521    1.396059    0.042442
 ---------------------------------------------------------------------

 SCF Done:  E(RB2PLYPD3) =  -191.585667554     A.U. after   13 cycles
 E2(B2PLYPD3) =    -0.2480690140D+00 E(B2PLYPD3) =    -0.19183373656807D+03

 The electronic state is 1-A.
 Alpha  occ. eigenvalues --  -19.72645 -10.70911 -10.66204 -10.65811  -1.20177
 Alpha  occ. eigenvalues --   -0.91121  -0.74949  -0.67121  -0.56234  -0.55292
 Alpha  occ. eigenvalues --   -0.50620  -0.46704  -0.46332  -0.34192  -0.33128
 Alpha virt. eigenvalues --   -0.01705   0.05423   0.07189   0.07413   0.09434
 Alpha virt. eigenvalues --    0.12096   0.14097   0.15452   0.17472   0.18764
 Alpha virt. eigenvalues --    0.19878   0.22067   0.24776   0.26241   0.28754

 Mulliken charges:
               1
     1  C    0.173303
     2  O   -0.340821
     3  C   -0.078757
     4  C   -0.134441
     5  H    0.107155
     6  H    0.085078
     7  H    0.106229
     8  H    0.082253
 Sum of Mulliken charges =   0.00000

 Dipole moment (field-independent basis, Debye):
    X=              3.2267    Y=              0.8168    Z=              0.3058  Tot=              3.3425
 Quadrupole moment (field-independent basis, Debye-Ang):
   XX=            -27.7852   YY=            -21.2611   ZZ=            -25.4426
   XY=             -0.7383   XZ=             -0.0012   YZ=             -0.2951

 Normal termination of Gaussian 09 at Wed Aug 26 13:00:34 2020.
