 Gaussian 09, Revision D.01,
 Gaussian 09:  ES64L-G09RevD.01 24-Apr-2013

 --------------------
 #p B2PLYPD3/Def2QZVP
 --------------------

 --------
 acrolein
 --------
 Symbolic Z-matrix:
 Charge =  0 Multiplicity = 1

                         Standard orientation:
 ---------------------------------------------------------------------
 Center     Atomic      Atomic             Coordinates (Angstroms)
 Number     Number       Type             X           Y           Z
 ---------------------------------------------------------------------
      1          6           0        0.688212    0.347338   -0.073057
      2          8           0        1.753467   -0.136612    0.062868
      3          6           0       -0.517854   -0.422814   -0.079305
      4          6           0       -1.771472    0.126395    0.042956
      5          1           0       -0.438162   -1.446113   -0.017354
      6          1           0       -1.789358    1.184755   -0.008696
      7          1           0       -2.690013   -0.463659    0.151381
      8          1           0        0.496481    1.512400    0.028161
 ---------------------------------------------------------------------

 SCF Done:  E(RB2PLYPD3) =  -191.603326776     A.U. after   13 cycles
 E2(B2PLYPD3) =    -0.2471912889D+00 E(B2PLYPD3) =    -0.19185051806463D+03

 The electronic state is 1-A.
 Alpha  occ. eigenvalues --  -19.72951 -10.71643 -10.65985 -10.63787  -1.21830
 Alpha  occ. eigenvalues --   -0.92610  -0.75741  -0.66714  -0.56818  -0.56368
 Alpha  occ. eigenvalues --   -0.50925  -0.48231  -0.47153  -0.34182  -0.33554
 Alpha virt. eigenvalues --   -0.02149   0.05840   0.07180   0.08470   0.09956
 Alpha virt. eigenvalues --    0.12463   0.13717   0.15387   0.17917   0.19634
 Alpha virt. eigenvalues --    0.20185   0.21328   0.24744   0.26585   0.29044

 Mulliken charges:
               1
     1  C    0.158265
     2  O   -0.325021
     3  C   -0.031234
     4  C   -0.140939
     5  H    0.106912
     6  H    0.086337
     7  H    0.109233
     8  H    0.036448
 Sum of Mulliken charges =   0.00000

 Dipole moment (field-independent basis, Debye):
    X=             -3.3297    Y=              0.6076    Z=             -0.0841  Tot=              3.3857
 Quadrupole moment (field-independent basis, Debye-Ang):
   XX=            -26.7601   YY=            -22.2031   ZZ=            -25.2067
   XY=              1.1423   XZ=             -0.6878   YZ=             -0.1007

 Normal termination of Gaussian 09 at Wed Aug 26 14:47:49 2020.
