 Gaussian 09, Revision D.01,
 Gaussian 09:  ES64L-G09RevD.01 24-Apr-2013

 --------------------
 #p B2PLYPD3/Def2QZVP
 --------------------

 --------
 acrolein
 --------
 Symbolic Z-matrix:
 Charge =  0 Multiplicity = 1

                         Standard orientation:
 ---------------------------------------------------------------------
 Center     Atomic      Atomic             Coordinates (Angstroms)
 Number     Number       Type             X           Y           Z
 ---------------------------------------------------------------------
      1          6           0        0.677380    0.341909   -0.053063
      2          8           0        1.777151   -0.110997    0.042875
      3          6           0       -0.579861   -0.476675   -0.018550
      4          6           0       -1.741058    0.159775    0.012559
      5          1           0       -0.443864   -1.541207   -0.023648
      6          1           0       -1.857193    1.273680    0.157605
      7          1           0       -2.658185   -0.390597   -0.008874
      8          1           0        0.603269    1.396051   -0.113761
 ---------------------------------------------------------------------

 SCF Done:  E(RB2PLYPD3) =  -191.611683268     A.U. after   12 cycles
 E2(B2PLYPD3) =    -0.2457999313D+00 E(B2PLYPD3) =    -0.19185748319970D+03

 The electronic state is 1-A.
 Alpha  occ. eigenvalues --  -19.72454 -10.70774 -10.65396 -10.64415  -1.20424
 Alpha  occ. eigenvalues --   -0.92626  -0.74659  -0.67524  -0.56677  -0.56381
 Alpha  occ. eigenvalues --   -0.50922  -0.47087  -0.46643  -0.34760  -0.33428
 Alpha virt. eigenvalues --   -0.01032   0.05754   0.07360   0.08020   0.09673
 Alpha virt. eigenvalues --    0.12531   0.14225   0.15417   0.17577   0.19340
 Alpha virt. eigenvalues --    0.20104   0.21582   0.25188   0.26456   0.28701

 Mulliken charges:
               1
     1  C    0.156982
     2  O   -0.340788
     3  C   -0.058222
     4  C   -0.126603
     5  H    0.109843
     6  H    0.085602
     7  H    0.096459
     8  H    0.076728
 Sum of Mulliken charges =   0.00000

 Dipole moment (field-independent basis, Debye):
    X=             -3.3099    Y=              0.7555    Z=             -0.0941  Tot=              3.3963
 Quadrupole moment (field-independent basis, Debye-Ang):
   XX=            -27.5273   YY=            -21.5295   ZZ=            -25.1494
   XY=              0.8725   XZ=             -0.4444   YZ=              0.2014

 Normal termination of Gaussian 09 at Wed Aug 26 20:51:49 2020.
