 Gaussian 09, Revision D.01,
 Gaussian 09:  ES64L-G09RevD.01 24-Apr-2013

 --------------------
 #p B2PLYPD3/Def2QZVP
 --------------------

 --------
 acrolein
 --------
 Symbolic Z-matrix:
 Charge =  0 Multiplicity = 1

                         Standard orientation:
 ---------------------------------------------------------------------
 Center     Atomic      Atomic             Coordinates (Angstroms)
 Number     Number       Type             X           Y           Z
 ---------------------------------------------------------------------
      1          6           0       -0.688008    0.350135    0.015386
      2          8           0       -1.772811   -0.140491   -0.024127
      3          6           0        0.512638   -0.417678    0.082009
      4          6           0        1.781343    0.142740   -0.054265
      5          1           0        0.403111   -1.506680   -0.094910
      6          1           0        1.803924    1.171024    0.063731
      7          1           0        2.876903   -0.512949   -0.013536
      8          1           0       -0.537293    1.521353   -0.021045
 ---------------------------------------------------------------------

 SCF Done:  E(RB2PLYPD3) =  -191.580759207     A.U. after   13 cycles
 E2(B2PLYPD3) =    -0.2499313231D+00 E(B2PLYPD3) =    -0.19183069053055D+03

 The electronic state is 1-A.
 Alpha  occ. eigenvalues --  -19.72900 -10.71871 -10.67985 -10.65195  -1.20961
 Alpha  occ. eigenvalues --   -0.92101  -0.75176  -0.65907  -0.56471  -0.55162
 Alpha  occ. eigenvalues --   -0.49028  -0.47823  -0.45922  -0.34204  -0.33623
 Alpha virt. eigenvalues --   -0.02874   0.04909   0.06720   0.08240   0.09775
 Alpha virt. eigenvalues --    0.11726   0.13446   0.14976   0.17711   0.19482
 Alpha virt. eigenvalues --    0.20285   0.20572   0.23873   0.26279   0.28678

 Mulliken charges:
               1
     1  C    0.153116
     2  O   -0.331498
     3  C   -0.035759
     4  C   -0.130162
     5  H    0.106974
     6  H    0.092324
     7  H    0.100726
     8  H    0.044279
 Sum of Mulliken charges =   0.00000

 Dipole moment (field-independent basis, Debye):
    X=              3.4440    Y=              0.7132    Z=              0.0129  Tot=              3.5171
 Quadrupole moment (field-independent basis, Debye-Ang):
   XX=            -26.8222   YY=            -22.2439   ZZ=            -25.5400
   XY=             -1.1761   XZ=             -0.1072   YZ=              0.2608

 Normal termination of Gaussian 09 at Wed Aug 26 12:48:03 2020.
