 Gaussian 09, Revision D.01,
 Gaussian 09:  ES64L-G09RevD.01 24-Apr-2013

 --------------------
 #p B2PLYPD3/Def2QZVP
 --------------------

 --------
 acrolein
 --------
 Symbolic Z-matrix:
 Charge =  0 Multiplicity = 1

                         Standard orientation:
 ---------------------------------------------------------------------
 Center     Atomic      Atomic             Coordinates (Angstroms)
 Number     Number       Type             X           Y           Z
 ---------------------------------------------------------------------
      1          6           0       -0.673486    0.343718    0.025601
      2          8           0       -1.778583   -0.128373   -0.006197
      3          6           0        0.560782   -0.444667   -0.015172
      4          6           0        1.748902    0.151037   -0.015532
      5          1           0        0.417074   -1.512308    0.004152
      6          1           0        1.740623    1.155985   -0.035359
      7          1           0        2.736809   -0.430062    0.106508
      8          1           0       -0.483034    1.512844    0.004888
 ---------------------------------------------------------------------

 SCF Done:  E(RB2PLYPD3) =  -191.604664143     A.U. after   12 cycles
 E2(B2PLYPD3) =    -0.2475032660D+00 E(B2PLYPD3) =    -0.19185216740933D+03

 The electronic state is 1-A.
 Alpha  occ. eigenvalues --  -19.73156 -10.72256 -10.65321 -10.64220  -1.20283
 Alpha  occ. eigenvalues --   -0.93416  -0.75140  -0.66597  -0.56538  -0.56094
 Alpha  occ. eigenvalues --   -0.50374  -0.47382  -0.47172  -0.34857  -0.33709
 Alpha virt. eigenvalues --   -0.01745   0.05764   0.06907   0.08265   0.09909
 Alpha virt. eigenvalues --    0.12436   0.13682   0.15336   0.17205   0.19694
 Alpha virt. eigenvalues --    0.20407   0.21426   0.25501   0.26266   0.28957

 Mulliken charges:
               1
     1  C    0.156562
     2  O   -0.338911
     3  C   -0.024665
     4  C   -0.135273
     5  H    0.103055
     6  H    0.091597
     7  H    0.103639
     8  H    0.043996
 Sum of Mulliken charges =   0.00000

 Dipole moment (field-independent basis, Debye):
    X=              3.3938    Y=              0.6514    Z=              0.1123  Tot=              3.4576
 Quadrupole moment (field-independent basis, Debye-Ang):
   XX=            -27.2700   YY=            -22.0465   ZZ=            -25.2140
   XY=             -0.9475   XZ=              0.2068   YZ=             -0.1227

 Normal termination of Gaussian 09 at Wed Aug 26 09:25:05 2020.
