 Gaussian 09, Revision D.01,
 Gaussian 09:  ES64L-G09RevD.01 24-Apr-2013

 --------------------
 #p B2PLYPD3/Def2QZVP
 --------------------

 --------
 acrolein
 --------
 Symbolic Z-matrix:
 Charge =  0 Multiplicity = 1

                         Standard orientation:
 ---------------------------------------------------------------------
 Center     Atomic      Atomic             Coordinates (Angstroms)
 Number     Number       Type             X           Y           Z
 ---------------------------------------------------------------------
      1          6           0        0.662476    0.346903    0.017917
      2          8           0        1.787965   -0.125454   -0.020750
      3          6           0       -0.564607   -0.444953    0.032461
      4          6           0       -1.741752    0.147032   -0.022590
      5          1           0       -0.459882   -1.495456   -0.008615
      6          1           0       -1.802913    1.215049   -0.025082
      7          1           0       -2.707889   -0.439340   -0.010133
      8          1           0        0.530260    1.429490    0.043100
 ---------------------------------------------------------------------

 SCF Done:  E(RB2PLYPD3) =  -191.614323933     A.U. after   12 cycles
 E2(B2PLYPD3) =    -0.2472237683D+00 E(B2PLYPD3) =    -0.19186154770164D+03

 The electronic state is 1-A.
 Alpha  occ. eigenvalues --  -19.72701 -10.71434 -10.65665 -10.63920  -1.18831
 Alpha  occ. eigenvalues --   -0.93600  -0.75316  -0.67612  -0.56864  -0.56090
 Alpha  occ. eigenvalues --   -0.50332  -0.46942  -0.46473  -0.34940  -0.33874
 Alpha virt. eigenvalues --   -0.01758   0.05661   0.07155   0.08174   0.09760
 Alpha virt. eigenvalues --    0.12505   0.13865   0.15301   0.17711   0.19714
 Alpha virt. eigenvalues --    0.20014   0.21376   0.25548   0.26386   0.28993

 Mulliken charges:
               1
     1  C    0.150238
     2  O   -0.356362
     3  C   -0.033656
     4  C   -0.127158
     5  H    0.108716
     6  H    0.085792
     7  H    0.098362
     8  H    0.074068
 Sum of Mulliken charges =   0.00000

 Dipole moment (field-independent basis, Debye):
    X=             -3.5489    Y=              0.7832    Z=              0.0438  Tot=              3.6346
 Quadrupole moment (field-independent basis, Debye-Ang):
   XX=            -27.5642   YY=            -21.7147   ZZ=            -25.1594
   XY=              1.0412   XZ=              0.1730   YZ=              0.0231

 Normal termination of Gaussian 09 at Wed Aug 26 12:17:54 2020.
