 Gaussian 09, Revision D.01,
 Gaussian 09:  ES64L-G09RevD.01 24-Apr-2013

 --------------------
 #p B2PLYPD3/Def2QZVP
 --------------------

 --------
 acrolein
 --------
 Symbolic Z-matrix:
 Charge =  0 Multiplicity = 1

                         Standard orientation:
 ---------------------------------------------------------------------
 Center     Atomic      Atomic             Coordinates (Angstroms)
 Number     Number       Type             X           Y           Z
 ---------------------------------------------------------------------
      1          6           0        0.662715    0.349202    0.017070
      2          8           0        1.790561   -0.113674   -0.023222
      3          6           0       -0.559048   -0.457400    0.011218
      4          6           0       -1.749935    0.144666   -0.021316
      5          1           0       -0.426028   -1.560187    0.068535
      6          1           0       -1.830547    1.226635   -0.041682
      7          1           0       -2.702222   -0.398533    0.008850
      8          1           0        0.511919    1.422668    0.108240
 ---------------------------------------------------------------------

 SCF Done:  E(RB2PLYPD3) =  -191.615246133     A.U. after   12 cycles
 E2(B2PLYPD3) =    -0.2477067118D+00 E(B2PLYPD3) =    -0.19186295284456D+03

 The electronic state is 1-A.
 Alpha  occ. eigenvalues --  -19.72701 -10.71425 -10.65793 -10.64820  -1.18900
 Alpha  occ. eigenvalues --   -0.93017  -0.75490  -0.66985  -0.56618  -0.56105
 Alpha  occ. eigenvalues --   -0.50415  -0.46729  -0.46273  -0.34666  -0.33886
 Alpha virt. eigenvalues --   -0.01889   0.05690   0.06999   0.08093   0.09684
 Alpha virt. eigenvalues --    0.12537   0.14145   0.15296   0.17297   0.19630
 Alpha virt. eigenvalues --    0.20111   0.21474   0.25318   0.26598   0.28905

 Mulliken charges:
               1
     1  C    0.154946
     2  O   -0.355163
     3  C   -0.037040
     4  C   -0.128584
     5  H    0.105304
     6  H    0.083651
     7  H    0.101253
     8  H    0.075634
 Sum of Mulliken charges =   0.00000

 Dipole moment (field-independent basis, Debye):
    X=             -3.5641    Y=              0.7769    Z=              0.1442  Tot=              3.6506
 Quadrupole moment (field-independent basis, Debye-Ang):
   XX=            -27.5046   YY=            -21.6896   ZZ=            -25.2582
   XY=              0.8206   XZ=              0.1290   YZ=             -0.1041

 Normal termination of Gaussian 09 at Wed Aug 26 20:42:48 2020.
