 Gaussian 09, Revision D.01,
 Gaussian 09:  ES64L-G09RevD.01 24-Apr-2013

 --------------------
 #p B2PLYPD3/Def2QZVP
 --------------------

 --------
 acrolein
 --------
 Symbolic Z-matrix:
 Charge =  0 Multiplicity = 1

                         Standard orientation:
 ---------------------------------------------------------------------
 Center     Atomic      Atomic             Coordinates (Angstroms)
 Number     Number       Type             X           Y           Z
 ---------------------------------------------------------------------
      1          6           0       -0.668270    0.352197   -0.027821
      2          8           0       -1.793054   -0.129793    0.022491
      3          6           0        0.552765   -0.436017   -0.011387
      4          6           0        1.759805    0.130230    0.006601
      5          1           0        0.466411   -1.506504   -0.027051
      6          1           0        1.843365    1.204998    0.063979
      7          1           0        2.660724   -0.436201    0.020105
      8          1           0       -0.491862    1.497587   -0.041321
 ---------------------------------------------------------------------

 SCF Done:  E(RB2PLYPD3) =  -191.613834137     A.U. after   12 cycles
 E2(B2PLYPD3) =    -0.2481943861D+00 E(B2PLYPD3) =    -0.19186202852305D+03

 The electronic state is 1-A.
 Alpha  occ. eigenvalues --  -19.73015 -10.72275 -10.65404 -10.64315  -1.18804
 Alpha  occ. eigenvalues --   -0.93336  -0.75858  -0.66552  -0.56777  -0.56178
 Alpha  occ. eigenvalues --   -0.50423  -0.46942  -0.46530  -0.34704  -0.33964
 Alpha virt. eigenvalues --   -0.02175   0.05732   0.07019   0.08202   0.09765
 Alpha virt. eigenvalues --    0.12531   0.13871   0.15327   0.17401   0.19783
 Alpha virt. eigenvalues --    0.20005   0.21656   0.25485   0.26253   0.28810

 Mulliken charges:
               1
     1  C    0.157403
     2  O   -0.352047
     3  C   -0.030948
     4  C   -0.127616
     5  H    0.103883
     6  H    0.082590
     7  H    0.104711
     8  H    0.062025
 Sum of Mulliken charges =   0.00000

 Dipole moment (field-independent basis, Debye):
    X=              3.5988    Y=              0.7240    Z=             -0.0463  Tot=              3.6712
 Quadrupole moment (field-independent basis, Debye-Ang):
   XX=            -27.3763   YY=            -21.8523   ZZ=            -25.2402
   XY=             -1.0067   XZ=              0.2388   YZ=              0.0848

 Normal termination of Gaussian 09 at Wed Aug 26 18:44:51 2020.
