 Gaussian 09, Revision D.01,
 Gaussian 09:  ES64L-G09RevD.01 24-Apr-2013

 --------------------
 #p B2PLYPD3/Def2QZVP
 --------------------

 --------
 acrolein
 --------
 Symbolic Z-matrix:
 Charge =  0 Multiplicity = 1

                         Standard orientation:
 ---------------------------------------------------------------------
 Center     Atomic      Atomic             Coordinates (Angstroms)
 Number     Number       Type             X           Y           Z
 ---------------------------------------------------------------------
      1          6           0       -0.656588    0.297893    0.026131
      2          8           0       -1.818580   -0.084518   -0.053837
      3          6           0        0.576856   -0.480302    0.034980
      4          6           0        1.753629    0.175917   -0.023013
      5          1           0        0.476761   -1.531540    0.120806
      6          1           0        1.934969    1.317922   -0.147710
      7          1           0        2.704535   -0.451552   -0.057637
      8          1           0       -0.611008    1.380267    0.286649
 ---------------------------------------------------------------------

 SCF Done:  E(RB2PLYPD3) =  -191.600486781     A.U. after   13 cycles
 E2(B2PLYPD3) =    -0.2490390754D+00 E(B2PLYPD3) =    -0.19184952585679D+03

 The electronic state is 1-A.
 Alpha  occ. eigenvalues --  -19.72422 -10.71408 -10.67613 -10.65188  -1.18355
 Alpha  occ. eigenvalues --   -0.93004  -0.74986  -0.66610  -0.56263  -0.55873
 Alpha  occ. eigenvalues --   -0.50132  -0.46492  -0.45802  -0.34816  -0.33167
 Alpha virt. eigenvalues --   -0.02277   0.05351   0.06791   0.07923   0.09424
 Alpha virt. eigenvalues --    0.12179   0.14004   0.15109   0.17794   0.18639
 Alpha virt. eigenvalues --    0.20095   0.21171   0.24472   0.26501   0.28517

 Mulliken charges:
               1
     1  C    0.152039
     2  O   -0.355681
     3  C   -0.049822
     4  C   -0.116294
     5  H    0.113558
     6  H    0.098632
     7  H    0.091611
     8  H    0.065956
 Sum of Mulliken charges =   0.00000

 Dipole moment (field-independent basis, Debye):
    X=              3.7435    Y=              0.5851    Z=              0.1825  Tot=              3.7933
 Quadrupole moment (field-independent basis, Debye-Ang):
   XX=            -27.7190   YY=            -21.6693   ZZ=            -25.3693
   XY=             -0.6000   XZ=             -0.6632   YZ=             -0.2520

 Normal termination of Gaussian 09 at Wed Aug 26 12:00:32 2020.
