 Gaussian 09, Revision D.01,
 Gaussian 09:  ES64L-G09RevD.01 24-Apr-2013

 --------------------
 #p B2PLYPD3/Def2QZVP
 --------------------

 --------
 acrolein
 --------
 Symbolic Z-matrix:
 Charge =  0 Multiplicity = 1

                         Standard orientation:
 ---------------------------------------------------------------------
 Center     Atomic      Atomic             Coordinates (Angstroms)
 Number     Number       Type             X           Y           Z
 ---------------------------------------------------------------------
      1          6           0       -0.673829    0.370777   -0.043395
      2          8           0       -1.792522   -0.140569    0.043207
      3          6           0        0.562810   -0.453378   -0.057338
      4          6           0        1.756422    0.138016    0.009754
      5          1           0        0.486987   -1.496488   -0.004354
      6          1           0        1.825917    1.193882    0.045223
      7          1           0        2.691685   -0.403824    0.167278
      8          1           0       -0.536827    1.498489   -0.007927
 ---------------------------------------------------------------------

 SCF Done:  E(RB2PLYPD3) =  -191.611556377     A.U. after   13 cycles
 E2(B2PLYPD3) =    -0.2483934836D+00 E(B2PLYPD3) =    -0.19185994986073D+03

 The electronic state is 1-A.
 Alpha  occ. eigenvalues --  -19.72983 -10.72508 -10.65208 -10.64339  -1.18318
 Alpha  occ. eigenvalues --   -0.92975  -0.75087  -0.67396  -0.56501  -0.56202
 Alpha  occ. eigenvalues --   -0.50238  -0.47178  -0.46094  -0.34563  -0.33983
 Alpha virt. eigenvalues --   -0.01907   0.05701   0.07157   0.07627   0.09729
 Alpha virt. eigenvalues --    0.12448   0.13999   0.15358   0.17617   0.19724
 Alpha virt. eigenvalues --    0.20000   0.21535   0.24981   0.26362   0.28880

 Mulliken charges:
               1
     1  C    0.153184
     2  O   -0.355658
     3  C   -0.044119
     4  C   -0.123543
     5  H    0.113356
     6  H    0.080163
     7  H    0.096558
     8  H    0.080058
 Sum of Mulliken charges =   0.00000

 Dipole moment (field-independent basis, Debye):
    X=              3.5084    Y=              0.8536    Z=              0.0361  Tot=              3.6109
 Quadrupole moment (field-independent basis, Debye-Ang):
   XX=            -27.5792   YY=            -21.6529   ZZ=            -25.2557
   XY=             -1.1178   XZ=              0.6988   YZ=             -0.0562

 Normal termination of Gaussian 09 at Wed Aug 26 09:47:42 2020.
