 Gaussian 09, Revision D.01,
 Gaussian 09:  ES64L-G09RevD.01 24-Apr-2013

 --------------------
 #p B2PLYPD3/Def2QZVP
 --------------------

 --------
 acrolein
 --------
 Symbolic Z-matrix:
 Charge =  0 Multiplicity = 1

                         Standard orientation:
 ---------------------------------------------------------------------
 Center     Atomic      Atomic             Coordinates (Angstroms)
 Number     Number       Type             X           Y           Z
 ---------------------------------------------------------------------
      1          6           0       -0.688666    0.336800    0.075129
      2          8           0       -1.804234   -0.092769   -0.071306
      3          6           0        0.572558   -0.495605    0.033309
      4          6           0        1.766893    0.165287   -0.066896
      5          1           0        0.442243   -1.605496    0.181112
      6          1           0        1.894933    1.275282   -0.009348
      7          1           0        2.729431   -0.351461   -0.032475
      8          1           0       -0.537443    1.384934    0.181908
 ---------------------------------------------------------------------

 SCF Done:  E(RB2PLYPD3) =  -191.606836249     A.U. after   12 cycles
 E2(B2PLYPD3) =    -0.2480963068D+00 E(B2PLYPD3) =    -0.19185493255548D+03

 The electronic state is 1-A.
 Alpha  occ. eigenvalues --  -19.72840 -10.71410 -10.66410 -10.65913  -1.19880
 Alpha  occ. eigenvalues --   -0.91461  -0.74831  -0.67023  -0.56384  -0.55436
 Alpha  occ. eigenvalues --   -0.50820  -0.46894  -0.46083  -0.34111  -0.33700
 Alpha virt. eigenvalues --   -0.01774   0.05665   0.06748   0.07901   0.09461
 Alpha virt. eigenvalues --    0.12457   0.14331   0.15262   0.17489   0.19516
 Alpha virt. eigenvalues --    0.19970   0.21358   0.24592   0.26673   0.28624

 Mulliken charges:
               1
     1  C    0.158816
     2  O   -0.340711
     3  C   -0.051717
     4  C   -0.128830
     5  H    0.104808
     6  H    0.081903
     7  H    0.095627
     8  H    0.080104
 Sum of Mulliken charges =   0.00000

 Dipole moment (field-independent basis, Debye):
    X=              3.4015    Y=              0.7509    Z=              0.4440  Tot=              3.5116
 Quadrupole moment (field-independent basis, Debye-Ang):
   XX=            -27.5015   YY=            -21.6185   ZZ=            -25.4335
   XY=             -0.5378   XZ=             -0.3522   YZ=             -0.1929

 Normal termination of Gaussian 09 at Wed Aug 26 12:21:49 2020.
