 Gaussian 09, Revision D.01,
 Gaussian 09:  ES64L-G09RevD.01 24-Apr-2013

 --------------------
 #p B2PLYPD3/Def2QZVP
 --------------------

 --------
 acrolein
 --------
 Symbolic Z-matrix:
 Charge =  0 Multiplicity = 1

                         Standard orientation:
 ---------------------------------------------------------------------
 Center     Atomic      Atomic             Coordinates (Angstroms)
 Number     Number       Type             X           Y           Z
 ---------------------------------------------------------------------
      1          6           0       -0.666345    0.347865   -0.007856
      2          8           0       -1.790632   -0.120475    0.011255
      3          6           0        0.570794   -0.454849   -0.021712
      4          6           0        1.745528    0.139347   -0.000497
      5          1           0        0.456721   -1.502373    0.020975
      6          1           0        1.825465    1.223502    0.033601
      7          1           0        2.629678   -0.408714    0.050018
      8          1           0       -0.486670    1.457210   -0.014238
 ---------------------------------------------------------------------

 SCF Done:  E(RB2PLYPD3) =  -191.615138699     A.U. after   12 cycles
 E2(B2PLYPD3) =    -0.2470081897D+00 E(B2PLYPD3) =    -0.19186214688834D+03

 The electronic state is 1-A.
 Alpha  occ. eigenvalues --  -19.72932 -10.71873 -10.64813 -10.63927  -1.19099
 Alpha  occ. eigenvalues --   -0.93573  -0.75626  -0.67154  -0.57038  -0.56266
 Alpha  occ. eigenvalues --   -0.50741  -0.47280  -0.46567  -0.34985  -0.33832
 Alpha virt. eigenvalues --   -0.01623   0.05804   0.07248   0.08111   0.09777
 Alpha virt. eigenvalues --    0.12699   0.13951   0.15320   0.17514   0.19814
 Alpha virt. eigenvalues --    0.19965   0.21800   0.25530   0.26509   0.28696

 Mulliken charges:
               1
     1  C    0.156623
     2  O   -0.351601
     3  C   -0.037089
     4  C   -0.126391
     5  H    0.106444
     6  H    0.082676
     7  H    0.101625
     8  H    0.067713
 Sum of Mulliken charges =   0.00000

 Dipole moment (field-independent basis, Debye):
    X=              3.5194    Y=              0.7234    Z=              0.0538  Tot=              3.5934
 Quadrupole moment (field-independent basis, Debye-Ang):
   XX=            -27.5245   YY=            -21.7399   ZZ=            -25.1161
   XY=             -0.8895   XZ=              0.2501   YZ=             -0.0324

 Normal termination of Gaussian 09 at Wed Aug 26 19:37:13 2020.
