 Gaussian 09, Revision D.01,
 Gaussian 09:  ES64L-G09RevD.01 24-Apr-2013

 --------------------
 #p B2PLYPD3/Def2QZVP
 --------------------

 --------
 acrolein
 --------
 Symbolic Z-matrix:
 Charge =  0 Multiplicity = 1

                         Standard orientation:
 ---------------------------------------------------------------------
 Center     Atomic      Atomic             Coordinates (Angstroms)
 Number     Number       Type             X           Y           Z
 ---------------------------------------------------------------------
      1          6           0        0.672369    0.333058   -0.034863
      2          8           0        1.793215   -0.097313    0.036851
      3          6           0       -0.554932   -0.466745   -0.059002
      4          6           0       -1.765429    0.152241    0.007781
      5          1           0       -0.456600   -1.572731    0.053966
      6          1           0       -1.899445    1.264253    0.071269
      7          1           0       -2.690102   -0.372177    0.121638
      8          1           0        0.588376    1.347838   -0.025181
 ---------------------------------------------------------------------

 SCF Done:  E(RB2PLYPD3) =  -191.606439921     A.U. after   13 cycles
 E2(B2PLYPD3) =    -0.2470236065D+00 E(B2PLYPD3) =    -0.19185346352724D+03

 The electronic state is 1-A.
 Alpha  occ. eigenvalues --  -19.72275 -10.70310 -10.66333 -10.65327  -1.19757
 Alpha  occ. eigenvalues --   -0.92290  -0.75799  -0.67786  -0.57064  -0.56019
 Alpha  occ. eigenvalues --   -0.50431  -0.46897  -0.46405  -0.34304  -0.33703
 Alpha virt. eigenvalues --   -0.02023   0.05646   0.07199   0.08246   0.09533
 Alpha virt. eigenvalues --    0.12534   0.14305   0.15444   0.17622   0.19543
 Alpha virt. eigenvalues --    0.19927   0.21512   0.24850   0.26566   0.28790

 Mulliken charges:
               1
     1  C    0.157425
     2  O   -0.349565
     3  C   -0.046915
     4  C   -0.124208
     5  H    0.105169
     6  H    0.080918
     7  H    0.100000
     8  H    0.077175
 Sum of Mulliken charges =   0.00000

 Dipole moment (field-independent basis, Debye):
    X=             -3.5614    Y=              0.7739    Z=              0.0860  Tot=              3.6455
 Quadrupole moment (field-independent basis, Debye-Ang):
   XX=            -27.3241   YY=            -21.6566   ZZ=            -25.2415
   XY=              0.7773   XZ=             -0.6552   YZ=             -0.0899

 Normal termination of Gaussian 09 at Wed Aug 26 09:05:36 2020.
