 Gaussian 09, Revision D.01,
 Gaussian 09:  ES64L-G09RevD.01 24-Apr-2013

 --------------------
 #p B2PLYPD3/Def2QZVP
 --------------------

 --------
 acrolein
 --------
 Symbolic Z-matrix:
 Charge =  0 Multiplicity = 1

                         Standard orientation:
 ---------------------------------------------------------------------
 Center     Atomic      Atomic             Coordinates (Angstroms)
 Number     Number       Type             X           Y           Z
 ---------------------------------------------------------------------
      1          6           0       -0.675337    0.344203    0.026667
      2          8           0       -1.787693   -0.110536   -0.015284
      3          6           0        0.561439   -0.468085   -0.000661
      4          6           0        1.757630    0.141017   -0.012195
      5          1           0        0.429948   -1.539715    0.017207
      6          1           0        1.887792    1.270468   -0.041845
      7          1           0        2.642207   -0.406453    0.039599
      8          1           0       -0.520797    1.457184    0.024447
 ---------------------------------------------------------------------

 SCF Done:  E(RB2PLYPD3) =  -191.613302907     A.U. after   12 cycles
 E2(B2PLYPD3) =    -0.2471262944D+00 E(B2PLYPD3) =    -0.19186042920108D+03

 The electronic state is 1-A.
 Alpha  occ. eigenvalues --  -19.72782 -10.71607 -10.65719 -10.64679  -1.19993
 Alpha  occ. eigenvalues --   -0.92572  -0.75283  -0.66567  -0.56775  -0.55930
 Alpha  occ. eigenvalues --   -0.50727  -0.46971  -0.46875  -0.34572  -0.33649
 Alpha virt. eigenvalues --   -0.01654   0.05707   0.07204   0.08137   0.09657
 Alpha virt. eigenvalues --    0.12454   0.14077   0.15387   0.17424   0.19507
 Alpha virt. eigenvalues --    0.19973   0.21743   0.25330   0.26439   0.28602

 Mulliken charges:
               1
     1  C    0.161300
     2  O   -0.342834
     3  C   -0.049353
     4  C   -0.127755
     5  H    0.107095
     6  H    0.083399
     7  H    0.103096
     8  H    0.065050
 Sum of Mulliken charges =   0.00000

 Dipole moment (field-independent basis, Debye):
    X=              3.4500    Y=              0.6892    Z=              0.0877  Tot=              3.5192
 Quadrupole moment (field-independent basis, Debye-Ang):
   XX=            -27.3926   YY=            -21.6955   ZZ=            -25.2781
   XY=             -0.7524   XZ=             -0.0265   YZ=             -0.0959

 Normal termination of Gaussian 09 at Wed Aug 26 16:08:48 2020.
