 Gaussian 09, Revision D.01,
 Gaussian 09:  ES64L-G09RevD.01 24-Apr-2013

 --------------------
 #p B2PLYPD3/Def2QZVP
 --------------------

 --------
 acrolein
 --------
 Symbolic Z-matrix:
 Charge =  0 Multiplicity = 1

                         Standard orientation:
 ---------------------------------------------------------------------
 Center     Atomic      Atomic             Coordinates (Angstroms)
 Number     Number       Type             X           Y           Z
 ---------------------------------------------------------------------
      1          6           0       -0.683240    0.362016    0.038480
      2          8           0       -1.774013   -0.134905   -0.036808
      3          6           0        0.540199   -0.418894    0.033742
      4          6           0        1.763338    0.133168   -0.045916
      5          1           0        0.406291   -1.571338    0.020162
      6          1           0        1.832351    1.138470   -0.103077
      7          1           0        2.725158   -0.437788    0.093460
      8          1           0       -0.493475    1.492156    0.126082
 ---------------------------------------------------------------------

 SCF Done:  E(RB2PLYPD3) =  -191.604031392     A.U. after   13 cycles
 E2(B2PLYPD3) =    -0.2478038559D+00 E(B2PLYPD3) =    -0.19185183524785D+03

 The electronic state is 1-A.
 Alpha  occ. eigenvalues --  -19.73082 -10.71942 -10.65337 -10.65015  -1.20358
 Alpha  occ. eigenvalues --   -0.92792  -0.75793  -0.66041  -0.56920  -0.55991
 Alpha  occ. eigenvalues --   -0.50648  -0.47274  -0.45973  -0.34520  -0.33899
 Alpha virt. eigenvalues --   -0.02125   0.05749   0.06778   0.08397   0.09863
 Alpha virt. eigenvalues --    0.12462   0.13874   0.15432   0.16969   0.19512
 Alpha virt. eigenvalues --    0.20073   0.21854   0.25474   0.26295   0.28774

 Mulliken charges:
               1
     1  C    0.155420
     2  O   -0.337991
     3  C   -0.030884
     4  C   -0.131032
     5  H    0.096605
     6  H    0.084369
     7  H    0.103574
     8  H    0.059939
 Sum of Mulliken charges =   0.00000

 Dipole moment (field-independent basis, Debye):
    X=              3.3955    Y=              0.8009    Z=              0.1658  Tot=              3.4926
 Quadrupole moment (field-independent basis, Debye-Ang):
   XX=            -27.1073   YY=            -22.0013   ZZ=            -25.2776
   XY=             -0.8979   XZ=             -0.0885   YZ=             -0.1282

 Normal termination of Gaussian 09 at Wed Aug 26 08:37:54 2020.
