 Gaussian 09, Revision D.01,
 Gaussian 09:  ES64L-G09RevD.01 24-Apr-2013

 --------------------
 #p B2PLYPD3/Def2QZVP
 --------------------

 --------
 acrolein
 --------
 Symbolic Z-matrix:
 Charge =  0 Multiplicity = 1

                         Standard orientation:
 ---------------------------------------------------------------------
 Center     Atomic      Atomic             Coordinates (Angstroms)
 Number     Number       Type             X           Y           Z
 ---------------------------------------------------------------------
      1          6           0        0.680451    0.353717   -0.027147
      2          8           0        1.779224   -0.123549    0.017843
      3          6           0       -0.563548   -0.451358   -0.001530
      4          6           0       -1.757142    0.140455   -0.000970
      5          1           0       -0.448490   -1.545493   -0.015485
      6          1           0       -1.847352    1.211390    0.075580
      7          1           0       -2.635493   -0.390446    0.003909
      8          1           0        0.538975    1.456057   -0.028872
 ---------------------------------------------------------------------

 SCF Done:  E(RB2PLYPD3) =  -191.615118179     A.U. after   12 cycles
 E2(B2PLYPD3) =    -0.2463065415D+00 E(B2PLYPD3) =    -0.19186142472029D+03

 The electronic state is 1-A.
 Alpha  occ. eigenvalues --  -19.72818 -10.71549 -10.64641 -10.64496  -1.20275
 Alpha  occ. eigenvalues --   -0.92801  -0.75565  -0.66770  -0.56948  -0.56578
 Alpha  occ. eigenvalues --   -0.50956  -0.47123  -0.46919  -0.34641  -0.33762
 Alpha virt. eigenvalues --   -0.01463   0.05894   0.07227   0.08198   0.09750
 Alpha virt. eigenvalues --    0.12674   0.14238   0.15387   0.17302   0.19828
 Alpha virt. eigenvalues --    0.20012   0.21984   0.25450   0.26373   0.28665

 Mulliken charges:
               1
     1  C    0.157508
     2  O   -0.339684
     3  C   -0.044620
     4  C   -0.129967
     5  H    0.102311
     6  H    0.081397
     7  H    0.102880
     8  H    0.070177
 Sum of Mulliken charges =   0.00000

 Dipole moment (field-independent basis, Debye):
    X=             -3.3723    Y=              0.7642    Z=             -0.0261  Tot=              3.4579
 Quadrupole moment (field-independent basis, Debye-Ang):
   XX=            -27.2923   YY=            -21.7292   ZZ=            -25.1589
   XY=              0.9301   XZ=             -0.2058   YZ=              0.1058

 Normal termination of Gaussian 09 at Wed Aug 26 18:51:38 2020.
