 Gaussian 09, Revision D.01,
 Gaussian 09:  ES64L-G09RevD.01 24-Apr-2013

 --------------------
 #p B2PLYPD3/Def2QZVP
 --------------------

 --------
 acrolein
 --------
 Symbolic Z-matrix:
 Charge =  0 Multiplicity = 1

                         Standard orientation:
 ---------------------------------------------------------------------
 Center     Atomic      Atomic             Coordinates (Angstroms)
 Number     Number       Type             X           Y           Z
 ---------------------------------------------------------------------
      1          6           0       -0.666593    0.358740   -0.030631
      2          8           0       -1.804023   -0.145065    0.041199
      3          6           0        0.541067   -0.403116   -0.063816
      4          6           0        1.769556    0.101795    0.050969
      5          1           0        0.463937   -1.492028   -0.108107
      6          1           0        1.873564    1.135013   -0.161432
      7          1           0        2.704491   -0.411904    0.184332
      8          1           0       -0.473992    1.584919    0.016481
 ---------------------------------------------------------------------

 SCF Done:  E(RB2PLYPD3) =  -191.595682437     A.U. after   14 cycles
 E2(B2PLYPD3) =    -0.2507013618D+00 E(B2PLYPD3) =    -0.19184638379870D+03

 The electronic state is 1-A.
 Alpha  occ. eigenvalues --  -19.73380 -10.73366 -10.65731 -10.64723  -1.17817
 Alpha  occ. eigenvalues --   -0.93774  -0.76632  -0.65728  -0.57246  -0.55560
 Alpha  occ. eigenvalues --   -0.50339  -0.46897  -0.45401  -0.34513  -0.34066
 Alpha virt. eigenvalues --   -0.03067   0.05588   0.06674   0.07932   0.09749
 Alpha virt. eigenvalues --    0.12270   0.13833   0.15181   0.16905   0.19638
 Alpha virt. eigenvalues --    0.20486   0.21802   0.24393   0.26362   0.28663

 Mulliken charges:
               1
     1  C    0.161656
     2  O   -0.355260
     3  C   -0.019103
     4  C   -0.118352
     5  H    0.099845
     6  H    0.079230
     7  H    0.105980
     8  H    0.046004
 Sum of Mulliken charges =   0.00000

 Dipole moment (field-independent basis, Debye):
    X=              3.8056    Y=              0.6852    Z=             -0.1815  Tot=              3.8710
 Quadrupole moment (field-independent basis, Debye-Ang):
   XX=            -26.9973   YY=            -22.3243   ZZ=            -25.2486
   XY=             -1.0549   XZ=              0.3590   YZ=             -0.1508

 Normal termination of Gaussian 09 at Wed Aug 26 14:19:30 2020.
