 Gaussian 09, Revision D.01,
 Gaussian 09:  ES64L-G09RevD.01 24-Apr-2013

 --------------------
 #p B2PLYPD3/Def2QZVP
 --------------------

 --------
 acrolein
 --------
 Symbolic Z-matrix:
 Charge =  0 Multiplicity = 1

                         Standard orientation:
 ---------------------------------------------------------------------
 Center     Atomic      Atomic             Coordinates (Angstroms)
 Number     Number       Type             X           Y           Z
 ---------------------------------------------------------------------
      1          6           0       -0.673714    0.362193   -0.028067
      2          8           0       -1.791262   -0.134962    0.022035
      3          6           0        0.539129   -0.426364   -0.031375
      4          6           0        1.761894    0.132478    0.010662
      5          1           0        0.447222   -1.502996   -0.003977
      6          1           0        1.861725    1.173741   -0.033399
      7          1           0        2.766735   -0.456396    0.101759
      8          1           0       -0.509440    1.455506    0.052021
 ---------------------------------------------------------------------

 SCF Done:  E(RB2PLYPD3) =  -191.608647226     A.U. after   13 cycles
 E2(B2PLYPD3) =    -0.2484607745D+00 E(B2PLYPD3) =    -0.19185710800061D+03

 The electronic state is 1-A.
 Alpha  occ. eigenvalues --  -19.72860 -10.71761 -10.66301 -10.64479  -1.18802
 Alpha  occ. eigenvalues --   -0.92984  -0.75644  -0.67236  -0.56892  -0.55612
 Alpha  occ. eigenvalues --   -0.50076  -0.46537  -0.46459  -0.34445  -0.34075
 Alpha virt. eigenvalues --   -0.02327   0.05486   0.07074   0.08093   0.09701
 Alpha virt. eigenvalues --    0.12305   0.13993   0.15346   0.17640   0.19696
 Alpha virt. eigenvalues --    0.20093   0.21197   0.25156   0.26479   0.28831

 Mulliken charges:
               1
     1  C    0.152153
     2  O   -0.355258
     3  C   -0.032301
     4  C   -0.131626
     5  H    0.108524
     6  H    0.085942
     7  H    0.097729
     8  H    0.074836
 Sum of Mulliken charges =   0.00000

 Dipole moment (field-independent basis, Debye):
    X=              3.5899    Y=              0.8435    Z=             -0.0069  Tot=              3.6877
 Quadrupole moment (field-independent basis, Debye-Ang):
   XX=            -27.3032   YY=            -21.8587   ZZ=            -25.2920
   XY=             -1.0076   XZ=              0.2980   YZ=             -0.0834

 Normal termination of Gaussian 09 at Wed Aug 26 09:29:51 2020.
