 Gaussian 09, Revision D.01,
 Gaussian 09:  ES64L-G09RevD.01 24-Apr-2013

 --------------------
 #p B2PLYPD3/Def2QZVP
 --------------------

 --------
 acrolein
 --------
 Symbolic Z-matrix:
 Charge =  0 Multiplicity = 1

                         Standard orientation:
 ---------------------------------------------------------------------
 Center     Atomic      Atomic             Coordinates (Angstroms)
 Number     Number       Type             X           Y           Z
 ---------------------------------------------------------------------
      1          6           0        0.671893    0.350691    0.005854
      2          8           0        1.794880   -0.126817   -0.000740
      3          6           0       -0.542430   -0.421480   -0.024155
      4          6           0       -1.758269    0.126956   -0.013064
      5          1           0       -0.411400   -1.499482    0.069595
      6          1           0       -1.861149    1.171746    0.010694
      7          1           0       -2.763017   -0.462889    0.072227
      8          1           0        0.449367    1.468158    0.041588
 ---------------------------------------------------------------------

 SCF Done:  E(RB2PLYPD3) =  -191.607522152     A.U. after   13 cycles
 E2(B2PLYPD3) =    -0.2485007912D+00 E(B2PLYPD3) =    -0.19185602294304D+03

 The electronic state is 1-A.
 Alpha  occ. eigenvalues --  -19.73103 -10.71983 -10.66332 -10.64362  -1.19128
 Alpha  occ. eigenvalues --   -0.93380  -0.75856  -0.66703  -0.56750  -0.55684
 Alpha  occ. eigenvalues --   -0.50321  -0.46903  -0.46072  -0.34776  -0.34042
 Alpha virt. eigenvalues --   -0.02364   0.05476   0.06965   0.08394   0.09753
 Alpha virt. eigenvalues --    0.12365   0.13749   0.15271   0.17538   0.19826
 Alpha virt. eigenvalues --    0.19922   0.21298   0.25415   0.26403   0.28628

 Mulliken charges:
               1
     1  C    0.156881
     2  O   -0.352111
     3  C   -0.022573
     4  C   -0.128169
     5  H    0.103117
     6  H    0.084853
     7  H    0.099006
     8  H    0.058995
 Sum of Mulliken charges =   0.00000

 Dipole moment (field-independent basis, Debye):
    X=             -3.6099    Y=              0.7560    Z=              0.1533  Tot=              3.6914
 Quadrupole moment (field-independent basis, Debye-Ang):
   XX=            -27.2039   YY=            -22.0909   ZZ=            -25.2620
   XY=              0.7988   XZ=             -0.2415   YZ=             -0.1233

 Normal termination of Gaussian 09 at Wed Aug 26 09:08:29 2020.
