 Gaussian 09, Revision D.01,
 Gaussian 09:  ES64L-G09RevD.01 24-Apr-2013

 --------------------
 #p B2PLYPD3/Def2QZVP
 --------------------

 --------
 acrolein
 --------
 Symbolic Z-matrix:
 Charge =  0 Multiplicity = 1

                         Standard orientation:
 ---------------------------------------------------------------------
 Center     Atomic      Atomic             Coordinates (Angstroms)
 Number     Number       Type             X           Y           Z
 ---------------------------------------------------------------------
      1          6           0        0.679552    0.347737   -0.030921
      2          8           0        1.778982   -0.127591    0.025035
      3          6           0       -0.552453   -0.445364   -0.013110
      4          6           0       -1.757147    0.137978    0.003617
      5          1           0       -0.472648   -1.498436   -0.022309
      6          1           0       -1.840961    1.222085    0.078982
      7          1           0       -2.655517   -0.432393    0.029371
      8          1           0        0.517561    1.487365   -0.043843
 ---------------------------------------------------------------------

 SCF Done:  E(RB2PLYPD3) =  -191.615341266     A.U. after   12 cycles
 E2(B2PLYPD3) =    -0.2468388132D+00 E(B2PLYPD3) =    -0.19186218007945D+03

 The electronic state is 1-A.
 Alpha  occ. eigenvalues --  -19.72911 -10.71859 -10.65339 -10.64092  -1.20329
 Alpha  occ. eigenvalues --   -0.92918  -0.75361  -0.66707  -0.56722  -0.56373
 Alpha  occ. eigenvalues --   -0.50682  -0.47247  -0.47188  -0.34593  -0.33778
 Alpha virt. eigenvalues --   -0.01699   0.05815   0.07175   0.08320   0.09769
 Alpha virt. eigenvalues --    0.12559   0.13937   0.15392   0.17592   0.19731
 Alpha virt. eigenvalues --    0.19969   0.21604   0.25481   0.26280   0.28728

 Mulliken charges:
               1
     1  C    0.157374
     2  O   -0.338258
     3  C   -0.039974
     4  C   -0.130023
     5  H    0.105441
     6  H    0.083249
     7  H    0.102601
     8  H    0.059590
 Sum of Mulliken charges =   0.00000

 Dipole moment (field-independent basis, Debye):
    X=             -3.4123    Y=              0.6920    Z=             -0.0301  Tot=              3.4819
 Quadrupole moment (field-independent basis, Debye-Ang):
   XX=            -27.2617   YY=            -21.8458   ZZ=            -25.2025
   XY=              1.0099   XZ=             -0.3037   YZ=              0.0968

 Normal termination of Gaussian 09 at Wed Aug 26 13:24:23 2020.
