 Gaussian 09, Revision D.01,
 Gaussian 09:  ES64L-G09RevD.01 24-Apr-2013

 --------------------
 #p B2PLYPD3/Def2QZVP
 --------------------

 --------
 acrolein
 --------
 Symbolic Z-matrix:
 Charge =  0 Multiplicity = 1

                         Standard orientation:
 ---------------------------------------------------------------------
 Center     Atomic      Atomic             Coordinates (Angstroms)
 Number     Number       Type             X           Y           Z
 ---------------------------------------------------------------------
      1          6           0        0.660525    0.367638    0.065473
      2          8           0        1.811450   -0.143223   -0.073212
      3          6           0       -0.549379   -0.407858    0.023221
      4          6           0       -1.764402    0.120265   -0.028695
      5          1           0       -0.447714   -1.593874    0.269875
      6          1           0       -1.775322    1.125129   -0.097396
      7          1           0       -2.780021   -0.418029   -0.155473
      8          1           0        0.430992    1.552287    0.208699
 ---------------------------------------------------------------------

 SCF Done:  E(RB2PLYPD3) =  -191.578125316     A.U. after   13 cycles
 E2(B2PLYPD3) =    -0.2525219733D+00 E(B2PLYPD3) =    -0.19183064728941D+03

 The electronic state is 1-A.
 Alpha  occ. eigenvalues --  -19.73600 -10.73725 -10.65875 -10.65739  -1.16763
 Alpha  occ. eigenvalues --   -0.93886  -0.76268  -0.65160  -0.56092  -0.55645
 Alpha  occ. eigenvalues --   -0.49987  -0.46385  -0.43845  -0.34933  -0.34258
 Alpha virt. eigenvalues --   -0.03060   0.05422   0.05621   0.07853   0.09568
 Alpha virt. eigenvalues --    0.12238   0.13469   0.14484   0.17031   0.19164
 Alpha virt. eigenvalues --    0.20415   0.21582   0.24746   0.26237   0.29368

 Mulliken charges:
               1
     1  C    0.153009
     2  O   -0.361610
     3  C   -0.012948
     4  C   -0.114840
     5  H    0.090837
     6  H    0.076581
     7  H    0.108226
     8  H    0.060745
 Sum of Mulliken charges =   0.00000

 Dipole moment (field-independent basis, Debye):
    X=             -3.8064    Y=              0.8504    Z=              0.3074  Tot=              3.9123
 Quadrupole moment (field-independent basis, Debye-Ang):
   XX=            -27.3208   YY=            -22.2130   ZZ=            -25.4041
   XY=              1.0079   XZ=              0.7342   YZ=             -0.2793

 Normal termination of Gaussian 09 at Wed Aug 26 11:31:46 2020.
