 Gaussian 09, Revision D.01,
 Gaussian 09:  ES64L-G09RevD.01 24-Apr-2013

 --------------------
 #p B2PLYPD3/Def2QZVP
 --------------------

 --------
 acrolein
 --------
 Symbolic Z-matrix:
 Charge =  0 Multiplicity = 1

                         Standard orientation:
 ---------------------------------------------------------------------
 Center     Atomic      Atomic             Coordinates (Angstroms)
 Number     Number       Type             X           Y           Z
 ---------------------------------------------------------------------
      1          6           0        0.686067    0.362045   -0.025550
      2          8           0        1.779232   -0.133658    0.025653
      3          6           0       -0.552897   -0.437855   -0.023904
      4          6           0       -1.767706    0.141745    0.010296
      5          1           0       -0.448289   -1.476976    0.021495
      6          1           0       -1.810405    1.182091    0.142873
      7          1           0       -2.714854   -0.432663   -0.034297
      8          1           0        0.546904    1.401197   -0.100347
 ---------------------------------------------------------------------

 SCF Done:  E(RB2PLYPD3) =  -191.612076320     A.U. after   12 cycles
 E2(B2PLYPD3) =    -0.2463313105D+00 E(B2PLYPD3) =    -0.19185840763009D+03

 The electronic state is 1-A.
 Alpha  occ. eigenvalues --  -19.72716 -10.70953 -10.65383 -10.63920  -1.20091
 Alpha  occ. eigenvalues --   -0.92646  -0.75544  -0.68260  -0.57164  -0.56144
 Alpha  occ. eigenvalues --   -0.50770  -0.47480  -0.46871  -0.34324  -0.33851
 Alpha virt. eigenvalues --   -0.01751   0.05769   0.07500   0.08114   0.09791
 Alpha virt. eigenvalues --    0.12589   0.13958   0.15514   0.17880   0.19437
 Alpha virt. eigenvalues --    0.20232   0.21450   0.25373   0.26499   0.28937

 Mulliken charges:
               1
     1  C    0.151853
     2  O   -0.345997
     3  C   -0.046820
     4  C   -0.137917
     5  H    0.109217
     6  H    0.083840
     7  H    0.102339
     8  H    0.083485
 Sum of Mulliken charges =   0.00000

 Dipole moment (field-independent basis, Debye):
    X=             -3.3664    Y=              0.8570    Z=             -0.0099  Tot=              3.4738
 Quadrupole moment (field-independent basis, Debye-Ang):
   XX=            -27.3258   YY=            -21.7522   ZZ=            -25.1233
   XY=              1.1496   XZ=             -0.2858   YZ=              0.1126

 Normal termination of Gaussian 09 at Wed Aug 26 08:36:27 2020.
