 Gaussian 09, Revision D.01,
 Gaussian 09:  ES64L-G09RevD.01 24-Apr-2013

 --------------------
 #p B2PLYPD3/Def2QZVP
 --------------------

 --------
 acrolein
 --------
 Symbolic Z-matrix:
 Charge =  0 Multiplicity = 1

                         Standard orientation:
 ---------------------------------------------------------------------
 Center     Atomic      Atomic             Coordinates (Angstroms)
 Number     Number       Type             X           Y           Z
 ---------------------------------------------------------------------
      1          6           0       -0.668279    0.320572    0.016896
      2          8           0       -1.790713   -0.095224   -0.040872
      3          6           0        0.565725   -0.466054    0.053100
      4          6           0        1.755685    0.159534   -0.022709
      5          1           0        0.425451   -1.531918    0.066964
      6          1           0        1.832838    1.199671   -0.031014
      7          1           0        2.666977   -0.377045   -0.133946
      8          1           0       -0.518352    1.386775    0.141245
 ---------------------------------------------------------------------

 SCF Done:  E(RB2PLYPD3) =  -191.614228361     A.U. after   12 cycles
 E2(B2PLYPD3) =    -0.2463133260D+00 E(B2PLYPD3) =    -0.19186054168745D+03

 The electronic state is 1-A.
 Alpha  occ. eigenvalues --  -19.72585 -10.70890 -10.65278 -10.64578  -1.20093
 Alpha  occ. eigenvalues --   -0.93072  -0.76052  -0.67457  -0.57001  -0.56625
 Alpha  occ. eigenvalues --   -0.50815  -0.47908  -0.46881  -0.34617  -0.33519
 Alpha virt. eigenvalues --   -0.01844   0.05860   0.07341   0.08391   0.09702
 Alpha virt. eigenvalues --    0.12812   0.14146   0.15345   0.17511   0.19701
 Alpha virt. eigenvalues --    0.20183   0.21690   0.25155   0.26536   0.28584

 Mulliken charges:
               1
     1  C    0.154865
     2  O   -0.345928
     3  C   -0.036093
     4  C   -0.131032
     5  H    0.104475
     6  H    0.090412
     7  H    0.101135
     8  H    0.062166
 Sum of Mulliken charges =   0.00000

 Dipole moment (field-independent basis, Debye):
    X=              3.5313    Y=              0.6647    Z=              0.0690  Tot=              3.5940
 Quadrupole moment (field-independent basis, Debye-Ang):
   XX=            -27.2906   YY=            -21.8405   ZZ=            -25.0926
   XY=             -0.6212   XZ=             -0.5769   YZ=             -0.0012

 Normal termination of Gaussian 09 at Wed Aug 26 09:41:16 2020.
