 Gaussian 09, Revision D.01,
 Gaussian 09:  ES64L-G09RevD.01 24-Apr-2013

 --------------------
 #p B2PLYPD3/Def2QZVP
 --------------------

 --------
 acrolein
 --------
 Symbolic Z-matrix:
 Charge =  0 Multiplicity = 1

                         Standard orientation:
 ---------------------------------------------------------------------
 Center     Atomic      Atomic             Coordinates (Angstroms)
 Number     Number       Type             X           Y           Z
 ---------------------------------------------------------------------
      1          6           0        0.668431    0.340761    0.023151
      2          8           0        1.796328   -0.113175   -0.015878
      3          6           0       -0.567144   -0.455069    0.018955
      4          6           0       -1.748175    0.148608   -0.010484
      5          1           0       -0.437998   -1.519059   -0.006209
      6          1           0       -1.852171    1.218961    0.003277
      7          1           0       -2.701641   -0.424446   -0.038462
      8          1           0        0.502511    1.424138   -0.021316
 ---------------------------------------------------------------------

 SCF Done:  E(RB2PLYPD3) =  -191.615851598     A.U. after   12 cycles
 E2(B2PLYPD3) =    -0.2472731018D+00 E(B2PLYPD3) =    -0.19186312469989D+03

 The electronic state is 1-A.
 Alpha  occ. eigenvalues --  -19.72810 -10.71500 -10.65735 -10.64343  -1.19130
 Alpha  occ. eigenvalues --   -0.93240  -0.75401  -0.67291  -0.56681  -0.56140
 Alpha  occ. eigenvalues --   -0.50547  -0.46880  -0.46583  -0.34871  -0.33799
 Alpha virt. eigenvalues --   -0.01780   0.05675   0.07200   0.08135   0.09708
 Alpha virt. eigenvalues --    0.12563   0.13979   0.15313   0.17564   0.19781
 Alpha virt. eigenvalues --    0.20001   0.21446   0.25383   0.26598   0.28631

 Mulliken charges:
               1
     1  C    0.156150
     2  O   -0.353311
     3  C   -0.036338
     4  C   -0.129577
     5  H    0.107541
     6  H    0.088066
     7  H    0.097953
     8  H    0.069516
 Sum of Mulliken charges =   0.00000

 Dipole moment (field-independent basis, Debye):
    X=             -3.5507    Y=              0.7438    Z=              0.0190  Tot=              3.6279
 Quadrupole moment (field-independent basis, Debye-Ang):
   XX=            -27.4981   YY=            -21.7605   ZZ=            -25.1998
   XY=              0.7732   XZ=              0.1622   YZ=              0.0328

 Normal termination of Gaussian 09 at Wed Aug 26 16:02:38 2020.
