 Gaussian 09, Revision D.01,
 Gaussian 09:  ES64L-G09RevD.01 24-Apr-2013

 --------------------
 #p B2PLYPD3/Def2QZVP
 --------------------

 --------
 acrolein
 --------
 Symbolic Z-matrix:
 Charge =  0 Multiplicity = 1

                         Standard orientation:
 ---------------------------------------------------------------------
 Center     Atomic      Atomic             Coordinates (Angstroms)
 Number     Number       Type             X           Y           Z
 ---------------------------------------------------------------------
      1          6           0        0.675317    0.337380   -0.034141
      2          8           0        1.801368   -0.098505    0.037882
      3          6           0       -0.572324   -0.475662   -0.041210
      4          6           0       -1.768981    0.150707    0.033726
      5          1           0       -0.378887   -1.577444   -0.075644
      6          1           0       -1.839298    1.279706   -0.054331
      7          1           0       -2.669192   -0.412896    0.113298
      8          1           0        0.472359    1.424125   -0.036626
 ---------------------------------------------------------------------

 SCF Done:  E(RB2PLYPD3) =  -191.610984621     A.U. after   13 cycles
 E2(B2PLYPD3) =    -0.2482180691D+00 E(B2PLYPD3) =    -0.19185920269000D+03

 The electronic state is 1-A.
 Alpha  occ. eigenvalues --  -19.72954 -10.71652 -10.66305 -10.65322  -1.19580
 Alpha  occ. eigenvalues --   -0.92306  -0.75237  -0.66346  -0.56491  -0.55435
 Alpha  occ. eigenvalues --   -0.50711  -0.47067  -0.46411  -0.34443  -0.33696
 Alpha virt. eigenvalues --   -0.01887   0.05635   0.07052   0.07957   0.09684
 Alpha virt. eigenvalues --    0.12467   0.13786   0.15323   0.17199   0.19565
 Alpha virt. eigenvalues --    0.20003   0.21526   0.24868   0.26770   0.28576

 Mulliken charges:
               1
     1  C    0.166251
     2  O   -0.347957
     3  C   -0.043692
     4  C   -0.133735
     5  H    0.102097
     6  H    0.087747
     7  H    0.107558
     8  H    0.061731
 Sum of Mulliken charges =   0.00000

 Dipole moment (field-independent basis, Debye):
    X=             -3.4857    Y=              0.6725    Z=             -0.1464  Tot=              3.5530
 Quadrupole moment (field-independent basis, Debye-Ang):
   XX=            -27.5880   YY=            -21.7381   ZZ=            -25.3808
   XY=              0.6181   XZ=             -0.3507   YZ=             -0.0599

 Normal termination of Gaussian 09 at Wed Aug 26 08:45:06 2020.
