 Gaussian 09, Revision D.01,
 Gaussian 09:  ES64L-G09RevD.01 24-Apr-2013

 --------------------
 #p B2PLYPD3/Def2QZVP
 --------------------

 --------
 acrolein
 --------
 Symbolic Z-matrix:
 Charge =  0 Multiplicity = 1

                         Standard orientation:
 ---------------------------------------------------------------------
 Center     Atomic      Atomic             Coordinates (Angstroms)
 Number     Number       Type             X           Y           Z
 ---------------------------------------------------------------------
      1          6           0       -0.669689    0.341384    0.005605
      2          8           0       -1.798856   -0.114609    0.005499
      3          6           0        0.572853   -0.462373   -0.023860
      4          6           0        1.749394    0.146291    0.005655
      5          1           0        0.479531   -1.520051    0.005893
      6          1           0        1.853367    1.260045   -0.020533
      7          1           0        2.627855   -0.428151    0.058455
      8          1           0       -0.485252    1.453210   -0.012205
 ---------------------------------------------------------------------

 SCF Done:  E(RB2PLYPD3) =  -191.614287750     A.U. after   12 cycles
 E2(B2PLYPD3) =    -0.2474926433D+00 E(B2PLYPD3) =    -0.19186178039353D+03

 The electronic state is 1-A.
 Alpha  occ. eigenvalues --  -19.72941 -10.71961 -10.65395 -10.64241  -1.19093
 Alpha  occ. eigenvalues --   -0.93264  -0.75343  -0.66834  -0.56751  -0.55985
 Alpha  occ. eigenvalues --   -0.50564  -0.47173  -0.46528  -0.34887  -0.33779
 Alpha virt. eigenvalues --   -0.01685   0.05729   0.07132   0.08041   0.09694
 Alpha virt. eigenvalues --    0.12585   0.13896   0.15306   0.17539   0.19592
 Alpha virt. eigenvalues --    0.19971   0.21701   0.25354   0.26514   0.28532

 Mulliken charges:
               1
     1  C    0.159091
     2  O   -0.349883
     3  C   -0.041437
     4  C   -0.126973
     5  H    0.105477
     6  H    0.085550
     7  H    0.101902
     8  H    0.066272
 Sum of Mulliken charges =   0.00000

 Dipole moment (field-independent basis, Debye):
    X=              3.5400    Y=              0.6931    Z=              0.0307  Tot=              3.6074
 Quadrupole moment (field-independent basis, Debye-Ang):
   XX=            -27.6267   YY=            -21.6787   ZZ=            -25.2178
   XY=             -0.8566   XZ=              0.1516   YZ=             -0.0891

 Normal termination of Gaussian 09 at Wed Aug 26 19:14:38 2020.
