 Gaussian 09, Revision D.01,
 Gaussian 09:  ES64L-G09RevD.01 24-Apr-2013

 --------------------
 #p B2PLYPD3/Def2QZVP
 --------------------

 --------
 acrolein
 --------
 Symbolic Z-matrix:
 Charge =  0 Multiplicity = 1

                         Standard orientation:
 ---------------------------------------------------------------------
 Center     Atomic      Atomic             Coordinates (Angstroms)
 Number     Number       Type             X           Y           Z
 ---------------------------------------------------------------------
      1          6           0       -0.682970   -0.340504   -0.052128
      2          8           0       -1.780151    0.111475    0.047236
      3          6           0        0.566721    0.452993   -0.023986
      4          6           0        1.754126   -0.163794    0.010481
      5          1           0        0.445826    1.574670   -0.072578
      6          1           0        1.822036   -1.154029    0.111679
      7          1           0        2.673037    0.389703    0.077182
      8          1           0       -0.526959   -1.394321   -0.100378
 ---------------------------------------------------------------------

 SCF Done:  E(RB2PLYPD3) =  -191.609290068     A.U. after   12 cycles
 E2(B2PLYPD3) =    -0.2457971827D+00 E(B2PLYPD3) =    -0.19185508725034D+03

 The electronic state is 1-A.
 Alpha  occ. eigenvalues --  -19.72735 -10.70935 -10.64829 -10.64373  -1.20696
 Alpha  occ. eigenvalues --   -0.92854  -0.75850  -0.67443  -0.57529  -0.56337
 Alpha  occ. eigenvalues --   -0.50858  -0.47422  -0.47044  -0.34576  -0.33736
 Alpha virt. eigenvalues --   -0.01469   0.05934   0.07222   0.08273   0.09752
 Alpha virt. eigenvalues --    0.12915   0.14273   0.15302   0.17281   0.19737
 Alpha virt. eigenvalues --    0.20301   0.22026   0.25200   0.26591   0.28491

 Mulliken charges:
               1
     1  C    0.152577
     2  O   -0.338116
     3  C   -0.034933
     4  C   -0.136325
     5  H    0.097457
     6  H    0.087849
     7  H    0.098879
     8  H    0.072611
 Sum of Mulliken charges =   0.00000

 Dipole moment (field-independent basis, Debye):
    X=              3.3413    Y=             -0.7790    Z=             -0.0964  Tot=              3.4323
 Quadrupole moment (field-independent basis, Debye-Ang):
   XX=            -27.3179   YY=            -21.7453   ZZ=            -25.0866
   XY=              0.7977   XZ=              0.5729   YZ=             -0.1608

 Normal termination of Gaussian 09 at Wed Aug 26 08:37:15 2020.
