 Gaussian 09, Revision D.01,
 Gaussian 09:  ES64L-G09RevD.01 24-Apr-2013

 --------------------
 #p B2PLYPD3/Def2QZVP
 --------------------

 --------
 acrolein
 --------
 Symbolic Z-matrix:
 Charge =  0 Multiplicity = 1

                         Standard orientation:
 ---------------------------------------------------------------------
 Center     Atomic      Atomic             Coordinates (Angstroms)
 Number     Number       Type             X           Y           Z
 ---------------------------------------------------------------------
      1          6           0        0.687409    0.374548   -0.025580
      2          8           0        1.783050   -0.165434    0.037452
      3          6           0       -0.542608   -0.414520   -0.086589
      4          6           0       -1.761923    0.137791    0.008885
      5          1           0       -0.441540   -1.497960    0.089142
      6          1           0       -1.741451    1.080771    0.090085
      7          1           0       -2.852348   -0.479954    0.146479
      8          1           0        0.473676    1.633700   -0.005616
 ---------------------------------------------------------------------

 SCF Done:  E(RB2PLYPD3) =  -191.562867880     A.U. after   13 cycles
 E2(B2PLYPD3) =    -0.2508960293D+00 E(B2PLYPD3) =    -0.19181376390888D+03

 The electronic state is 1-A.
 Alpha  occ. eigenvalues --  -19.73722 -10.73807 -10.65945 -10.64792  -1.19469
 Alpha  occ. eigenvalues --   -0.93362  -0.75205  -0.66053  -0.56069  -0.55243
 Alpha  occ. eigenvalues --   -0.49373  -0.47220  -0.45948  -0.34700  -0.33967
 Alpha virt. eigenvalues --   -0.02355   0.05078   0.06104   0.07799   0.09856
 Alpha virt. eigenvalues --    0.11704   0.13198   0.15006   0.17265   0.19510
 Alpha virt. eigenvalues --    0.20308   0.21325   0.24596   0.25740   0.28909

 Mulliken charges:
               1
     1  C    0.157774
     2  O   -0.339593
     3  C   -0.026733
     4  C   -0.131043
     5  H    0.104510
     6  H    0.093473
     7  H    0.102172
     8  H    0.039440
 Sum of Mulliken charges =   0.00000

 Dipole moment (field-independent basis, Debye):
    X=             -3.4404    Y=              0.7440    Z=              0.1800  Tot=              3.5245
 Quadrupole moment (field-independent basis, Debye-Ang):
   XX=            -27.0573   YY=            -22.3018   ZZ=            -25.4535
   XY=              1.2193   XZ=             -0.7461   YZ=             -0.1596

 Normal termination of Gaussian 09 at Wed Aug 26 13:17:32 2020.
