 Gaussian 09, Revision D.01,
 Gaussian 09:  ES64L-G09RevD.01 24-Apr-2013

 --------------------
 #p B2PLYPD3/Def2QZVP
 --------------------

 --------
 acrolein
 --------
 Symbolic Z-matrix:
 Charge =  0 Multiplicity = 1

                         Standard orientation:
 ---------------------------------------------------------------------
 Center     Atomic      Atomic             Coordinates (Angstroms)
 Number     Number       Type             X           Y           Z
 ---------------------------------------------------------------------
      1          6           0       -0.641928    0.352937   -0.096310
      2          8           0       -1.799706   -0.119628    0.074108
      3          6           0        0.543787   -0.428944   -0.069317
      4          6           0        1.758549    0.098989    0.029690
      5          1           0        0.397859   -1.461964   -0.030603
      6          1           0        1.842188    1.169475    0.100330
      7          1           0        2.591810   -0.381383    0.166300
      8          1           0       -0.396657    1.493005   -0.013269
 ---------------------------------------------------------------------

 SCF Done:  E(RB2PLYPD3) =  -191.592871713     A.U. after   13 cycles
 E2(B2PLYPD3) =    -0.2500784050D+00 E(B2PLYPD3) =    -0.19184295011848D+03

 The electronic state is 1-A.
 Alpha  occ. eigenvalues --  -19.73192 -10.72554 -10.64776 -10.64017  -1.16766
 Alpha  occ. eigenvalues --   -0.94464  -0.77904  -0.67075  -0.58634  -0.55607
 Alpha  occ. eigenvalues --   -0.50396  -0.47045  -0.45796  -0.34829  -0.34067
 Alpha virt. eigenvalues --   -0.03154   0.05651   0.07187   0.07936   0.09861
 Alpha virt. eigenvalues --    0.12779   0.13950   0.15238   0.17403   0.19701
 Alpha virt. eigenvalues --    0.19912   0.22265   0.24965   0.26759   0.29019

 Mulliken charges:
               1
     1  C    0.168619
     2  O   -0.373753
     3  C   -0.016410
     4  C   -0.115335
     5  H    0.105629
     6  H    0.072363
     7  H    0.104500
     8  H    0.054387
 Sum of Mulliken charges =   0.00000

 Dipole moment (field-independent basis, Debye):
    X=              3.8656    Y=              0.6835    Z=             -0.0662  Tot=              3.9261
 Quadrupole moment (field-independent basis, Debye-Ang):
   XX=            -27.3651   YY=            -22.0432   ZZ=            -25.0508
   XY=             -0.7317   XZ=              0.8989   YZ=              0.0368

 Normal termination of Gaussian 09 at Wed Aug 26 10:40:39 2020.
