 Gaussian 09, Revision D.01,
 Gaussian 09:  ES64L-G09RevD.01 24-Apr-2013

 --------------------
 #p B2PLYPD3/Def2QZVP
 --------------------

 --------
 acrolein
 --------
 Symbolic Z-matrix:
 Charge =  0 Multiplicity = 1

                         Standard orientation:
 ---------------------------------------------------------------------
 Center     Atomic      Atomic             Coordinates (Angstroms)
 Number     Number       Type             X           Y           Z
 ---------------------------------------------------------------------
      1          6           0        0.688279    0.384210    0.065361
      2          8           0        1.783617   -0.162803   -0.067015
      3          6           0       -0.557898   -0.450723    0.018018
      4          6           0       -1.750751    0.130596   -0.029957
      5          1           0       -0.576199   -1.483037    0.225568
      6          1           0       -1.732571    1.140144   -0.202310
      7          1           0       -2.668453   -0.379972   -0.041501
      8          1           0        0.430508    1.640789    0.233829
 ---------------------------------------------------------------------

 SCF Done:  E(RB2PLYPD3) =  -191.586608489     A.U. after   13 cycles
 E2(B2PLYPD3) =    -0.2501985014D+00 E(B2PLYPD3) =    -0.19183680699014D+03

 The electronic state is 1-A.
 Alpha  occ. eigenvalues --  -19.73962 -10.74473 -10.64168 -10.63885  -1.19074
 Alpha  occ. eigenvalues --   -0.93193  -0.74729  -0.66316  -0.57176  -0.55029
 Alpha  occ. eigenvalues --   -0.50563  -0.47366  -0.45975  -0.34678  -0.34031
 Alpha virt. eigenvalues --   -0.01814   0.05499   0.06408   0.07422   0.09801
 Alpha virt. eigenvalues --    0.12654   0.13164   0.14814   0.17547   0.19218
 Alpha virt. eigenvalues --    0.20353   0.21565   0.24328   0.26631   0.28639

 Mulliken charges:
               1
     1  C    0.161477
     2  O   -0.334758
     3  C   -0.033631
     4  C   -0.121233
     5  H    0.101549
     6  H    0.071524
     7  H    0.098526
     8  H    0.056546
 Sum of Mulliken charges =   0.00000

 Dipole moment (field-independent basis, Debye):
    X=             -3.3609    Y=              0.7543    Z=              0.2867  Tot=              3.4564
 Quadrupole moment (field-independent basis, Debye-Ang):
   XX=            -27.3474   YY=            -22.0292   ZZ=            -25.2641
   XY=              1.2744   XZ=              0.4972   YZ=             -0.3827

 Normal termination of Gaussian 09 at Wed Aug 26 11:55:29 2020.
