 Gaussian 09, Revision D.01,
 Gaussian 09:  ES64L-G09RevD.01 24-Apr-2013

 --------------------
 #p B2PLYPD3/Def2QZVP
 --------------------

 --------
 acrolein
 --------
 Symbolic Z-matrix:
 Charge =  0 Multiplicity = 1

                         Standard orientation:
 ---------------------------------------------------------------------
 Center     Atomic      Atomic             Coordinates (Angstroms)
 Number     Number       Type             X           Y           Z
 ---------------------------------------------------------------------
      1          6           0       -0.664010    0.353195    0.004633
      2          8           0       -1.779202   -0.135017    0.018875
      3          6           0        0.540489   -0.423171   -0.044466
      4          6           0        1.749847    0.122224    0.005717
      5          1           0        0.450090   -1.499569   -0.023078
      6          1           0        1.830230    1.224659    0.001867
      7          1           0        2.692644   -0.462093    0.130259
      8          1           0       -0.497307    1.503651   -0.055347
 ---------------------------------------------------------------------

 SCF Done:  E(RB2PLYPD3) =  -191.611020202     A.U. after   13 cycles
 E2(B2PLYPD3) =    -0.2482545233D+00 E(B2PLYPD3) =    -0.19185927472527D+03

 The electronic state is 1-A.
 Alpha  occ. eigenvalues --  -19.72915 -10.72038 -10.66168 -10.64096  -1.19245
 Alpha  occ. eigenvalues --   -0.93493  -0.75553  -0.66261  -0.56464  -0.56102
 Alpha  occ. eigenvalues --   -0.50301  -0.46957  -0.46160  -0.34805  -0.33930
 Alpha virt. eigenvalues --   -0.02160   0.05608   0.06865   0.08391   0.09780
 Alpha virt. eigenvalues --    0.12309   0.13822   0.15313   0.17487   0.19646
 Alpha virt. eigenvalues --    0.19798   0.21427   0.25520   0.26266   0.28871

 Mulliken charges:
               1
     1  C    0.157574
     2  O   -0.349437
     3  C   -0.029515
     4  C   -0.122954
     5  H    0.103825
     6  H    0.079210
     7  H    0.104373
     8  H    0.056925
 Sum of Mulliken charges =   0.00000

 Dipole moment (field-independent basis, Debye):
    X=              3.5717    Y=              0.7099    Z=              0.0434  Tot=              3.6418
 Quadrupole moment (field-independent basis, Debye-Ang):
   XX=            -27.2943   YY=            -21.9525   ZZ=            -25.2450
   XY=             -1.0890   XZ=              0.4285   YZ=             -0.0951

 Normal termination of Gaussian 09 at Wed Aug 26 08:40:09 2020.
