 Gaussian 09, Revision D.01,
 Gaussian 09:  ES64L-G09RevD.01 24-Apr-2013

 --------------------
 #p B2PLYPD3/Def2QZVP
 --------------------

 --------
 acrolein
 --------
 Symbolic Z-matrix:
 Charge =  0 Multiplicity = 1

                         Standard orientation:
 ---------------------------------------------------------------------
 Center     Atomic      Atomic             Coordinates (Angstroms)
 Number     Number       Type             X           Y           Z
 ---------------------------------------------------------------------
      1          6           0        0.667366    0.339620    0.014049
      2          8           0        1.798845   -0.110356   -0.017115
      3          6           0       -0.569341   -0.456274    0.016749
      4          6           0       -1.754159    0.134959   -0.020501
      5          1           0       -0.437914   -1.524928    0.036145
      6          1           0       -1.863032    1.262380   -0.000714
      7          1           0       -2.614685   -0.421266   -0.008988
      8          1           0        0.461670    1.456826    0.048701
 ---------------------------------------------------------------------

 SCF Done:  E(RB2PLYPD3) =  -191.612027188     A.U. after   12 cycles
 E2(B2PLYPD3) =    -0.2476525454D+00 E(B2PLYPD3) =    -0.19185967973341D+03

 The electronic state is 1-A.
 Alpha  occ. eigenvalues --  -19.73028 -10.71977 -10.65374 -10.64357  -1.19125
 Alpha  occ. eigenvalues --   -0.93367  -0.75831  -0.66462  -0.57172  -0.55694
 Alpha  occ. eigenvalues --   -0.50781  -0.46957  -0.46548  -0.34946  -0.33810
 Alpha virt. eigenvalues --   -0.01843   0.05709   0.07117   0.08209   0.09720
 Alpha virt. eigenvalues --    0.12577   0.13880   0.15312   0.17363   0.19525
 Alpha virt. eigenvalues --    0.19988   0.21888   0.25430   0.26557   0.28516

 Mulliken charges:
               1
     1  C    0.163135
     2  O   -0.350626
     3  C   -0.037433
     4  C   -0.126227
     5  H    0.102758
     6  H    0.082814
     7  H    0.105630
     8  H    0.059950
 Sum of Mulliken charges =   0.00000

 Dipole moment (field-independent basis, Debye):
    X=             -3.5636    Y=              0.6558    Z=              0.0928  Tot=              3.6247
 Quadrupole moment (field-independent basis, Debye-Ang):
   XX=            -27.5204   YY=            -21.7918   ZZ=            -25.2129
   XY=              0.7490   XZ=              0.0857   YZ=             -0.0185

 Normal termination of Gaussian 09 at Wed Aug 26 14:22:32 2020.
