 Gaussian 09, Revision D.01,
 Gaussian 09:  ES64L-G09RevD.01 24-Apr-2013

 --------------------
 #p B2PLYPD3/Def2QZVP
 --------------------

 --------
 acrolein
 --------
 Symbolic Z-matrix:
 Charge =  0 Multiplicity = 1

                         Standard orientation:
 ---------------------------------------------------------------------
 Center     Atomic      Atomic             Coordinates (Angstroms)
 Number     Number       Type             X           Y           Z
 ---------------------------------------------------------------------
      1          6           0        0.658864    0.344865    0.009752
      2          8           0        1.791027   -0.118692   -0.018717
      3          6           0       -0.540260   -0.431804    0.024329
      4          6           0       -1.743252    0.121434   -0.029718
      5          1           0       -0.427598   -1.518635    0.036438
      6          1           0       -1.844910    1.218184   -0.009146
      7          1           0       -2.755775   -0.417826    0.014598
      8          1           0        0.447960    1.460840    0.081671
 ---------------------------------------------------------------------

 SCF Done:  E(RB2PLYPD3) =  -191.609478268     A.U. after   13 cycles
 E2(B2PLYPD3) =    -0.2486027676D+00 E(B2PLYPD3) =    -0.19185808103603D+03

 The electronic state is 1-A.
 Alpha  occ. eigenvalues --  -19.72944 -10.71843 -10.66584 -10.64325  -1.18833
 Alpha  occ. eigenvalues --   -0.93683  -0.75736  -0.66518  -0.56746  -0.55676
 Alpha  occ. eigenvalues --   -0.50302  -0.46733  -0.45763  -0.34933  -0.34037
 Alpha virt. eigenvalues --   -0.02316   0.05475   0.06903   0.08433   0.09691
 Alpha virt. eigenvalues --    0.12340   0.13976   0.15279   0.17417   0.19633
 Alpha virt. eigenvalues --    0.19941   0.21193   0.25607   0.26348   0.28804

 Mulliken charges:
               1
     1  C    0.157606
     2  O   -0.355074
     3  C   -0.023721
     4  C   -0.118902
     5  H    0.103722
     6  H    0.076504
     7  H    0.099720
     8  H    0.060146
 Sum of Mulliken charges =   0.00000

 Dipole moment (field-independent basis, Debye):
    X=             -3.6772    Y=              0.7086    Z=              0.1142  Tot=              3.7466
 Quadrupole moment (field-independent basis, Debye-Ang):
   XX=            -27.1997   YY=            -22.0571   ZZ=            -25.2616
   XY=              0.7871   XZ=              0.0488   YZ=             -0.0161

 Normal termination of Gaussian 09 at Wed Aug 26 09:11:29 2020.
