 Gaussian 09, Revision D.01,
 Gaussian 09:  ES64L-G09RevD.01 24-Apr-2013

 --------------------
 #p B2PLYPD3/Def2QZVP
 --------------------

 --------
 acrolein
 --------
 Symbolic Z-matrix:
 Charge =  0 Multiplicity = 1

                         Standard orientation:
 ---------------------------------------------------------------------
 Center     Atomic      Atomic             Coordinates (Angstroms)
 Number     Number       Type             X           Y           Z
 ---------------------------------------------------------------------
      1          6           0        0.695609    0.326802   -0.106373
      2          8           0        1.796622   -0.077333    0.080428
      3          6           0       -0.549885   -0.482780   -0.021714
      4          6           0       -1.777967    0.155972    0.029038
      5          1           0       -0.313944   -1.620602   -0.069812
      6          1           0       -2.044406    1.273349    0.238001
      7          1           0       -2.728178   -0.439944   -0.031205
      8          1           0        0.507009    1.405903   -0.186116
 ---------------------------------------------------------------------

 SCF Done:  E(RB2PLYPD3) =  -191.593573236     A.U. after   13 cycles
 E2(B2PLYPD3) =    -0.2488099543D+00 E(B2PLYPD3) =    -0.19184238319010D+03

 The electronic state is 1-A.
 Alpha  occ. eigenvalues --  -19.72863 -10.71164 -10.67712 -10.66364  -1.20946
 Alpha  occ. eigenvalues --   -0.90987  -0.74801  -0.65862  -0.56614  -0.54585
 Alpha  occ. eigenvalues --   -0.50537  -0.47242  -0.45707  -0.33992  -0.33292
 Alpha virt. eigenvalues --   -0.02265   0.05356   0.06939   0.07931   0.09507
 Alpha virt. eigenvalues --    0.12071   0.14085   0.15368   0.17100   0.19082
 Alpha virt. eigenvalues --    0.19915   0.21323   0.24452   0.26620   0.27907

 Mulliken charges:
               1
     1  C    0.171218
     2  O   -0.334482
     3  C   -0.052609
     4  C   -0.133132
     5  H    0.101322
     6  H    0.093646
     7  H    0.094131
     8  H    0.059905
 Sum of Mulliken charges =   0.00000

 Dipole moment (field-independent basis, Debye):
    X=             -3.3725    Y=              0.6563    Z=             -0.2366  Tot=              3.4439
 Quadrupole moment (field-independent basis, Debye-Ang):
   XX=            -27.1816   YY=            -21.8463   ZZ=            -25.5474
   XY=              0.0573   XZ=             -0.7386   YZ=              0.3991

 Normal termination of Gaussian 09 at Wed Aug 26 10:34:53 2020.
