 Gaussian 09, Revision D.01,
 Gaussian 09:  ES64L-G09RevD.01 24-Apr-2013

 --------------------
 #p B2PLYPD3/Def2QZVP
 --------------------

 --------
 acrolein
 --------
 Symbolic Z-matrix:
 Charge =  0 Multiplicity = 1

                         Standard orientation:
 ---------------------------------------------------------------------
 Center     Atomic      Atomic             Coordinates (Angstroms)
 Number     Number       Type             X           Y           Z
 ---------------------------------------------------------------------
      1          6           0        0.687627    0.359096   -0.025537
      2          8           0        1.781839   -0.135907    0.018174
      3          6           0       -0.545129   -0.430299   -0.034586
      4          6           0       -1.775792    0.137833    0.012529
      5          1           0       -0.409413   -1.532890    0.034185
      6          1           0       -1.815069    1.142715   -0.028068
      7          1           0       -2.728938   -0.441924    0.073468
      8          1           0        0.498475    1.519576    0.060588
 ---------------------------------------------------------------------

 SCF Done:  E(RB2PLYPD3) =  -191.605978068     A.U. after   13 cycles
 E2(B2PLYPD3) =    -0.2480153188D+00 E(B2PLYPD3) =    -0.19185399338662D+03

 The electronic state is 1-A.
 Alpha  occ. eigenvalues --  -19.73181 -10.72321 -10.65420 -10.64900  -1.20357
 Alpha  occ. eigenvalues --   -0.92561  -0.75597  -0.66122  -0.56499  -0.56247
 Alpha  occ. eigenvalues --   -0.50587  -0.47343  -0.46743  -0.34371  -0.33834
 Alpha virt. eigenvalues --   -0.02078   0.05775   0.06888   0.08214   0.09863
 Alpha virt. eigenvalues --    0.12446   0.13761   0.15353   0.17170   0.19787
 Alpha virt. eigenvalues --    0.20248   0.21650   0.25047   0.26437   0.28815

 Mulliken charges:
               1
     1  C    0.158319
     2  O   -0.337014
     3  C   -0.033117
     4  C   -0.138485
     5  H    0.101814
     6  H    0.089949
     7  H    0.106728
     8  H    0.051806
 Sum of Mulliken charges =   0.00000

 Dipole moment (field-independent basis, Debye):
    X=             -3.4079    Y=              0.7354    Z=              0.0220  Tot=              3.4864
 Quadrupole moment (field-independent basis, Debye-Ang):
   XX=            -27.0610   YY=            -22.0384   ZZ=            -25.3259
   XY=              0.9599   XZ=             -0.2507   YZ=             -0.1183

 Normal termination of Gaussian 09 at Wed Aug 26 08:35:40 2020.
