 Gaussian 09, Revision D.01,
 Gaussian 09:  ES64L-G09RevD.01 24-Apr-2013

 --------------------
 #p B2PLYPD3/Def2QZVP
 --------------------

 --------
 acrolein
 --------
 Symbolic Z-matrix:
 Charge =  0 Multiplicity = 1

                         Standard orientation:
 ---------------------------------------------------------------------
 Center     Atomic      Atomic             Coordinates (Angstroms)
 Number     Number       Type             X           Y           Z
 ---------------------------------------------------------------------
      1          6           0       -0.652905    0.320585   -0.032574
      2          8           0       -1.810246   -0.100342    0.033392
      3          6           0        0.585042   -0.462191   -0.025857
      4          6           0        1.751495    0.158732    0.017462
      5          1           0        0.456817   -1.513286   -0.003203
      6          1           0        1.789792    1.187104    0.153772
      7          1           0        2.629403   -0.373582   -0.030638
      8          1           0       -0.495842    1.399748   -0.141248
 ---------------------------------------------------------------------

 SCF Done:  E(RB2PLYPD3) =  -191.610460067     A.U. after   13 cycles
 E2(B2PLYPD3) =    -0.2474481723D+00 E(B2PLYPD3) =    -0.19185790823920D+03

 The electronic state is 1-A.
 Alpha  occ. eigenvalues --  -19.72779 -10.71556 -10.64604 -10.64254  -1.18036
 Alpha  occ. eigenvalues --   -0.94074  -0.76488  -0.67639  -0.57382  -0.56640
 Alpha  occ. eigenvalues --   -0.50475  -0.48114  -0.45962  -0.34937  -0.33743
 Alpha virt. eigenvalues --   -0.02153   0.05853   0.07301   0.08035   0.09769
 Alpha virt. eigenvalues --    0.12921   0.13973   0.15332   0.17351   0.19491
 Alpha virt. eigenvalues --    0.20491   0.21910   0.25050   0.26645   0.28821

 Mulliken charges:
               1
     1  C    0.152318
     2  O   -0.362533
     3  C   -0.029630
     4  C   -0.125608
     5  H    0.103968
     6  H    0.090274
     7  H    0.103764
     8  H    0.067447
 Sum of Mulliken charges =   0.00000

 Dipole moment (field-independent basis, Debye):
    X=              3.7182    Y=              0.6716    Z=             -0.0577  Tot=              3.7788
 Quadrupole moment (field-independent basis, Debye-Ang):
   XX=            -27.6344   YY=            -21.7811   ZZ=            -25.0271
   XY=             -0.7608   XZ=              0.3377   YZ=              0.1462

 Normal termination of Gaussian 09 at Wed Aug 26 09:32:42 2020.
