 Gaussian 09, Revision D.01,
 Gaussian 09:  ES64L-G09RevD.01 24-Apr-2013

 --------------------
 #p B2PLYPD3/Def2QZVP
 --------------------

 --------
 acrolein
 --------
 Symbolic Z-matrix:
 Charge =  0 Multiplicity = 1

                         Standard orientation:
 ---------------------------------------------------------------------
 Center     Atomic      Atomic             Coordinates (Angstroms)
 Number     Number       Type             X           Y           Z
 ---------------------------------------------------------------------
      1          6           0        0.669063    0.322657   -0.000170
      2          8           0        1.802142   -0.097494    0.008418
      3          6           0       -0.565029   -0.474407   -0.020849
      4          6           0       -1.758001    0.151145   -0.008263
      5          1           0       -0.442208   -1.492805   -0.016310
      6          1           0       -1.872190    1.261242   -0.040845
      7          1           0       -2.700039   -0.393786    0.139219
      8          1           0        0.521097    1.408926    0.026285
 ---------------------------------------------------------------------

 SCF Done:  E(RB2PLYPD3) =  -191.611980034     A.U. after   13 cycles
 E2(B2PLYPD3) =    -0.2472437573D+00 E(B2PLYPD3) =    -0.19185922379144D+03

 The electronic state is 1-A.
 Alpha  occ. eigenvalues --  -19.72639 -10.71245 -10.66450 -10.64338  -1.19504
 Alpha  occ. eigenvalues --   -0.92905  -0.75345  -0.67632  -0.56538  -0.56238
 Alpha  occ. eigenvalues --   -0.50667  -0.47342  -0.46645  -0.34582  -0.33605
 Alpha virt. eigenvalues --   -0.02001   0.05614   0.07415   0.08204   0.09616
 Alpha virt. eigenvalues --    0.12467   0.14043   0.15356   0.17825   0.19422
 Alpha virt. eigenvalues --    0.19949   0.21467   0.25083   0.26568   0.28682

 Mulliken charges:
               1
     1  C    0.155997
     2  O   -0.349878
     3  C   -0.042096
     4  C   -0.124676
     5  H    0.111593
     6  H    0.086900
     7  H    0.097758
     8  H    0.064402
 Sum of Mulliken charges =   0.00000

 Dipole moment (field-independent basis, Debye):
    X=             -3.5862    Y=              0.6622    Z=              0.0616  Tot=              3.6473
 Quadrupole moment (field-independent basis, Debye-Ang):
   XX=            -27.4189   YY=            -21.8027   ZZ=            -25.2089
   XY=              0.6472   XZ=             -0.3180   YZ=             -0.0997

 Normal termination of Gaussian 09 at Wed Aug 26 09:22:49 2020.
