 Gaussian 09, Revision D.01,
 Gaussian 09:  ES64L-G09RevD.01 24-Apr-2013

 --------------------
 #p B2PLYPD3/Def2QZVP
 --------------------

 --------
 acrolein
 --------
 Symbolic Z-matrix:
 Charge =  0 Multiplicity = 1

                         Standard orientation:
 ---------------------------------------------------------------------
 Center     Atomic      Atomic             Coordinates (Angstroms)
 Number     Number       Type             X           Y           Z
 ---------------------------------------------------------------------
      1          6           0        0.655467    0.333343    0.031200
      2          8           0        1.790402   -0.117067   -0.033383
      3          6           0       -0.574328   -0.451101   -0.004353
      4          6           0       -1.740215    0.149844   -0.010054
      5          1           0       -0.520986   -1.539192    0.137813
      6          1           0       -1.761274    1.246061   -0.083542
      7          1           0       -2.605770   -0.393625   -0.032623
      8          1           0        0.519261    1.430783    0.144654
 ---------------------------------------------------------------------

 SCF Done:  E(RB2PLYPD3) =  -191.611594099     A.U. after   13 cycles
 E2(B2PLYPD3) =    -0.2472786949D+00 E(B2PLYPD3) =    -0.19185887279402D+03

 The electronic state is 1-A.
 Alpha  occ. eigenvalues --  -19.72760 -10.71700 -10.64705 -10.64225  -1.18734
 Alpha  occ. eigenvalues --   -0.93992  -0.75910  -0.66680  -0.57383  -0.56312
 Alpha  occ. eigenvalues --   -0.50512  -0.47192  -0.46055  -0.35137  -0.33839
 Alpha virt. eigenvalues --   -0.01726   0.05897   0.06854   0.08090   0.09737
 Alpha virt. eigenvalues --    0.12746   0.14042   0.15064   0.17457   0.19564
 Alpha virt. eigenvalues --    0.20146   0.21830   0.25097   0.26672   0.29094

 Mulliken charges:
               1
     1  C    0.148884
     2  O   -0.351622
     3  C   -0.027839
     4  C   -0.123405
     5  H    0.097526
     6  H    0.080737
     7  H    0.105634
     8  H    0.070086
 Sum of Mulliken charges =   0.00000

 Dipole moment (field-independent basis, Debye):
    X=             -3.5850    Y=              0.7071    Z=              0.1880  Tot=              3.6589
 Quadrupole moment (field-independent basis, Debye-Ang):
   XX=            -27.6429   YY=            -21.7281   ZZ=            -25.0830
   XY=              1.1168   XZ=              0.2812   YZ=             -0.2326

 Normal termination of Gaussian 09 at Wed Aug 26 08:48:06 2020.
