 Gaussian 09, Revision D.01,
 Gaussian 09:  ES64L-G09RevD.01 24-Apr-2013

 --------------------
 #p B2PLYPD3/Def2QZVP
 --------------------

 --------
 acrolein
 --------
 Symbolic Z-matrix:
 Charge =  0 Multiplicity = 1

                         Standard orientation:
 ---------------------------------------------------------------------
 Center     Atomic      Atomic             Coordinates (Angstroms)
 Number     Number       Type             X           Y           Z
 ---------------------------------------------------------------------
      1          6           0        0.686394    0.348276   -0.029247
      2          8           0        1.786631   -0.122032    0.021812
      3          6           0       -0.538406   -0.443847   -0.020663
      4          6           0       -1.765477    0.138204   -0.004594
      5          1           0       -0.432982   -1.530019    0.024669
      6          1           0       -1.914075    1.209261    0.079509
      7          1           0       -2.765101   -0.439796    0.051440
      8          1           0        0.524042    1.481015   -0.003097
 ---------------------------------------------------------------------

 SCF Done:  E(RB2PLYPD3) =  -191.609916529     A.U. after   13 cycles
 E2(B2PLYPD3) =    -0.2478689183D+00 E(B2PLYPD3) =    -0.19185778544706D+03

 The electronic state is 1-A.
 Alpha  occ. eigenvalues --  -19.72890 -10.71778 -10.66721 -10.64938  -1.20432
 Alpha  occ. eigenvalues --   -0.92234  -0.75072  -0.66389  -0.56745  -0.55596
 Alpha  occ. eigenvalues --   -0.50258  -0.47350  -0.46245  -0.34359  -0.33781
 Alpha virt. eigenvalues --   -0.02071   0.05528   0.07041   0.08335   0.09634
 Alpha virt. eigenvalues --    0.12231   0.14017   0.15414   0.17540   0.19756
 Alpha virt. eigenvalues --    0.19887   0.21188   0.25318   0.26162   0.28491

 Mulliken charges:
               1
     1  C    0.159469
     2  O   -0.338297
     3  C   -0.041919
     4  C   -0.126985
     5  H    0.107742
     6  H    0.085383
     7  H    0.094083
     8  H    0.060525
 Sum of Mulliken charges =   0.00000

 Dipole moment (field-independent basis, Debye):
    X=             -3.4487    Y=              0.7314    Z=              0.0529  Tot=              3.5258
 Quadrupole moment (field-independent basis, Debye-Ang):
   XX=            -27.0877   YY=            -21.9607   ZZ=            -25.3805
   XY=              0.7715   XZ=             -0.3815   YZ=              0.0296

 Normal termination of Gaussian 09 at Wed Aug 26 09:59:26 2020.
