 Gaussian 09, Revision D.01,
 Gaussian 09:  ES64L-G09RevD.01 24-Apr-2013

 --------------------
 #p B2PLYPD3/Def2QZVP
 --------------------

 --------
 acrolein
 --------
 Symbolic Z-matrix:
 Charge =  0 Multiplicity = 1

                         Standard orientation:
 ---------------------------------------------------------------------
 Center     Atomic      Atomic             Coordinates (Angstroms)
 Number     Number       Type             X           Y           Z
 ---------------------------------------------------------------------
      1          6           0       -0.659447    0.329091    0.039747
      2          8           0       -1.797532   -0.098483   -0.038552
      3          6           0        0.559705   -0.466802    0.067402
      4          6           0        1.761575    0.160976   -0.039100
      5          1           0        0.392417   -1.631380   -0.045737
      6          1           0        1.833925    1.241610   -0.007187
      7          1           0        2.680693   -0.430404   -0.063696
      8          1           0       -0.497782    1.468446    0.016742
 ---------------------------------------------------------------------

 SCF Done:  E(RB2PLYPD3) =  -191.605546839     A.U. after   13 cycles
 E2(B2PLYPD3) =    -0.2493659639D+00 E(B2PLYPD3) =    -0.19185491280313D+03

 The electronic state is 1-A.
 Alpha  occ. eigenvalues --  -19.72762 -10.71916 -10.66507 -10.65992  -1.18979
 Alpha  occ. eigenvalues --   -0.92648  -0.75517  -0.65411  -0.56117  -0.55938
 Alpha  occ. eigenvalues --   -0.49819  -0.46709  -0.46355  -0.34524  -0.33610
 Alpha virt. eigenvalues --   -0.02374   0.05686   0.06458   0.08023   0.09699
 Alpha virt. eigenvalues --    0.12416   0.13687   0.15202   0.16874   0.19917
 Alpha virt. eigenvalues --    0.19927   0.21461   0.24597   0.26509   0.28715

 Mulliken charges:
               1
     1  C    0.159084
     2  O   -0.350753
     3  C   -0.034649
     4  C   -0.125972
     5  H    0.100101
     6  H    0.094320
     7  H    0.106382
     8  H    0.051488
 Sum of Mulliken charges =   0.00000

 Dipole moment (field-independent basis, Debye):
    X=              3.6406    Y=              0.6491    Z=              0.0267  Tot=              3.6981
 Quadrupole moment (field-independent basis, Debye-Ang):
   XX=            -27.5379   YY=            -21.7463   ZZ=            -25.4726
   XY=             -0.6396   XZ=             -0.3841   YZ=              0.1368

 Normal termination of Gaussian 09 at Wed Aug 26 09:14:50 2020.
