 Gaussian 09, Revision D.01,
 Gaussian 09:  ES64L-G09RevD.01 24-Apr-2013

 --------------------
 #p B2PLYPD3/Def2QZVP
 --------------------

 --------
 acrolein
 --------
 Symbolic Z-matrix:
 Charge =  0 Multiplicity = 1

                         Standard orientation:
 ---------------------------------------------------------------------
 Center     Atomic      Atomic             Coordinates (Angstroms)
 Number     Number       Type             X           Y           Z
 ---------------------------------------------------------------------
      1          6           0       -0.670962    0.352746   -0.029852
      2          8           0       -1.788197   -0.128818    0.024853
      3          6           0        0.564597   -0.438673   -0.025236
      4          6           0        1.744523    0.142448    0.015605
      5          1           0        0.463197   -1.476387   -0.018347
      6          1           0        1.827551    1.188894    0.012525
      7          1           0        2.708591   -0.434796    0.051393
      8          1           0       -0.522707    1.413709   -0.007496
 ---------------------------------------------------------------------

 SCF Done:  E(RB2PLYPD3) =  -191.613593225     A.U. after   12 cycles
 E2(B2PLYPD3) =    -0.2466397991D+00 E(B2PLYPD3) =    -0.19186023302438D+03

 The electronic state is 1-A.
 Alpha  occ. eigenvalues --  -19.72785 -10.71309 -10.65232 -10.63663  -1.19081
 Alpha  occ. eigenvalues --   -0.93574  -0.75549  -0.68108  -0.57127  -0.56205
 Alpha  occ. eigenvalues --   -0.50652  -0.46972  -0.46590  -0.34934  -0.33942
 Alpha virt. eigenvalues --   -0.01652   0.05697   0.07352   0.08183   0.09749
 Alpha virt. eigenvalues --    0.12594   0.14018   0.15349   0.17834   0.19898
 Alpha virt. eigenvalues --    0.19972   0.21415   0.25614   0.26509   0.28816

 Mulliken charges:
               1
     1  C    0.149982
     2  O   -0.354619
     3  C   -0.034380
     4  C   -0.131230
     5  H    0.109320
     6  H    0.085110
     7  H    0.096511
     8  H    0.079306
 Sum of Mulliken charges =   0.00000

 Dipole moment (field-independent basis, Debye):
    X=              3.5020    Y=              0.8275    Z=             -0.0549  Tot=              3.5988
 Quadrupole moment (field-independent basis, Debye-Ang):
   XX=            -27.4685   YY=            -21.7446   ZZ=            -25.0829
   XY=             -1.0070   XZ=              0.2505   YZ=             -0.0032

 Normal termination of Gaussian 09 at Wed Aug 26 19:47:13 2020.
