 Gaussian 09, Revision D.01,
 Gaussian 09:  ES64L-G09RevD.01 24-Apr-2013

 --------------------
 #p B2PLYPD3/Def2QZVP
 --------------------

 --------
 acrolein
 --------
 Symbolic Z-matrix:
 Charge =  0 Multiplicity = 1

                         Standard orientation:
 ---------------------------------------------------------------------
 Center     Atomic      Atomic             Coordinates (Angstroms)
 Number     Number       Type             X           Y           Z
 ---------------------------------------------------------------------
      1          6           0       -0.675656    0.353678   -0.008338
      2          8           0       -1.793131   -0.128270    0.015888
      3          6           0        0.565595   -0.445746   -0.026581
      4          6           0        1.757649    0.145075    0.006227
      5          1           0        0.453050   -1.508990   -0.021096
      6          1           0        1.810025    1.181554   -0.012969
      7          1           0        2.674682   -0.438729    0.091822
      8          1           0       -0.478241    1.474284   -0.012711
 ---------------------------------------------------------------------

 SCF Done:  E(RB2PLYPD3) =  -191.614183637     A.U. after   12 cycles
 E2(B2PLYPD3) =    -0.2475477814D+00 E(B2PLYPD3) =    -0.19186173141810D+03

 The electronic state is 1-A.
 Alpha  occ. eigenvalues --  -19.73088 -10.72154 -10.65037 -10.64220  -1.19259
 Alpha  occ. eigenvalues --   -0.93210  -0.75454  -0.67055  -0.56598  -0.56289
 Alpha  occ. eigenvalues --   -0.50547  -0.47430  -0.46632  -0.34722  -0.33890
 Alpha virt. eigenvalues --   -0.01817   0.05792   0.07131   0.08069   0.09826
 Alpha virt. eigenvalues --    0.12636   0.13765   0.15350   0.17435   0.19886
 Alpha virt. eigenvalues --    0.20080   0.21635   0.25406   0.26439   0.28695

 Mulliken charges:
               1
     1  C    0.155056
     2  O   -0.348929
     3  C   -0.031947
     4  C   -0.135397
     5  H    0.105208
     6  H    0.088041
     7  H    0.102978
     8  H    0.064991
 Sum of Mulliken charges =   0.00000

 Dipole moment (field-independent basis, Debye):
    X=              3.4872    Y=              0.7494    Z=              0.0029  Tot=              3.5669
 Quadrupole moment (field-independent basis, Debye-Ang):
   XX=            -27.4958   YY=            -21.8011   ZZ=            -25.2031
   XY=             -0.9528   XZ=              0.2797   YZ=             -0.0592

 Normal termination of Gaussian 09 at Wed Aug 26 09:20:44 2020.
