 Gaussian 09, Revision D.01,
 Gaussian 09:  ES64L-G09RevD.01 24-Apr-2013

 --------------------
 #p B2PLYPD3/Def2QZVP
 --------------------

 --------
 acrolein
 --------
 Symbolic Z-matrix:
 Charge =  0 Multiplicity = 1

                         Standard orientation:
 ---------------------------------------------------------------------
 Center     Atomic      Atomic             Coordinates (Angstroms)
 Number     Number       Type             X           Y           Z
 ---------------------------------------------------------------------
      1          6           0        0.685283    0.339406   -0.049569
      2          8           0        1.791631   -0.107043    0.042730
      3          6           0       -0.576265   -0.463804   -0.015868
      4          6           0       -1.759164    0.158693    0.013769
      5          1           0       -0.450704   -1.585850   -0.051556
      6          1           0       -1.879340    1.228683    0.142972
      7          1           0       -2.637500   -0.398666    0.002123
      8          1           0        0.535373    1.406410   -0.125364
 ---------------------------------------------------------------------

 SCF Done:  E(RB2PLYPD3) =  -191.613029134     A.U. after   13 cycles
 E2(B2PLYPD3) =    -0.2464228585D+00 E(B2PLYPD3) =    -0.19185945199245D+03

 The electronic state is 1-A.
 Alpha  occ. eigenvalues --  -19.72804 -10.71258 -10.65081 -10.64910  -1.20335
 Alpha  occ. eigenvalues --   -0.92500  -0.75435  -0.66775  -0.56719  -0.56401
 Alpha  occ. eigenvalues --   -0.50903  -0.47012  -0.46869  -0.34604  -0.33650
 Alpha virt. eigenvalues --   -0.01443   0.05872   0.07140   0.08099   0.09671
 Alpha virt. eigenvalues --    0.12747   0.14210   0.15371   0.17245   0.19551
 Alpha virt. eigenvalues --    0.20148   0.21934   0.25027   0.26624   0.28314

 Mulliken charges:
               1
     1  C    0.159026
     2  O   -0.339052
     3  C   -0.048085
     4  C   -0.132655
     5  H    0.098990
     6  H    0.087058
     7  H    0.101720
     8  H    0.072999
 Sum of Mulliken charges =   0.00000

 Dipole moment (field-independent basis, Debye):
    X=             -3.3739    Y=              0.7447    Z=             -0.1139  Tot=              3.4570
 Quadrupole moment (field-independent basis, Debye-Ang):
   XX=            -27.4471   YY=            -21.6540   ZZ=            -25.2016
   XY=              0.7388   XZ=             -0.4321   YZ=              0.2082

 Normal termination of Gaussian 09 at Wed Aug 26 20:23:10 2020.
