 Gaussian 09, Revision D.01,
 Gaussian 09:  ES64L-G09RevD.01 24-Apr-2013

 --------------------
 #p B2PLYPD3/Def2QZVP
 --------------------

 --------
 acrolein
 --------
 Symbolic Z-matrix:
 Charge =  0 Multiplicity = 1

                         Standard orientation:
 ---------------------------------------------------------------------
 Center     Atomic      Atomic             Coordinates (Angstroms)
 Number     Number       Type             X           Y           Z
 ---------------------------------------------------------------------
      1          6           0        0.706180    0.405492   -0.052997
      2          8           0        1.756453   -0.171742    0.057546
      3          6           0       -0.547823   -0.418679   -0.061994
      4          6           0       -1.795286    0.124016    0.043554
      5          1           0       -0.394166   -1.503414   -0.023938
      6          1           0       -1.854969    1.122486    0.177830
      7          1           0       -2.591146   -0.462095   -0.035931
      8          1           0        0.610232    1.551985   -0.149706
 ---------------------------------------------------------------------

 SCF Done:  E(RB2PLYPD3) =  -191.599916285     A.U. after   13 cycles
 E2(B2PLYPD3) =    -0.2473466236D+00 E(B2PLYPD3) =    -0.19184726290901D+03

 The electronic state is 1-A.
 Alpha  occ. eigenvalues --  -19.73081 -10.72366 -10.64732 -10.63631  -1.20299
 Alpha  occ. eigenvalues --   -0.91905  -0.75661  -0.66540  -0.57672  -0.56243
 Alpha  occ. eigenvalues --   -0.51010  -0.47380  -0.46934  -0.34157  -0.33400
 Alpha virt. eigenvalues --   -0.01772   0.05984   0.07179   0.07820   0.09970
 Alpha virt. eigenvalues --    0.12450   0.13718   0.15650   0.17153   0.19475
 Alpha virt. eigenvalues --    0.20221   0.22418   0.25366   0.26079   0.28948

 Mulliken charges:
               1
     1  C    0.159134
     2  O   -0.337381
     3  C   -0.061816
     4  C   -0.140167
     5  H    0.107833
     6  H    0.084994
     7  H    0.109155
     8  H    0.078248
 Sum of Mulliken charges =   0.00000

 Dipole moment (field-independent basis, Debye):
    X=             -3.1273    Y=              0.9543    Z=             -0.1204  Tot=              3.2719
 Quadrupole moment (field-independent basis, Debye-Ang):
   XX=            -27.2990   YY=            -21.5726   ZZ=            -25.2554
   XY=              1.3302   XZ=             -0.4826   YZ=              0.1573

 Normal termination of Gaussian 09 at Wed Aug 26 14:08:08 2020.
