 Gaussian 09, Revision D.01,
 Gaussian 09:  ES64L-G09RevD.01 24-Apr-2013

 --------------------
 #p B2PLYPD3/Def2QZVP
 --------------------

 --------
 acrolein
 --------
 Symbolic Z-matrix:
 Charge =  0 Multiplicity = 1

                         Standard orientation:
 ---------------------------------------------------------------------
 Center     Atomic      Atomic             Coordinates (Angstroms)
 Number     Number       Type             X           Y           Z
 ---------------------------------------------------------------------
      1          6           0       -0.675951    0.348158    0.021265
      2          8           0       -1.782538   -0.111282   -0.021806
      3          6           0        0.560937   -0.458287    0.019173
      4          6           0        1.754702    0.145113   -0.023124
      5          1           0        0.437476   -1.566161    0.011366
      6          1           0        1.884207    1.259031   -0.053986
      7          1           0        2.637017   -0.415172    0.035188
      8          1           0       -0.536522    1.402650    0.077997
 ---------------------------------------------------------------------

 SCF Done:  E(RB2PLYPD3) =  -191.613571990     A.U. after   12 cycles
 E2(B2PLYPD3) =    -0.2464805805D+00 E(B2PLYPD3) =    -0.19186005257094D+03

 The electronic state is 1-A.
 Alpha  occ. eigenvalues --  -19.72604 -10.70925 -10.65466 -10.64757  -1.20119
 Alpha  occ. eigenvalues --   -0.92602  -0.75528  -0.67021  -0.56693  -0.56292
 Alpha  occ. eigenvalues --   -0.50775  -0.46986  -0.46620  -0.34570  -0.33736
 Alpha virt. eigenvalues --   -0.01536   0.05761   0.07159   0.08255   0.09663
 Alpha virt. eigenvalues --    0.12562   0.14174   0.15434   0.17419   0.19405
 Alpha virt. eigenvalues --    0.20026   0.21850   0.25432   0.26568   0.28557

 Mulliken charges:
               1
     1  C    0.158721
     2  O   -0.344313
     3  C   -0.048174
     4  C   -0.130813
     5  H    0.102634
     6  H    0.082845
     7  H    0.103114
     8  H    0.075987
 Sum of Mulliken charges =   0.00000

 Dipole moment (field-independent basis, Debye):
    X=              3.4192    Y=              0.7669    Z=              0.0947  Tot=              3.5054
 Quadrupole moment (field-independent basis, Debye-Ang):
   XX=            -27.4515   YY=            -21.5979   ZZ=            -25.2155
   XY=             -0.8211   XZ=             -0.1085   YZ=             -0.0619

 Normal termination of Gaussian 09 at Wed Aug 26 15:13:00 2020.
