 Gaussian 09, Revision D.01,
 Gaussian 09:  ES64L-G09RevD.01 24-Apr-2013

 --------------------
 #p B2PLYPD3/Def2QZVP
 --------------------

 --------
 acrolein
 --------
 Symbolic Z-matrix:
 Charge =  0 Multiplicity = 1

                         Standard orientation:
 ---------------------------------------------------------------------
 Center     Atomic      Atomic             Coordinates (Angstroms)
 Number     Number       Type             X           Y           Z
 ---------------------------------------------------------------------
      1          6           0        0.681692    0.366141    0.024486
      2          8           0        1.789899   -0.130238   -0.028537
      3          6           0       -0.559058   -0.432051    0.018384
      4          6           0       -1.762715    0.140810   -0.039220
      5          1           0       -0.437671   -1.567572    0.073590
      6          1           0       -1.828543    1.158741   -0.029454
      7          1           0       -2.702095   -0.422907    0.045666
      8          1           0        0.489604    1.424249    0.116600
 ---------------------------------------------------------------------

 SCF Done:  E(RB2PLYPD3) =  -191.609839117     A.U. after   13 cycles
 E2(B2PLYPD3) =    -0.2474806332D+00 E(B2PLYPD3) =    -0.19185731974979D+03

 The electronic state is 1-A.
 Alpha  occ. eigenvalues --  -19.73051 -10.71670 -10.64937 -10.64811  -1.19374
 Alpha  occ. eigenvalues --   -0.92910  -0.75887  -0.67055  -0.56948  -0.56138
 Alpha  occ. eigenvalues --   -0.50781  -0.46806  -0.46116  -0.34592  -0.34093
 Alpha virt. eigenvalues --   -0.01898   0.05787   0.06974   0.08132   0.09770
 Alpha virt. eigenvalues --    0.12661   0.14114   0.15376   0.17187   0.19706
 Alpha virt. eigenvalues --    0.20058   0.21881   0.25394   0.26603   0.28637

 Mulliken charges:
               1
     1  C    0.153807
     2  O   -0.347985
     3  C   -0.033299
     4  C   -0.134428
     5  H    0.097514
     6  H    0.082196
     7  H    0.101921
     8  H    0.080274
 Sum of Mulliken charges =   0.00000

 Dipole moment (field-independent basis, Debye):
    X=             -3.4359    Y=              0.8778    Z=              0.2122  Tot=              3.5526
 Quadrupole moment (field-independent basis, Debye-Ang):
   XX=            -27.4258   YY=            -21.7739   ZZ=            -25.2182
   XY=              0.9402   XZ=              0.0286   YZ=             -0.0985

 Normal termination of Gaussian 09 at Wed Aug 26 09:09:45 2020.
