 Gaussian 09, Revision D.01,
 Gaussian 09:  ES64L-G09RevD.01 24-Apr-2013

 --------------------
 #p B2PLYPD3/Def2QZVP
 --------------------

 --------
 acrolein
 --------
 Symbolic Z-matrix:
 Charge =  0 Multiplicity = 1

                         Standard orientation:
 ---------------------------------------------------------------------
 Center     Atomic      Atomic             Coordinates (Angstroms)
 Number     Number       Type             X           Y           Z
 ---------------------------------------------------------------------
      1          6           0       -0.679488    0.361323    0.012131
      2          8           0       -1.768586   -0.134531   -0.051224
      3          6           0        0.523001   -0.401661    0.026434
      4          6           0        1.775378    0.125278   -0.013279
      5          1           0        0.357314   -1.423790    0.161763
      6          1           0        1.880403    1.134437   -0.206520
      7          1           0        2.802640   -0.472764   -0.030238
      8          1           0       -0.605015    1.328727    0.333074
 ---------------------------------------------------------------------

 SCF Done:  E(RB2PLYPD3) =  -191.593840576     A.U. after   13 cycles
 E2(B2PLYPD3) =    -0.2468217831D+00 E(B2PLYPD3) =    -0.19184066235863D+03

 The electronic state is 1-A.
 Alpha  occ. eigenvalues --  -19.72455 -10.69999 -10.66429 -10.63941  -1.20312
 Alpha  occ. eigenvalues --   -0.92808  -0.76395  -0.68611  -0.57845  -0.55600
 Alpha  occ. eigenvalues --   -0.50976  -0.47224  -0.46032  -0.34380  -0.33737
 Alpha virt. eigenvalues --   -0.02362   0.05482   0.07464   0.08152   0.09696
 Alpha virt. eigenvalues --    0.12375   0.14217   0.15222   0.18212   0.18566
 Alpha virt. eigenvalues --    0.20374   0.21044   0.24701   0.27504   0.28900

 Mulliken charges:
               1
     1  C    0.155819
     2  O   -0.348667
     3  C   -0.053460
     4  C   -0.132386
     5  H    0.114120
     6  H    0.087723
     7  H    0.095159
     8  H    0.081692
 Sum of Mulliken charges =   0.00000

 Dipole moment (field-independent basis, Debye):
    X=              3.4097    Y=              0.8769    Z=              0.1858  Tot=              3.5255
 Quadrupole moment (field-independent basis, Debye-Ang):
   XX=            -26.9535   YY=            -22.0658   ZZ=            -25.0159
   XY=             -1.0153   XZ=             -0.6614   YZ=             -0.3374

 Normal termination of Gaussian 09 at Wed Aug 26 11:39:26 2020.
