 Gaussian 09, Revision D.01,
 Gaussian 09:  ES64L-G09RevD.01 24-Apr-2013

 --------------------
 #p B2PLYPD3/Def2QZVP
 --------------------

 --------
 acrolein
 --------
 Symbolic Z-matrix:
 Charge =  0 Multiplicity = 1

                         Standard orientation:
 ---------------------------------------------------------------------
 Center     Atomic      Atomic             Coordinates (Angstroms)
 Number     Number       Type             X           Y           Z
 ---------------------------------------------------------------------
      1          6           0        0.663558    0.340815    0.008769
      2          8           0        1.803321   -0.100122   -0.014314
      3          6           0       -0.583270   -0.464684    0.022755
      4          6           0       -1.752449    0.145229   -0.027839
      5          1           0       -0.434721   -1.554826    0.060147
      6          1           0       -1.924987    1.297415    0.092598
      7          1           0       -2.547239   -0.435339   -0.063349
      8          1           0        0.513347    1.365571    0.003007
 ---------------------------------------------------------------------

 SCF Done:  E(RB2PLYPD3) =  -191.599029625     A.U. after   13 cycles
 E2(B2PLYPD3) =    -0.2471525570D+00 E(B2PLYPD3) =    -0.19184618218169D+03

 The electronic state is 1-A.
 Alpha  occ. eigenvalues --  -19.72646 -10.70879 -10.65128 -10.64616  -1.18623
 Alpha  occ. eigenvalues --   -0.93430  -0.76331  -0.67306  -0.57095  -0.55997
 Alpha  occ. eigenvalues --   -0.50699  -0.46961  -0.46043  -0.34927  -0.33730
 Alpha virt. eigenvalues --   -0.01667   0.05604   0.07142   0.08048   0.09603
 Alpha virt. eigenvalues --    0.12583   0.14084   0.15281   0.17449   0.19285
 Alpha virt. eigenvalues --    0.20068   0.22316   0.25053   0.26849   0.28089

 Mulliken charges:
               1
     1  C    0.162056
     2  O   -0.359420
     3  C   -0.048933
     4  C   -0.128572
     5  H    0.101907
     6  H    0.087897
     7  H    0.104468
     8  H    0.080597
 Sum of Mulliken charges =   0.00000

 Dipole moment (field-independent basis, Debye):
    X=             -3.5814    Y=              0.7401    Z=              0.1225  Tot=              3.6591
 Quadrupole moment (field-independent basis, Debye-Ang):
   XX=            -27.8444   YY=            -21.4470   ZZ=            -25.1307
   XY=              0.7020   XZ=              0.0309   YZ=              0.0891

 Normal termination of Gaussian 09 at Wed Aug 26 10:26:10 2020.
