 Gaussian 09, Revision D.01,
 Gaussian 09:  ES64L-G09RevD.01 24-Apr-2013

 --------------------
 #p B2PLYPD3/Def2QZVP
 --------------------

 --------
 acrolein
 --------
 Symbolic Z-matrix:
 Charge =  0 Multiplicity = 1

                         Standard orientation:
 ---------------------------------------------------------------------
 Center     Atomic      Atomic             Coordinates (Angstroms)
 Number     Number       Type             X           Y           Z
 ---------------------------------------------------------------------
      1          6           0        0.646557    0.318352    0.035471
      2          8           0        1.805802   -0.098268   -0.040308
      3          6           0       -0.566292   -0.451317    0.012698
      4          6           0       -1.741257    0.145606   -0.039759
      5          1           0       -0.459379   -1.584832    0.143516
      6          1           0       -1.832020    1.242271   -0.030807
      7          1           0       -2.653197   -0.395066   -0.002574
      8          1           0        0.464137    1.447925    0.161874
 ---------------------------------------------------------------------

 SCF Done:  E(RB2PLYPD3) =  -191.608580489     A.U. after   12 cycles
 E2(B2PLYPD3) =    -0.2488828969D+00 E(B2PLYPD3) =    -0.19185746338619D+03

 The electronic state is 1-A.
 Alpha  occ. eigenvalues --  -19.72899 -10.72059 -10.65730 -10.65044  -1.18084
 Alpha  occ. eigenvalues --   -0.94022  -0.76253  -0.65741  -0.56950  -0.55965
 Alpha  occ. eigenvalues --   -0.50227  -0.46859  -0.45640  -0.35145  -0.33787
 Alpha virt. eigenvalues --   -0.02326   0.05697   0.06443   0.08368   0.09664
 Alpha virt. eigenvalues --    0.12624   0.14041   0.15069   0.17011   0.19620
 Alpha virt. eigenvalues --    0.20149   0.21684   0.25173   0.26572   0.28798

 Mulliken charges:
               1
     1  C    0.155474
     2  O   -0.357356
     3  C   -0.018396
     4  C   -0.119371
     5  H    0.095331
     6  H    0.084594
     7  H    0.105208
     8  H    0.054516
 Sum of Mulliken charges =   0.00000

 Dipole moment (field-independent basis, Debye):
    X=             -3.7801    Y=              0.6187    Z=              0.2780  Tot=              3.8404
 Quadrupole moment (field-independent basis, Debye-Ang):
   XX=            -27.5165   YY=            -21.9068   ZZ=            -25.2341
   XY=              0.6694   XZ=              0.1687   YZ=             -0.1833

 Normal termination of Gaussian 09 at Wed Aug 26 09:37:08 2020.
