 Gaussian 09, Revision D.01,
 Gaussian 09:  ES64L-G09RevD.01 24-Apr-2013

 --------------------
 #p B2PLYPD3/Def2QZVP
 --------------------

 --------
 acrolein
 --------
 Symbolic Z-matrix:
 Charge =  0 Multiplicity = 1

                         Standard orientation:
 ---------------------------------------------------------------------
 Center     Atomic      Atomic             Coordinates (Angstroms)
 Number     Number       Type             X           Y           Z
 ---------------------------------------------------------------------
      1          6           0       -0.660559    0.350291   -0.069594
      2          8           0       -1.817752   -0.108186    0.070697
      3          6           0        0.603737   -0.465142   -0.065604
      4          6           0        1.758712    0.142114    0.025534
      5          1           0        0.450869   -1.509712   -0.139619
      6          1           0        1.900028    1.314393    0.018232
      7          1           0        2.477818   -0.460187    0.287394
      8          1           0       -0.498039    1.357413   -0.073597
 ---------------------------------------------------------------------

 SCF Done:  E(RB2PLYPD3) =  -191.585482294     A.U. after   14 cycles
 E2(B2PLYPD3) =    -0.2486356960D+00 E(B2PLYPD3) =    -0.19183411798997D+03

 The electronic state is 1-A.
 Alpha  occ. eigenvalues --  -19.72903 -10.71381 -10.64927 -10.64326  -1.16966
 Alpha  occ. eigenvalues --   -0.93979  -0.76597  -0.67919  -0.57426  -0.55577
 Alpha  occ. eigenvalues --   -0.50490  -0.47497  -0.45070  -0.35008  -0.33760
 Alpha virt. eigenvalues --   -0.01915   0.05546   0.07251   0.07462   0.09603
 Alpha virt. eigenvalues --    0.12445   0.13665   0.15148   0.17812   0.19052
 Alpha virt. eigenvalues --    0.19829   0.22430   0.24719   0.27129   0.28223

 Mulliken charges:
               1
     1  C    0.160203
     2  O   -0.372520
     3  C   -0.046473
     4  C   -0.127765
     5  H    0.106413
     6  H    0.085613
     7  H    0.104928
     8  H    0.089601
 Sum of Mulliken charges =   0.00000

 Dipole moment (field-independent basis, Debye):
    X=              3.6202    Y=              0.7960    Z=             -0.1338  Tot=              3.7091
 Quadrupole moment (field-independent basis, Debye-Ang):
   XX=            -28.4512   YY=            -21.3071   ZZ=            -25.0437
   XY=             -0.7727   XZ=              0.9766   YZ=             -0.0413

 Normal termination of Gaussian 09 at Wed Aug 26 13:40:25 2020.
