 Gaussian 09, Revision D.01,
 Gaussian 09:  ES64L-G09RevD.01 24-Apr-2013

 --------------------
 #p B2PLYPD3/Def2QZVP
 --------------------

 --------
 acrolein
 --------
 Symbolic Z-matrix:
 Charge =  0 Multiplicity = 1

                         Standard orientation:
 ---------------------------------------------------------------------
 Center     Atomic      Atomic             Coordinates (Angstroms)
 Number     Number       Type             X           Y           Z
 ---------------------------------------------------------------------
      1          6           0        0.687964    0.374394   -0.039187
      2          8           0        1.764860   -0.137758    0.027918
      3          6           0       -0.537290   -0.435779   -0.000750
      4          6           0       -1.763435    0.131173   -0.021168
      5          1           0       -0.396832   -1.606231   -0.025544
      6          1           0       -1.822982    1.193578    0.165354
      7          1           0       -2.662012   -0.464092    0.054499
      8          1           0        0.439512    1.560078   -0.051026
 ---------------------------------------------------------------------

 SCF Done:  E(RB2PLYPD3) =  -191.600790384     A.U. after   13 cycles
 E2(B2PLYPD3) =    -0.2487701385D+00 E(B2PLYPD3) =    -0.19184956052281D+03

 The electronic state is 1-A.
 Alpha  occ. eigenvalues --  -19.73412 -10.72665 -10.65494 -10.65349  -1.21014
 Alpha  occ. eigenvalues --   -0.92197  -0.75025  -0.64815  -0.56489  -0.55630
 Alpha  occ. eigenvalues --   -0.50641  -0.47686  -0.45710  -0.34346  -0.33881
 Alpha virt. eigenvalues --   -0.01912   0.05713   0.06544   0.07982   0.09869
 Alpha virt. eigenvalues --    0.12574   0.13578   0.15184   0.16738   0.19550
 Alpha virt. eigenvalues --    0.20141   0.21993   0.24746   0.26297   0.28201

 Mulliken charges:
               1
     1  C    0.168794
     2  O   -0.326317
     3  C   -0.041482
     4  C   -0.128012
     5  H    0.094810
     6  H    0.080077
     7  H    0.103908
     8  H    0.048224
 Sum of Mulliken charges =   0.00000

 Dipole moment (field-independent basis, Debye):
    X=             -3.2387    Y=              0.6904    Z=              0.0511  Tot=              3.3118
 Quadrupole moment (field-independent basis, Debye-Ang):
   XX=            -27.3196   YY=            -21.9496   ZZ=            -25.4225
   XY=              0.9425   XZ=             -0.5143   YZ=              0.1943

 Normal termination of Gaussian 09 at Wed Aug 26 11:25:23 2020.
