 Gaussian 09, Revision D.01,
 Gaussian 09:  ES64L-G09RevD.01 24-Apr-2013

 --------------------
 #p B2PLYPD3/Def2QZVP
 --------------------

 --------
 acrolein
 --------
 Symbolic Z-matrix:
 Charge =  0 Multiplicity = 1

                         Standard orientation:
 ---------------------------------------------------------------------
 Center     Atomic      Atomic             Coordinates (Angstroms)
 Number     Number       Type             X           Y           Z
 ---------------------------------------------------------------------
      1          6           0        0.668206   -0.355828   -0.102106
      2          8           0        1.807091    0.095365    0.082576
      3          6           0       -0.592873    0.488793   -0.038131
      4          6           0       -1.762498   -0.164021    0.015367
      5          1           0       -0.444058    1.660958   -0.039644
      6          1           0       -1.903016   -1.321787    0.284604
      7          1           0       -2.532032    0.398465    0.048184
      8          1           0        0.545368   -1.314218   -0.204528
 ---------------------------------------------------------------------

 SCF Done:  E(RB2PLYPD3) =  -191.567937501     A.U. after   14 cycles
 E2(B2PLYPD3) =    -0.2489752436D+00 E(B2PLYPD3) =    -0.19181691274482D+03

 The electronic state is 1-A.
 Alpha  occ. eigenvalues --  -19.72720 -10.70833 -10.66035 -10.65069  -1.17728
 Alpha  occ. eigenvalues --   -0.92595  -0.76693  -0.67649  -0.56548  -0.55635
 Alpha  occ. eigenvalues --   -0.50272  -0.46339  -0.45371  -0.34521  -0.33758
 Alpha virt. eigenvalues --   -0.01935   0.05381   0.06897   0.07112   0.09514
 Alpha virt. eigenvalues --    0.12608   0.14202   0.15253   0.17088   0.18943
 Alpha virt. eigenvalues --    0.20180   0.22369   0.24083   0.26766   0.27883

 Mulliken charges:
               1
     1  C    0.166803
     2  O   -0.364094
     3  C   -0.061482
     4  C   -0.130826
     5  H    0.099881
     6  H    0.084497
     7  H    0.106272
     8  H    0.098948
 Sum of Mulliken charges =   0.00000

 Dipole moment (field-independent basis, Debye):
    X=             -3.4950    Y=             -0.8057    Z=             -0.1487  Tot=              3.5898
 Quadrupole moment (field-independent basis, Debye-Ang):
   XX=            -28.2733   YY=            -21.0985   ZZ=            -25.2606
   XY=             -0.7511   XZ=             -1.0177   YZ=             -0.2770

 Normal termination of Gaussian 09 at Wed Aug 26 12:18:51 2020.
