 Gaussian 09, Revision D.01,
 Gaussian 09:  ES64L-G09RevD.01 24-Apr-2013

 --------------------
 #p B2PLYPD3/Def2QZVP
 --------------------

 --------
 acrolein
 --------
 Symbolic Z-matrix:
 Charge =  0 Multiplicity = 1

                         Standard orientation:
 ---------------------------------------------------------------------
 Center     Atomic      Atomic             Coordinates (Angstroms)
 Number     Number       Type             X           Y           Z
 ---------------------------------------------------------------------
      1          6           0       -0.693537    0.370594    0.102302
      2          8           0       -1.761125   -0.135994   -0.079365
      3          6           0        0.537104   -0.471772    0.033041
      4          6           0        1.745513    0.154172   -0.069555
      5          1           0        0.434519   -1.466876    0.144822
      6          1           0        1.860543    1.141845   -0.136308
      7          1           0        2.757291   -0.433210    0.072353
      8          1           0       -0.497827    1.528231    0.159314
 ---------------------------------------------------------------------

 SCF Done:  E(RB2PLYPD3) =  -191.592699190     A.U. after   13 cycles
 E2(B2PLYPD3) =    -0.2477441252D+00 E(B2PLYPD3) =    -0.19184044331527D+03

 The electronic state is 1-A.
 Alpha  occ. eigenvalues --  -19.73172 -10.72368 -10.65533 -10.64130  -1.20814
 Alpha  occ. eigenvalues --   -0.91999  -0.74703  -0.67658  -0.56834  -0.55620
 Alpha  occ. eigenvalues --   -0.50918  -0.47346  -0.47144  -0.34175  -0.33384
 Alpha virt. eigenvalues --   -0.01740   0.05684   0.07110   0.07638   0.09804
 Alpha virt. eigenvalues --    0.12347   0.13882   0.15396   0.17797   0.19555
 Alpha virt. eigenvalues --    0.20114   0.21460   0.24842   0.26326   0.28803

 Mulliken charges:
               1
     1  C    0.158413
     2  O   -0.330738
     3  C   -0.047326
     4  C   -0.136954
     5  H    0.117719
     6  H    0.092049
     7  H    0.082265
     8  H    0.064573
 Sum of Mulliken charges =   0.00000

 Dipole moment (field-independent basis, Debye):
    X=              3.1506    Y=              0.8120    Z=              0.4148  Tot=              3.2799
 Quadrupole moment (field-independent basis, Debye-Ang):
   XX=            -27.3809   YY=            -21.7526   ZZ=            -25.2935
   XY=             -0.7288   XZ=             -0.3191   YZ=             -0.3533

 Normal termination of Gaussian 09 at Wed Aug 26 14:48:33 2020.
