 Gaussian 09, Revision D.01,
 Gaussian 09:  ES64L-G09RevD.01 24-Apr-2013

 --------------------
 #p B2PLYPD3/Def2QZVP
 --------------------

 --------
 acrolein
 --------
 Symbolic Z-matrix:
 Charge =  0 Multiplicity = 1

                         Standard orientation:
 ---------------------------------------------------------------------
 Center     Atomic      Atomic             Coordinates (Angstroms)
 Number     Number       Type             X           Y           Z
 ---------------------------------------------------------------------
      1          6           0        0.670325   -0.311521    0.053605
      2          8           0        1.795240    0.084795   -0.047660
      3          6           0       -0.587503    0.433190    0.006214
      4          6           0       -1.764017   -0.156856   -0.045843
      5          1           0       -0.316146    1.584362    0.161986
      6          1           0       -1.878765   -1.174548    0.011990
      7          1           0       -2.604748    0.429280   -0.004642
      8          1           0        0.524914   -1.306333    0.128098
 ---------------------------------------------------------------------

 SCF Done:  E(RB2PLYPD3) =  -191.593472925     A.U. after   12 cycles
 E2(B2PLYPD3) =    -0.2458352210D+00 E(B2PLYPD3) =    -0.19183930814641D+03

 The electronic state is 1-A.
 Alpha  occ. eigenvalues --  -19.72689 -10.69980 -10.65176 -10.64360  -1.20229
 Alpha  occ. eigenvalues --   -0.93721  -0.77212  -0.67373  -0.57808  -0.56942
 Alpha  occ. eigenvalues --   -0.51410  -0.47419  -0.45669  -0.35191  -0.33528
 Alpha virt. eigenvalues --   -0.01754   0.05944   0.06967   0.08815   0.09674
 Alpha virt. eigenvalues --    0.12940   0.13933   0.15196   0.17301   0.19800
 Alpha virt. eigenvalues --    0.19988   0.22298   0.25252   0.27109   0.28170

 Mulliken charges:
               1
     1  C    0.162587
     2  O   -0.347056
     3  C   -0.022999
     4  C   -0.134160
     5  H    0.082482
     6  H    0.091462
     7  H    0.107412
     8  H    0.060272
 Sum of Mulliken charges =   0.00000

 Dipole moment (field-independent basis, Debye):
    X=             -3.4771    Y=             -0.7583    Z=              0.3555  Tot=              3.5765
 Quadrupole moment (field-independent basis, Debye-Ang):
   XX=            -27.3556   YY=            -21.9598   ZZ=            -24.9514
   XY=             -0.3977   XZ=              0.1695   YZ=              0.1844

 Normal termination of Gaussian 09 at Wed Aug 26 14:19:57 2020.
