 Gaussian 09, Revision D.01,
 Gaussian 09:  ES64L-G09RevD.01 24-Apr-2013

 --------------------
 #p B2PLYPD3/Def2QZVP
 --------------------

 --------
 acrolein
 --------
 Symbolic Z-matrix:
 Charge =  0 Multiplicity = 1

                         Standard orientation:
 ---------------------------------------------------------------------
 Center     Atomic      Atomic             Coordinates (Angstroms)
 Number     Number       Type             X           Y           Z
 ---------------------------------------------------------------------
      1          6           0        0.680139    0.359820   -0.032233
      2          8           0        1.769538   -0.134217    0.036580
      3          6           0       -0.544290   -0.423025   -0.065470
      4          6           0       -1.760096    0.134786    0.013664
      5          1           0       -0.437830   -1.576867    0.047675
      6          1           0       -1.767464    1.172405    0.064772
      7          1           0       -2.723042   -0.405065    0.114725
      8          1           0        0.517517    1.453776   -0.015579
 ---------------------------------------------------------------------

 SCF Done:  E(RB2PLYPD3) =  -191.608315495     A.U. after   12 cycles
 E2(B2PLYPD3) =    -0.2472621601D+00 E(B2PLYPD3) =    -0.19185557765539D+03

 The electronic state is 1-A.
 Alpha  occ. eigenvalues --  -19.72865 -10.71492 -10.65361 -10.64905  -1.20412
 Alpha  occ. eigenvalues --   -0.92886  -0.75637  -0.66383  -0.56831  -0.56295
 Alpha  occ. eigenvalues --   -0.50886  -0.47408  -0.45486  -0.34571  -0.34000
 Alpha virt. eigenvalues --   -0.01833   0.05797   0.06803   0.08381   0.09807
 Alpha virt. eigenvalues --    0.12519   0.14037   0.15363   0.17194   0.19724
 Alpha virt. eigenvalues --    0.20068   0.21583   0.25246   0.26463   0.29053

 Mulliken charges:
               1
     1  C    0.152181
     2  O   -0.338744
     3  C   -0.032354
     4  C   -0.128521
     5  H    0.094009
     6  H    0.078391
     7  H    0.107576
     8  H    0.067462
 Sum of Mulliken charges =   0.00000

 Dipole moment (field-independent basis, Debye):
    X=             -3.3957    Y=              0.8362    Z=              0.0826  Tot=              3.4981
 Quadrupole moment (field-independent basis, Debye-Ang):
   XX=            -27.0875   YY=            -21.9761   ZZ=            -25.2340
   XY=              1.1210   XZ=             -0.6111   YZ=             -0.1027

 Normal termination of Gaussian 09 at Wed Aug 26 09:06:39 2020.
