 Gaussian 09, Revision D.01,
 Gaussian 09:  ES64L-G09RevD.01 24-Apr-2013

 --------------------
 #p B2PLYPD3/Def2QZVP
 --------------------

 --------
 acrolein
 --------
 Symbolic Z-matrix:
 Charge =  0 Multiplicity = 1

                         Standard orientation:
 ---------------------------------------------------------------------
 Center     Atomic      Atomic             Coordinates (Angstroms)
 Number     Number       Type             X           Y           Z
 ---------------------------------------------------------------------
      1          6           0        0.670355    0.333173   -0.016162
      2          8           0        1.791640   -0.116330    0.002527
      3          6           0       -0.580096   -0.450164    0.010543
      4          6           0       -1.748984    0.153021   -0.013420
      5          1           0       -0.452880   -1.500698    0.036354
      6          1           0       -1.794903    1.214120    0.088500
      7          1           0       -2.675821   -0.410873   -0.036261
      8          1           0        0.542835    1.411912    0.005430
 ---------------------------------------------------------------------

 SCF Done:  E(RB2PLYPD3) =  -191.615691830     A.U. after   12 cycles
 E2(B2PLYPD3) =    -0.2462822428D+00 E(B2PLYPD3) =    -0.19186197407291D+03

 The electronic state is 1-A.
 Alpha  occ. eigenvalues --  -19.72752 -10.71257 -10.65071 -10.63959  -1.19613
 Alpha  occ. eigenvalues --   -0.93539  -0.75435  -0.67521  -0.56901  -0.56534
 Alpha  occ. eigenvalues --   -0.50793  -0.47408  -0.46666  -0.35030  -0.33689
 Alpha virt. eigenvalues --   -0.01531   0.05822   0.07286   0.08295   0.09780
 Alpha virt. eigenvalues --    0.12676   0.13991   0.15327   0.17581   0.19838
 Alpha virt. eigenvalues --    0.20061   0.21597   0.25450   0.26492   0.28789

 Mulliken charges:
               1
     1  C    0.154754
     2  O   -0.348634
     3  C   -0.035513
     4  C   -0.130790
     5  H    0.104378
     6  H    0.087507
     7  H    0.101525
     8  H    0.066774
 Sum of Mulliken charges =   0.00000

 Dipole moment (field-independent basis, Debye):
    X=             -3.4733    Y=              0.7227    Z=              0.0534  Tot=              3.5481
 Quadrupole moment (field-independent basis, Debye-Ang):
   XX=            -27.4782   YY=            -21.8024   ZZ=            -25.0688
   XY=              0.9680   XZ=             -0.0731   YZ=              0.0930

 Normal termination of Gaussian 09 at Wed Aug 26 09:09:08 2020.
