 Gaussian 09, Revision D.01,
 Gaussian 09:  ES64L-G09RevD.01 24-Apr-2013

 --------------------
 #p B2PLYPD3/Def2QZVP
 --------------------

 --------
 acrolein
 --------
 Symbolic Z-matrix:
 Charge =  0 Multiplicity = 1

                         Standard orientation:
 ---------------------------------------------------------------------
 Center     Atomic      Atomic             Coordinates (Angstroms)
 Number     Number       Type             X           Y           Z
 ---------------------------------------------------------------------
      1          6           0       -0.679361    0.363181   -0.022618
      2          8           0       -1.808227   -0.146330    0.045208
      3          6           0        0.574892   -0.428696   -0.093004
      4          6           0        1.737063    0.102067    0.055542
      5          1           0        0.556266   -1.383976   -0.053056
      6          1           0        1.853027    1.187349   -0.082861
      7          1           0        2.616314   -0.418570    0.179911
      8          1           0       -0.355359    1.566532   -0.045173
 ---------------------------------------------------------------------

 SCF Done:  E(RB2PLYPD3) =  -191.580042416     A.U. after   14 cycles
 E2(B2PLYPD3) =    -0.2491560214D+00 E(B2PLYPD3) =    -0.19182919843700D+03

 The electronic state is 1-A.
 Alpha  occ. eigenvalues --  -19.73957 -10.74033 -10.64295 -10.62528  -1.18401
 Alpha  occ. eigenvalues --   -0.94763  -0.75548  -0.67741  -0.57926  -0.54968
 Alpha  occ. eigenvalues --   -0.50941  -0.47131  -0.46164  -0.35500  -0.34085
 Alpha virt. eigenvalues --   -0.01896   0.05659   0.07107   0.07779   0.09761
 Alpha virt. eigenvalues --    0.12630   0.13226   0.15104   0.17905   0.19713
 Alpha virt. eigenvalues --    0.20171   0.21366   0.24528   0.26471   0.28203

 Mulliken charges:
               1
     1  C    0.168823
     2  O   -0.347362
     3  C   -0.028895
     4  C   -0.108357
     5  H    0.104185
     6  H    0.068177
     7  H    0.094332
     8  H    0.049097
 Sum of Mulliken charges =   0.00000

 Dipole moment (field-independent basis, Debye):
    X=              3.5877    Y=              0.6350    Z=             -0.0904  Tot=              3.6445
 Quadrupole moment (field-independent basis, Debye-Ang):
   XX=            -27.3028   YY=            -22.2337   ZZ=            -25.0241
   XY=             -1.0111   XZ=              0.5013   YZ=             -0.2095

 Normal termination of Gaussian 09 at Wed Aug 26 14:56:02 2020.
