 Gaussian 09, Revision D.01,
 Gaussian 09:  ES64L-G09RevD.01 24-Apr-2013

 --------------------
 #p B2PLYPD3/Def2QZVP
 --------------------

 --------
 acrolein
 --------
 Symbolic Z-matrix:
 Charge =  0 Multiplicity = 1

                         Standard orientation:
 ---------------------------------------------------------------------
 Center     Atomic      Atomic             Coordinates (Angstroms)
 Number     Number       Type             X           Y           Z
 ---------------------------------------------------------------------
      1          6           0       -0.673796    0.336405    0.021644
      2          8           0       -1.793217   -0.108806   -0.022355
      3          6           0        0.562411   -0.449047    0.039266
      4          6           0        1.766660    0.149911   -0.020369
      5          1           0        0.438565   -1.564267   -0.019853
      6          1           0        1.832883    1.231562   -0.001786
      7          1           0        2.655435   -0.424089   -0.050418
      8          1           0       -0.512800    1.403631    0.007646
 ---------------------------------------------------------------------

 SCF Done:  E(RB2PLYPD3) =  -191.614738386     A.U. after   12 cycles
 E2(B2PLYPD3) =    -0.2471094719D+00 E(B2PLYPD3) =    -0.19186184785834D+03

 The electronic state is 1-A.
 Alpha  occ. eigenvalues --  -19.72728 -10.71146 -10.65586 -10.64919  -1.19752
 Alpha  occ. eigenvalues --   -0.92813  -0.75903  -0.66812  -0.56583  -0.56524
 Alpha  occ. eigenvalues --   -0.50693  -0.46939  -0.46770  -0.34559  -0.33809
 Alpha virt. eigenvalues --   -0.01943   0.05805   0.07074   0.08328   0.09730
 Alpha virt. eigenvalues --    0.12648   0.13975   0.15343   0.17376   0.19769
 Alpha virt. eigenvalues --    0.19966   0.21740   0.25189   0.26640   0.28703

 Mulliken charges:
               1
     1  C    0.157112
     2  O   -0.347140
     3  C   -0.035479
     4  C   -0.134895
     5  H    0.097941
     6  H    0.087364
     7  H    0.107957
     8  H    0.067138
 Sum of Mulliken charges =   0.00000

 Dipole moment (field-independent basis, Debye):
    X=              3.5179    Y=              0.7341    Z=              0.0106  Tot=              3.5937
 Quadrupole moment (field-independent basis, Debye-Ang):
   XX=            -27.4286   YY=            -21.7552   ZZ=            -25.2341
   XY=             -0.8628   XZ=             -0.2561   YZ=              0.0826

 Normal termination of Gaussian 09 at Wed Aug 26 14:44:32 2020.
