 Gaussian 09, Revision D.01,
 Gaussian 09:  ES64L-G09RevD.01 24-Apr-2013

 --------------------
 #p B2PLYPD3/Def2QZVP
 --------------------

 --------
 acrolein
 --------
 Symbolic Z-matrix:
 Charge =  0 Multiplicity = 1

                         Standard orientation:
 ---------------------------------------------------------------------
 Center     Atomic      Atomic             Coordinates (Angstroms)
 Number     Number       Type             X           Y           Z
 ---------------------------------------------------------------------
      1          6           0       -0.673178    0.341502    0.044891
      2          8           0       -1.782600   -0.102653   -0.044813
      3          6           0        0.561920   -0.460265    0.019943
      4          6           0        1.772150    0.150698   -0.026423
      5          1           0        0.366943   -1.618891    0.120072
      6          1           0        1.821285    1.242797   -0.021067
      7          1           0        2.657056   -0.390280   -0.072895
      8          1           0       -0.549839    1.395985    0.101933
 ---------------------------------------------------------------------

 SCF Done:  E(RB2PLYPD3) =  -191.607435087     A.U. after   12 cycles
 E2(B2PLYPD3) =    -0.2471580139D+00 E(B2PLYPD3) =    -0.19185459310132D+03

 The electronic state is 1-A.
 Alpha  occ. eigenvalues --  -19.72581 -10.70836 -10.65697 -10.65560  -1.20160
 Alpha  occ. eigenvalues --   -0.92288  -0.75818  -0.66617  -0.56705  -0.56265
 Alpha  occ. eigenvalues --   -0.50826  -0.47231  -0.46077  -0.34329  -0.33718
 Alpha virt. eigenvalues --   -0.01813   0.05831   0.06890   0.08286   0.09648
 Alpha virt. eigenvalues --    0.12564   0.14056   0.15305   0.17113   0.19691
 Alpha virt. eigenvalues --    0.20008   0.21737   0.25177   0.26667   0.29042

 Mulliken charges:
               1
     1  C    0.160848
     2  O   -0.344365
     3  C   -0.042045
     4  C   -0.135227
     5  H    0.095673
     6  H    0.086343
     7  H    0.110287
     8  H    0.068486
 Sum of Mulliken charges =   0.00000

 Dipole moment (field-independent basis, Debye):
    X=              3.4214    Y=              0.7630    Z=              0.2082  Tot=              3.5116
 Quadrupole moment (field-independent basis, Debye-Ang):
   XX=            -27.3896   YY=            -21.6842   ZZ=            -25.2955
   XY=             -0.7524   XZ=             -0.3943   YZ=             -0.1246

 Normal termination of Gaussian 09 at Wed Aug 26 10:26:16 2020.
