 Gaussian 09, Revision D.01,
 Gaussian 09:  ES64L-G09RevD.01 24-Apr-2013

 --------------------
 #p B2PLYPD3/Def2QZVP
 --------------------

 --------
 acrolein
 --------
 Symbolic Z-matrix:
 Charge =  0 Multiplicity = 1

                         Standard orientation:
 ---------------------------------------------------------------------
 Center     Atomic      Atomic             Coordinates (Angstroms)
 Number     Number       Type             X           Y           Z
 ---------------------------------------------------------------------
      1          6           0       -0.687063    0.391665    0.016671
      2          8           0       -1.759099   -0.162190   -0.044901
      3          6           0        0.522050   -0.412195    0.065732
      4          6           0        1.771532    0.090895   -0.046632
      5          1           0        0.413794   -1.457705    0.091707
      6          1           0        1.812831    1.260181   -0.027015
      7          1           0        2.719064   -0.456468   -0.068541
      8          1           0       -0.512010    1.529322    0.148432
 ---------------------------------------------------------------------

 SCF Done:  E(RB2PLYPD3) =  -191.603849578     A.U. after   13 cycles
 E2(B2PLYPD3) =    -0.2486506194D+00 E(B2PLYPD3) =    -0.19185250019708D+03

 The electronic state is 1-A.
 Alpha  occ. eigenvalues --  -19.73135 -10.72268 -10.66574 -10.63976  -1.20096
 Alpha  occ. eigenvalues --   -0.92308  -0.75086  -0.66428  -0.56699  -0.55543
 Alpha  occ. eigenvalues --   -0.51049  -0.47204  -0.45152  -0.34247  -0.34116
 Alpha virt. eigenvalues --   -0.02054   0.05525   0.07018   0.08195   0.09798
 Alpha virt. eigenvalues --    0.11897   0.13855   0.15416   0.17718   0.19052
 Alpha virt. eigenvalues --    0.19882   0.21204   0.25424   0.26195   0.29004

 Mulliken charges:
               1
     1  C    0.165494
     2  O   -0.340856
     3  C   -0.048895
     4  C   -0.126517
     5  H    0.109670
     6  H    0.061337
     7  H    0.110304
     8  H    0.069463
 Sum of Mulliken charges =   0.00000

 Dipole moment (field-independent basis, Debye):
    X=              3.3213    Y=              0.8028    Z=              0.1580  Tot=              3.4206
 Quadrupole moment (field-independent basis, Debye-Ang):
   XX=            -27.0843   YY=            -21.9734   ZZ=            -25.3820
   XY=             -1.4356   XZ=             -0.3939   YZ=              0.0120

 Normal termination of Gaussian 09 at Wed Aug 26 12:25:52 2020.
