 Gaussian 09, Revision D.01,
 Gaussian 09:  ES64L-G09RevD.01 24-Apr-2013

 --------------------
 #p B2PLYPD3/Def2QZVP
 --------------------

 --------
 acrolein
 --------
 Symbolic Z-matrix:
 Charge =  0 Multiplicity = 1

                         Standard orientation:
 ---------------------------------------------------------------------
 Center     Atomic      Atomic             Coordinates (Angstroms)
 Number     Number       Type             X           Y           Z
 ---------------------------------------------------------------------
      1          6           0       -0.675431    0.353127    0.030343
      2          8           0       -1.782281   -0.113473   -0.020730
      3          6           0        0.554970   -0.457581    0.013726
      4          6           0        1.760281    0.144400   -0.019482
      5          1           0        0.401403   -1.554451    0.016436
      6          1           0        1.850870    1.221342   -0.013787
      7          1           0        2.686575   -0.406951    0.004528
      8          1           0       -0.519522    1.408167    0.011141
 ---------------------------------------------------------------------

 SCF Done:  E(RB2PLYPD3) =  -191.615387165     A.U. after   12 cycles
 E2(B2PLYPD3) =    -0.2468135587D+00 E(B2PLYPD3) =    -0.19186220072408D+03

 The electronic state is 1-A.
 Alpha  occ. eigenvalues --  -19.72666 -10.71000 -10.65601 -10.64801  -1.19965
 Alpha  occ. eigenvalues --   -0.92482  -0.75549  -0.67302  -0.56734  -0.56172
 Alpha  occ. eigenvalues --   -0.50716  -0.46947  -0.46833  -0.34418  -0.33794
 Alpha virt. eigenvalues --   -0.01729   0.05762   0.07265   0.08148   0.09722
 Alpha virt. eigenvalues --    0.12593   0.14143   0.15396   0.17418   0.19773
 Alpha virt. eigenvalues --    0.19963   0.21644   0.25384   0.26626   0.28748

 Mulliken charges:
               1
     1  C    0.158630
     2  O   -0.347324
     3  C   -0.043563
     4  C   -0.134889
     5  H    0.104891
     6  H    0.084534
     7  H    0.102438
     8  H    0.075283
 Sum of Mulliken charges =   0.00000

 Dipole moment (field-independent basis, Debye):
    X=              3.4291    Y=              0.7928    Z=              0.0919  Tot=              3.5207
 Quadrupole moment (field-independent basis, Debye-Ang):
   XX=            -27.3795   YY=            -21.6771   ZZ=            -25.2390
   XY=             -0.7909   XZ=             -0.0974   YZ=             -0.0314

 Normal termination of Gaussian 09 at Wed Aug 26 15:40:30 2020.
