 Gaussian 09, Revision D.01,
 Gaussian 09:  ES64L-G09RevD.01 24-Apr-2013

 --------------------
 #p B2PLYPD3/Def2QZVP
 --------------------

 --------
 acrolein
 --------
 Symbolic Z-matrix:
 Charge =  0 Multiplicity = 1

                         Standard orientation:
 ---------------------------------------------------------------------
 Center     Atomic      Atomic             Coordinates (Angstroms)
 Number     Number       Type             X           Y           Z
 ---------------------------------------------------------------------
      1          6           0       -0.688011    0.369097    0.036936
      2          8           0       -1.774494   -0.141177   -0.034472
      3          6           0        0.565297   -0.440999    0.002441
      4          6           0        1.769896    0.142806   -0.032607
      5          1           0        0.418525   -1.486573    0.139770
      6          1           0        1.815306    1.138361   -0.019233
      7          1           0        2.649527   -0.417781    0.013322
      8          1           0       -0.570493    1.469979    0.101296
 ---------------------------------------------------------------------

 SCF Done:  E(RB2PLYPD3) =  -191.609627795     A.U. after   12 cycles
 E2(B2PLYPD3) =    -0.2461790425D+00 E(B2PLYPD3) =    -0.19185580683767D+03

 The electronic state is 1-A.
 Alpha  occ. eigenvalues --  -19.72897 -10.71669 -10.64210 -10.63898  -1.20137
 Alpha  occ. eigenvalues --   -0.92792  -0.75683  -0.67520  -0.57423  -0.56565
 Alpha  occ. eigenvalues --   -0.50962  -0.48065  -0.46678  -0.34406  -0.33792
 Alpha virt. eigenvalues --   -0.01491   0.05979   0.07300   0.08082   0.09880
 Alpha virt. eigenvalues --    0.12688   0.13989   0.15316   0.17628   0.19879
 Alpha virt. eigenvalues --    0.20212   0.22027   0.25316   0.26514   0.28985

 Mulliken charges:
               1
     1  C    0.150510
     2  O   -0.341160
     3  C   -0.042955
     4  C   -0.137341
     5  H    0.106282
     6  H    0.086631
     7  H    0.102421
     8  H    0.075612
 Sum of Mulliken charges =   0.00000

 Dipole moment (field-independent basis, Debye):
    X=              3.2880    Y=              0.8599    Z=              0.2742  Tot=              3.4096
 Quadrupole moment (field-independent basis, Debye-Ang):
   XX=            -27.3081   YY=            -21.7229   ZZ=            -25.0870
   XY=             -1.0788   XZ=             -0.0828   YZ=             -0.1866

 Normal termination of Gaussian 09 at Wed Aug 26 09:19:25 2020.
