 Gaussian 09, Revision D.01,
 Gaussian 09:  ES64L-G09RevD.01 24-Apr-2013

 --------------------
 #p B2PLYPD3/Def2QZVP
 --------------------

 --------
 acrolein
 --------
 Symbolic Z-matrix:
 Charge =  0 Multiplicity = 1

                         Standard orientation:
 ---------------------------------------------------------------------
 Center     Atomic      Atomic             Coordinates (Angstroms)
 Number     Number       Type             X           Y           Z
 ---------------------------------------------------------------------
      1          6           0        0.671346   -0.338532    0.003032
      2          8           0        1.828224    0.080163    0.027790
      3          6           0       -0.581502    0.488073   -0.069830
      4          6           0       -1.780974   -0.139398    0.013678
      5          1           0       -0.374672    1.663925   -0.027794
      6          1           0       -1.964570   -1.296124   -0.062025
      7          1           0       -2.558913    0.359277    0.243935
      8          1           0        0.419140   -1.429239   -0.057712
 ---------------------------------------------------------------------

 SCF Done:  E(RB2PLYPD3) =  -191.580759735     A.U. after   14 cycles
 E2(B2PLYPD3) =    -0.2501228390D+00 E(B2PLYPD3) =    -0.19183088257409D+03

 The electronic state is 1-A.
 Alpha  occ. eigenvalues --  -19.73202 -10.72365 -10.66504 -10.65734  -1.18368
 Alpha  occ. eigenvalues --   -0.92453  -0.76420  -0.65469  -0.57270  -0.54626
 Alpha  occ. eigenvalues --   -0.50756  -0.46469  -0.45723  -0.34503  -0.33594
 Alpha virt. eigenvalues --   -0.02449   0.05411   0.06819   0.07478   0.09458
 Alpha virt. eigenvalues --    0.12361   0.14006   0.15296   0.16566   0.19467
 Alpha virt. eigenvalues --    0.19747   0.22470   0.24306   0.26433   0.27865

 Mulliken charges:
               1
     1  C    0.171885
     2  O   -0.354795
     3  C   -0.048986
     4  C   -0.127126
     5  H    0.097781
     6  H    0.082252
     7  H    0.112340
     8  H    0.066649
 Sum of Mulliken charges =   0.00000

 Dipole moment (field-independent basis, Debye):
    X=             -3.6575    Y=             -0.6624    Z=              0.0618  Tot=              3.7175
 Quadrupole moment (field-independent basis, Debye-Ang):
   XX=            -27.7464   YY=            -21.6909   ZZ=            -25.4169
   XY=             -0.1840   XZ=             -0.6470   YZ=              0.2256

 Normal termination of Gaussian 09 at Wed Aug 26 14:29:15 2020.
