 Gaussian 09, Revision D.01,
 Gaussian 09:  ES64L-G09RevD.01 24-Apr-2013

 --------------------
 #p B2PLYPD3/Def2QZVP
 --------------------

 --------
 acrolein
 --------
 Symbolic Z-matrix:
 Charge =  0 Multiplicity = 1

                         Standard orientation:
 ---------------------------------------------------------------------
 Center     Atomic      Atomic             Coordinates (Angstroms)
 Number     Number       Type             X           Y           Z
 ---------------------------------------------------------------------
      1          6           0       -0.672960    0.352511    0.006937
      2          8           0       -1.787639   -0.124804   -0.002686
      3          6           0        0.556960   -0.438758    0.000828
      4          6           0        1.765625    0.143204   -0.011485
      5          1           0        0.427307   -1.551082   -0.018882
      6          1           0        1.834750    1.181540   -0.033857
      7          1           0        2.675082   -0.426817    0.071744
      8          1           0       -0.533771    1.453053    0.024798
 ---------------------------------------------------------------------

 SCF Done:  E(RB2PLYPD3) =  -191.614479416     A.U. after   13 cycles
 E2(B2PLYPD3) =    -0.2473737825D+00 E(B2PLYPD3) =    -0.19186185319879D+03

 The electronic state is 1-A.
 Alpha  occ. eigenvalues --  -19.72790 -10.71584 -10.65191 -10.64835  -1.19410
 Alpha  occ. eigenvalues --   -0.92930  -0.75839  -0.66742  -0.56835  -0.56412
 Alpha  occ. eigenvalues --   -0.50503  -0.46964  -0.46664  -0.34541  -0.33864
 Alpha virt. eigenvalues --   -0.01999   0.05808   0.07051   0.08256   0.09784
 Alpha virt. eigenvalues --    0.12577   0.14026   0.15377   0.17222   0.19831
 Alpha virt. eigenvalues --    0.20047   0.21794   0.25472   0.26354   0.28828

 Mulliken charges:
               1
     1  C    0.154046
     2  O   -0.349273
     3  C   -0.034275
     4  C   -0.133719
     5  H    0.101242
     6  H    0.087375
     7  H    0.105331
     8  H    0.069272
 Sum of Mulliken charges =   0.00000

 Dipole moment (field-independent basis, Debye):
    X=              3.5057    Y=              0.7884    Z=              0.0384  Tot=              3.5935
 Quadrupole moment (field-independent basis, Debye-Ang):
   XX=            -27.3742   YY=            -21.7619   ZZ=            -25.2282
   XY=             -0.9523   XZ=              0.1047   YZ=             -0.0419

 Normal termination of Gaussian 09 at Wed Aug 26 16:23:20 2020.
