 Gaussian 09, Revision D.01,
 Gaussian 09:  ES64L-G09RevD.01 24-Apr-2013

 --------------------
 #p B2PLYPD3/Def2QZVP
 --------------------

 --------
 acrolein
 --------
 Symbolic Z-matrix:
 Charge =  0 Multiplicity = 1

                         Standard orientation:
 ---------------------------------------------------------------------
 Center     Atomic      Atomic             Coordinates (Angstroms)
 Number     Number       Type             X           Y           Z
 ---------------------------------------------------------------------
      1          6           0        0.688379    0.373651   -0.043502
      2          8           0        1.757551   -0.147298    0.060685
      3          6           0       -0.538714   -0.416285   -0.045986
      4          6           0       -1.754819    0.120779    0.003619
      5          1           0       -0.333459   -1.578719   -0.164472
      6          1           0       -1.862497    1.149440    0.065637
      7          1           0       -2.754705   -0.450194    0.239240
      8          1           0        0.521180    1.588990   -0.110664
 ---------------------------------------------------------------------

 SCF Done:  E(RB2PLYPD3) =  -191.592465978     A.U. after   12 cycles
 E2(B2PLYPD3) =    -0.2485960995D+00 E(B2PLYPD3) =    -0.19184106207801D+03

 The electronic state is 1-A.
 Alpha  occ. eigenvalues --  -19.73359 -10.72683 -10.65821 -10.65366  -1.21079
 Alpha  occ. eigenvalues --   -0.92598  -0.74954  -0.64861  -0.56799  -0.55457
 Alpha  occ. eigenvalues --   -0.50147  -0.47887  -0.44951  -0.34773  -0.33763
 Alpha virt. eigenvalues --   -0.01768   0.05553   0.06334   0.08292   0.09768
 Alpha virt. eigenvalues --    0.12026   0.13693   0.14997   0.16984   0.19143
 Alpha virt. eigenvalues --    0.20190   0.21875   0.25412   0.26143   0.28529

 Mulliken charges:
               1
     1  C    0.164954
     2  O   -0.328401
     3  C   -0.037374
     4  C   -0.121315
     5  H    0.098674
     6  H    0.082757
     7  H    0.096345
     8  H    0.044360
 Sum of Mulliken charges =   0.00000

 Dipole moment (field-independent basis, Debye):
    X=             -3.2287    Y=              0.7605    Z=             -0.0812  Tot=              3.3180
 Quadrupole moment (field-independent basis, Debye-Ang):
   XX=            -27.0063   YY=            -22.1912   ZZ=            -25.3542
   XY=              0.7586   XZ=             -0.9245   YZ=              0.1331

 Normal termination of Gaussian 09 at Wed Aug 26 13:55:59 2020.
