 Gaussian 09, Revision D.01,
 Gaussian 09:  ES64L-G09RevD.01 24-Apr-2013

 --------------------
 #p B2PLYPD3/Def2QZVP
 --------------------

 --------
 acrolein
 --------
 Symbolic Z-matrix:
 Charge =  0 Multiplicity = 1

                         Standard orientation:
 ---------------------------------------------------------------------
 Center     Atomic      Atomic             Coordinates (Angstroms)
 Number     Number       Type             X           Y           Z
 ---------------------------------------------------------------------
      1          6           0        0.654937    0.321588    0.035054
      2          8           0        1.803464   -0.093978   -0.059189
      3          6           0       -0.589958   -0.481102    0.023659
      4          6           0       -1.737748    0.179657   -0.029756
      5          1           0       -0.563518   -1.566573    0.159663
      6          1           0       -1.782381    1.252899   -0.205276
      7          1           0       -2.505594   -0.397109   -0.018476
      8          1           0        0.460396    1.341749    0.363861
 ---------------------------------------------------------------------

 SCF Done:  E(RB2PLYPD3) =  -191.596617940     A.U. after   14 cycles
 E2(B2PLYPD3) =    -0.2475912598D+00 E(B2PLYPD3) =    -0.19184420919967D+03

 The electronic state is 1-A.
 Alpha  occ. eigenvalues --  -19.72881 -10.71607 -10.64518 -10.63899  -1.18536
 Alpha  occ. eigenvalues --   -0.93985  -0.76393  -0.66914  -0.57867  -0.55845
 Alpha  occ. eigenvalues --   -0.50490  -0.48336  -0.45685  -0.35004  -0.33612
 Alpha virt. eigenvalues --   -0.01716   0.06055   0.06600   0.07599   0.09676
 Alpha virt. eigenvalues --    0.13154   0.14234   0.14989   0.17483   0.18776
 Alpha virt. eigenvalues --    0.20554   0.22149   0.24093   0.27349   0.28126

 Mulliken charges:
               1
     1  C    0.151719
     2  O   -0.351714
     3  C   -0.039950
     4  C   -0.130870
     5  H    0.096772
     6  H    0.092663
     7  H    0.102486
     8  H    0.078892
 Sum of Mulliken charges =   0.00000

 Dipole moment (field-independent basis, Debye):
    X=             -3.5692    Y=              0.6351    Z=              0.2576  Tot=              3.6344
 Quadrupole moment (field-independent basis, Debye-Ang):
   XX=            -28.1014   YY=            -21.5034   ZZ=            -24.9909
   XY=              0.8188   XZ=              0.5739   YZ=             -0.3501

 Normal termination of Gaussian 09 at Wed Aug 26 11:44:41 2020.
