 Gaussian 09, Revision D.01,
 Gaussian 09:  ES64L-G09RevD.01 24-Apr-2013

 --------------------
 #p B2PLYPD3/Def2QZVP
 --------------------

 --------
 acrolein
 --------
 Symbolic Z-matrix:
 Charge =  0 Multiplicity = 1

                         Standard orientation:
 ---------------------------------------------------------------------
 Center     Atomic      Atomic             Coordinates (Angstroms)
 Number     Number       Type             X           Y           Z
 ---------------------------------------------------------------------
      1          6           0        0.678424    0.358618   -0.008192
      2          8           0        1.772374   -0.133020    0.002613
      3          6           0       -0.538798   -0.434831    0.019333
      4          6           0       -1.755190    0.121832   -0.011592
      5          1           0       -0.422139   -1.464200   -0.017756
      6          1           0       -1.872217    1.237616    0.080711
      7          1           0       -2.684085   -0.472595   -0.037875
      8          1           0        0.492833    1.489626   -0.043279
 ---------------------------------------------------------------------

 SCF Done:  E(RB2PLYPD3) =  -191.612386622     A.U. after   13 cycles
 E2(B2PLYPD3) =    -0.2471490627D+00 E(B2PLYPD3) =    -0.19185953568499D+03

 The electronic state is 1-A.
 Alpha  occ. eigenvalues --  -19.72916 -10.71713 -10.66154 -10.63739  -1.20357
 Alpha  occ. eigenvalues --   -0.92894  -0.75208  -0.66835  -0.56531  -0.56072
 Alpha  occ. eigenvalues --   -0.50708  -0.47335  -0.46645  -0.34566  -0.33855
 Alpha virt. eigenvalues --   -0.01790   0.05639   0.07245   0.08334   0.09788
 Alpha virt. eigenvalues --    0.12348   0.13738   0.15368   0.17825   0.19472
 Alpha virt. eigenvalues --    0.19944   0.21453   0.25340   0.26506   0.28658

 Mulliken charges:
               1
     1  C    0.160597
     2  O   -0.341408
     3  C   -0.042385
     4  C   -0.128999
     5  H    0.109987
     6  H    0.080423
     7  H    0.101036
     8  H    0.060750
 Sum of Mulliken charges =   0.00000

 Dipole moment (field-independent basis, Debye):
    X=             -3.4086    Y=              0.7120    Z=             -0.0124  Tot=              3.4822
 Quadrupole moment (field-independent basis, Debye-Ang):
   XX=            -27.2216   YY=            -21.9014   ZZ=            -25.2295
   XY=              0.9786   XZ=             -0.0307   YZ=              0.1473

 Normal termination of Gaussian 09 at Wed Aug 26 09:52:43 2020.
