 Gaussian 09, Revision D.01,
 Gaussian 09:  ES64L-G09RevD.01 24-Apr-2013

 --------------------
 #p B2PLYPD3/Def2QZVP
 --------------------

 --------
 acrolein
 --------
 Symbolic Z-matrix:
 Charge =  0 Multiplicity = 1

                         Standard orientation:
 ---------------------------------------------------------------------
 Center     Atomic      Atomic             Coordinates (Angstroms)
 Number     Number       Type             X           Y           Z
 ---------------------------------------------------------------------
      1          6           0        0.689766    0.334219   -0.083250
      2          8           0        1.794449   -0.126339    0.066711
      3          6           0       -0.548607   -0.426071   -0.057856
      4          6           0       -1.761862    0.149683    0.019716
      5          1           0       -0.504223   -1.479152   -0.030123
      6          1           0       -1.783504    1.165250    0.120893
      7          1           0       -2.758548   -0.484366    0.137969
      8          1           0        0.414901    1.461999   -0.034093
 ---------------------------------------------------------------------

 SCF Done:  E(RB2PLYPD3) =  -191.599184218     A.U. after   13 cycles
 E2(B2PLYPD3) =    -0.2484395118D+00 E(B2PLYPD3) =    -0.19184762372978D+03

 The electronic state is 1-A.
 Alpha  occ. eigenvalues --  -19.73430 -10.72318 -10.66119 -10.64057  -1.20160
 Alpha  occ. eigenvalues --   -0.93246  -0.75503  -0.67093  -0.56370  -0.55929
 Alpha  occ. eigenvalues --   -0.50181  -0.47334  -0.46964  -0.34689  -0.33909
 Alpha virt. eigenvalues --   -0.02281   0.05488   0.06989   0.08230   0.09810
 Alpha virt. eigenvalues --    0.12535   0.13549   0.15342   0.17828   0.19680
 Alpha virt. eigenvalues --    0.20109   0.21035   0.25185   0.26235   0.28634

 Mulliken charges:
               1
     1  C    0.158010
     2  O   -0.338016
     3  C   -0.016033
     4  C   -0.135805
     5  H    0.099036
     6  H    0.087117
     7  H    0.100295
     8  H    0.045396
 Sum of Mulliken charges =   0.00000

 Dipole moment (field-independent basis, Debye):
    X=             -3.4617    Y=              0.6381    Z=             -0.0514  Tot=              3.5204
 Quadrupole moment (field-independent basis, Debye-Ang):
   XX=            -27.2237   YY=            -22.2065   ZZ=            -25.2458
   XY=              1.0181   XZ=             -0.8271   YZ=              0.0732

 Normal termination of Gaussian 09 at Wed Aug 26 13:40:45 2020.
