 Gaussian 09, Revision D.01,
 Gaussian 09:  ES64L-G09RevD.01 24-Apr-2013

 --------------------
 #p B2PLYPD3/Def2QZVP
 --------------------

 --------
 acrolein
 --------
 Symbolic Z-matrix:
 Charge =  0 Multiplicity = 1

                         Standard orientation:
 ---------------------------------------------------------------------
 Center     Atomic      Atomic             Coordinates (Angstroms)
 Number     Number       Type             X           Y           Z
 ---------------------------------------------------------------------
      1          6           0       -0.656054    0.372304   -0.079529
      2          8           0       -1.790245   -0.156306    0.061751
      3          6           0        0.556785   -0.378213   -0.017377
      4          6           0        1.763620    0.107155    0.024035
      5          1           0        0.385170   -1.477608   -0.111881
      6          1           0        1.744241    1.077917    0.227979
      7          1           0        2.749816   -0.421457   -0.022297
      8          1           0       -0.543374    1.464122   -0.150583
 ---------------------------------------------------------------------

 SCF Done:  E(RB2PLYPD3) =  -191.594143441     A.U. after   14 cycles
 E2(B2PLYPD3) =    -0.2493279435D+00 E(B2PLYPD3) =    -0.19184347138477D+03

 The electronic state is 1-A.
 Alpha  occ. eigenvalues --  -19.73082 -10.72082 -10.64718 -10.64089  -1.16965
 Alpha  occ. eigenvalues --   -0.94663  -0.77003  -0.67158  -0.57087  -0.56847
 Alpha  occ. eigenvalues --   -0.50591  -0.45780  -0.45280  -0.35018  -0.34318
 Alpha virt. eigenvalues --   -0.02839   0.05676   0.07029   0.08158   0.09858
 Alpha virt. eigenvalues --    0.12415   0.14053   0.15153   0.17067   0.19435
 Alpha virt. eigenvalues --    0.20413   0.21540   0.25239   0.26638   0.29538

 Mulliken charges:
               1
     1  C    0.150290
     2  O   -0.370650
     3  C   -0.013827
     4  C   -0.129952
     5  H    0.094931
     6  H    0.079331
     7  H    0.110901
     8  H    0.078977
 Sum of Mulliken charges =   0.00000

 Dipole moment (field-independent basis, Debye):
    X=              3.6993    Y=              0.9502    Z=             -0.2017  Tot=              3.8247
 Quadrupole moment (field-independent basis, Debye-Ang):
   XX=            -27.2070   YY=            -22.1078   ZZ=            -25.0332
   XY=             -1.3287   XZ=              0.4947   YZ=              0.3125

 Normal termination of Gaussian 09 at Wed Aug 26 12:04:31 2020.
