 Gaussian 09, Revision D.01,
 Gaussian 09:  ES64L-G09RevD.01 24-Apr-2013

 --------------------
 #p B2PLYPD3/Def2QZVP
 --------------------

 --------
 acrolein
 --------
 Symbolic Z-matrix:
 Charge =  0 Multiplicity = 1

                         Standard orientation:
 ---------------------------------------------------------------------
 Center     Atomic      Atomic             Coordinates (Angstroms)
 Number     Number       Type             X           Y           Z
 ---------------------------------------------------------------------
      1          6           0       -0.669315    0.334113    0.007638
      2          8           0       -1.797821   -0.103905   -0.021597
      3          6           0        0.559239   -0.458007    0.027043
      4          6           0        1.760404    0.143075   -0.008292
      5          1           0        0.421835   -1.535438    0.038902
      6          1           0        1.878396    1.248366   -0.030072
      7          1           0        2.686694   -0.412249   -0.075221
      8          1           0       -0.506331    1.415482    0.080843
 ---------------------------------------------------------------------

 SCF Done:  E(RB2PLYPD3) =  -191.615405553     A.U. after   13 cycles
 E2(B2PLYPD3) =    -0.2474636437D+00 E(B2PLYPD3) =    -0.19186286919701D+03

 The electronic state is 1-A.
 Alpha  occ. eigenvalues --  -19.72727 -10.71308 -10.66177 -10.64735  -1.19419
 Alpha  occ. eigenvalues --   -0.92863  -0.75661  -0.66921  -0.56685  -0.56040
 Alpha  occ. eigenvalues --   -0.50603  -0.46940  -0.46581  -0.34637  -0.33747
 Alpha virt. eigenvalues --   -0.02015   0.05654   0.07191   0.08276   0.09648
 Alpha virt. eigenvalues --    0.12515   0.14047   0.15334   0.17507   0.19549
 Alpha virt. eigenvalues --    0.19987   0.21527   0.25293   0.26552   0.28601

 Mulliken charges:
               1
     1  C    0.159360
     2  O   -0.351032
     3  C   -0.039179
     4  C   -0.127874
     5  H    0.105291
     6  H    0.084846
     7  H    0.102402
     8  H    0.066186
 Sum of Mulliken charges =   0.00000

 Dipole moment (field-independent basis, Debye):
    X=              3.5817    Y=              0.6974    Z=              0.0270  Tot=              3.6491
 Quadrupole moment (field-independent basis, Debye-Ang):
   XX=            -27.3744   YY=            -21.8060   ZZ=            -25.2535
   XY=             -0.6929   XZ=             -0.3374   YZ=             -0.0112

 Normal termination of Gaussian 09 at Wed Aug 26 19:02:57 2020.
