 Gaussian 09, Revision D.01,
 Gaussian 09:  ES64L-G09RevD.01 24-Apr-2013

 --------------------
 #p B2PLYPD3/Def2QZVP
 --------------------

 --------
 acrolein
 --------
 Symbolic Z-matrix:
 Charge =  0 Multiplicity = 1

                         Standard orientation:
 ---------------------------------------------------------------------
 Center     Atomic      Atomic             Coordinates (Angstroms)
 Number     Number       Type             X           Y           Z
 ---------------------------------------------------------------------
      1          6           0        0.672984    0.344974   -0.085369
      2          8           0        1.786558   -0.102574    0.065799
      3          6           0       -0.563977   -0.503845   -0.084786
      4          6           0       -1.737803    0.168680    0.063230
      5          1           0       -0.501739   -1.624561   -0.016054
      6          1           0       -1.901092    1.316606   -0.104985
      7          1           0       -2.661257   -0.384461    0.174551
      8          1           0        0.544405    1.454151    0.061643
 ---------------------------------------------------------------------

 SCF Done:  E(RB2PLYPD3) =  -191.600594538     A.U. after   14 cycles
 E2(B2PLYPD3) =    -0.2490961168D+00 E(B2PLYPD3) =    -0.19184969065437D+03

 The electronic state is 1-A.
 Alpha  occ. eigenvalues --  -19.72632 -10.71936 -10.66605 -10.65838  -1.19489
 Alpha  occ. eigenvalues --   -0.91821  -0.74113  -0.66034  -0.55848  -0.55630
 Alpha  occ. eigenvalues --   -0.49850  -0.46639  -0.46233  -0.34270  -0.33453
 Alpha virt. eigenvalues --   -0.01645   0.05562   0.06720   0.06942   0.09517
 Alpha virt. eigenvalues --    0.12342   0.14291   0.15268   0.17341   0.19504
 Alpha virt. eigenvalues --    0.20149   0.21252   0.23617   0.26638   0.28107

 Mulliken charges:
               1
     1  C    0.161518
     2  O   -0.341416
     3  C   -0.059936
     4  C   -0.124439
     5  H    0.110418
     6  H    0.086540
     7  H    0.094486
     8  H    0.072829
 Sum of Mulliken charges =   0.00000

 Dipole moment (field-independent basis, Debye):
    X=             -3.4523    Y=              0.6813    Z=             -0.1675  Tot=              3.5229
 Quadrupole moment (field-independent basis, Debye-Ang):
   XX=            -27.6826   YY=            -21.4234   ZZ=            -25.4863
   XY=              0.7836   XZ=             -0.5361   YZ=             -0.1980

 Normal termination of Gaussian 09 at Wed Aug 26 10:47:47 2020.
