 Gaussian 09, Revision D.01,
 Gaussian 09:  ES64L-G09RevD.01 24-Apr-2013

 --------------------
 #p B2PLYPD3/Def2QZVP
 --------------------

 --------
 acrolein
 --------
 Symbolic Z-matrix:
 Charge =  0 Multiplicity = 1

                         Standard orientation:
 ---------------------------------------------------------------------
 Center     Atomic      Atomic             Coordinates (Angstroms)
 Number     Number       Type             X           Y           Z
 ---------------------------------------------------------------------
      1          6           0       -0.661363    0.339820    0.021153
      2          8           0       -1.785719   -0.104761   -0.014557
      3          6           0        0.566439   -0.467414    0.003577
      4          6           0        1.760611    0.147038   -0.014777
      5          1           0        0.427467   -1.546667   -0.003650
      6          1           0        1.882749    1.282902   -0.068558
      7          1           0        2.542930   -0.423218    0.071822
      8          1           0       -0.561514    1.408410    0.057118
 ---------------------------------------------------------------------

 SCF Done:  E(RB2PLYPD3) =  -191.602752563     A.U. after   13 cycles
 E2(B2PLYPD3) =    -0.2468238897D+00 E(B2PLYPD3) =    -0.19184957645303D+03

 The electronic state is 1-A.
 Alpha  occ. eigenvalues --  -19.72405 -10.70870 -10.65086 -10.64672  -1.19344
 Alpha  occ. eigenvalues --   -0.93048  -0.76228  -0.67076  -0.57243  -0.56241
 Alpha  occ. eigenvalues --   -0.50432  -0.47607  -0.46540  -0.34522  -0.33569
 Alpha virt. eigenvalues --   -0.01786   0.05763   0.07217   0.08205   0.09692
 Alpha virt. eigenvalues --    0.12511   0.14098   0.15391   0.17398   0.19294
 Alpha virt. eigenvalues --    0.20082   0.22342   0.25283   0.26436   0.28687

 Mulliken charges:
               1
     1  C    0.156438
     2  O   -0.352332
     3  C   -0.048542
     4  C   -0.133493
     5  H    0.105097
     6  H    0.091729
     7  H    0.108511
     8  H    0.072593
 Sum of Mulliken charges =   0.00000

 Dipole moment (field-independent basis, Debye):
    X=              3.5178    Y=              0.7173    Z=              0.0782  Tot=              3.5910
 Quadrupole moment (field-independent basis, Debye-Ang):
   XX=            -27.6902   YY=            -21.4330   ZZ=            -25.1643
   XY=             -0.8212   XZ=             -0.0138   YZ=             -0.1052

 Normal termination of Gaussian 09 at Wed Aug 26 08:35:58 2020.
