 Gaussian 09, Revision D.01,
 Gaussian 09:  ES64L-G09RevD.01 24-Apr-2013

 --------------------
 #p B2PLYPD3/Def2QZVP
 --------------------

 --------
 acrolein
 --------
 Symbolic Z-matrix:
 Charge =  0 Multiplicity = 1

                         Standard orientation:
 ---------------------------------------------------------------------
 Center     Atomic      Atomic             Coordinates (Angstroms)
 Number     Number       Type             X           Y           Z
 ---------------------------------------------------------------------
      1          6           0        0.674542    0.329924   -0.028526
      2          8           0        1.809097   -0.075966    0.059099
      3          6           0       -0.537342   -0.503974   -0.078012
      4          6           0       -1.773340    0.158888    0.013184
      5          1           0       -0.416067   -1.604429   -0.108099
      6          1           0       -1.970092    1.342494   -0.039139
      7          1           0       -2.756201   -0.413218    0.335316
      8          1           0        0.486420    1.373853   -0.100749
 ---------------------------------------------------------------------

 SCF Done:  E(RB2PLYPD3) =  -191.588670399     A.U. after   14 cycles
 E2(B2PLYPD3) =    -0.2502503582D+00 E(B2PLYPD3) =    -0.19183892075716D+03

 The electronic state is 1-A.
 Alpha  occ. eigenvalues --  -19.72474 -10.71035 -10.69101 -10.66229  -1.19413
 Alpha  occ. eigenvalues --   -0.91211  -0.74427  -0.66896  -0.55882  -0.54798
 Alpha  occ. eigenvalues --   -0.49918  -0.46794  -0.45692  -0.33962  -0.33210
 Alpha virt. eigenvalues --   -0.02701   0.04969   0.06832   0.07821   0.09304
 Alpha virt. eigenvalues --    0.11804   0.14122   0.15294   0.17627   0.19001
 Alpha virt. eigenvalues --    0.19540   0.21131   0.24233   0.26636   0.28231

 Mulliken charges:
               1
     1  C    0.161609
     2  O   -0.352121
     3  C   -0.048311
     4  C   -0.129247
     5  H    0.113785
     6  H    0.086826
     7  H    0.092713
     8  H    0.074746
 Sum of Mulliken charges =   0.00000

 Dipole moment (field-independent basis, Debye):
    X=             -3.6254    Y=              0.6812    Z=             -0.0480  Tot=              3.6892
 Quadrupole moment (field-independent basis, Debye-Ang):
   XX=            -27.6979   YY=            -21.5952   ZZ=            -25.5734
   XY=              0.2962   XZ=             -1.0238   YZ=             -0.1275

 Normal termination of Gaussian 09 at Wed Aug 26 11:50:40 2020.
