 Gaussian 09, Revision D.01,
 Gaussian 09:  ES64L-G09RevD.01 24-Apr-2013

 --------------------
 #p B2PLYPD3/Def2QZVP
 --------------------

 --------
 acrolein
 --------
 Symbolic Z-matrix:
 Charge =  0 Multiplicity = 1

                         Standard orientation:
 ---------------------------------------------------------------------
 Center     Atomic      Atomic             Coordinates (Angstroms)
 Number     Number       Type             X           Y           Z
 ---------------------------------------------------------------------
      1          6           0        0.685073    0.373681    0.005190
      2          8           0        1.780905   -0.136144   -0.010023
      3          6           0       -0.565581   -0.444644    0.036461
      4          6           0       -1.754715    0.129638   -0.014489
      5          1           0       -0.415789   -1.540235   -0.046749
      6          1           0       -1.903330    1.240826    0.009924
      7          1           0       -2.677860   -0.432048   -0.036398
      8          1           0        0.561083    1.468559   -0.009569
 ---------------------------------------------------------------------

 SCF Done:  E(RB2PLYPD3) =  -191.614465802     A.U. after   12 cycles
 E2(B2PLYPD3) =    -0.2470782044D+00 E(B2PLYPD3) =    -0.19186154400616D+03

 The electronic state is 1-A.
 Alpha  occ. eigenvalues --  -19.72890 -10.71763 -10.65434 -10.64612  -1.19733
 Alpha  occ. eigenvalues --   -0.92528  -0.74844  -0.66631  -0.56635  -0.55896
 Alpha  occ. eigenvalues --   -0.50813  -0.46805  -0.45879  -0.34790  -0.33831
 Alpha virt. eigenvalues --   -0.01338   0.05703   0.07154   0.07944   0.09658
 Alpha virt. eigenvalues --    0.12323   0.13991   0.15360   0.17481   0.19560
 Alpha virt. eigenvalues --    0.19898   0.21677   0.25344   0.26530   0.28589

 Mulliken charges:
               1
     1  C    0.161569
     2  O   -0.345108
     3  C   -0.056330
     4  C   -0.124529
     5  H    0.107380
     6  H    0.078168
     7  H    0.099404
     8  H    0.079446
 Sum of Mulliken charges =   0.00000

 Dipole moment (field-independent basis, Debye):
    X=             -3.3439    Y=              0.8616    Z=             -0.0425  Tot=              3.4534
 Quadrupole moment (field-independent basis, Debye-Ang):
   XX=            -27.4035   YY=            -21.6537   ZZ=            -25.2800
   XY=              0.9625   XZ=              0.1502   YZ=              0.1205

 Normal termination of Gaussian 09 at Wed Aug 26 09:01:52 2020.
