 Gaussian 09, Revision D.01,
 Gaussian 09:  ES64L-G09RevD.01 24-Apr-2013

 --------------------
 #p B2PLYPD3/Def2QZVP
 --------------------

 --------
 acrolein
 --------
 Symbolic Z-matrix:
 Charge =  0 Multiplicity = 1

                         Standard orientation:
 ---------------------------------------------------------------------
 Center     Atomic      Atomic             Coordinates (Angstroms)
 Number     Number       Type             X           Y           Z
 ---------------------------------------------------------------------
      1          6           0       -0.697714    0.367915    0.049883
      2          8           0       -1.746838   -0.147336   -0.035889
      3          6           0        0.541668   -0.436931    0.020262
      4          6           0        1.760795    0.143838   -0.041150
      5          1           0        0.504779   -1.460548    0.110249
      6          1           0        1.782399    1.247422    0.087963
      7          1           0        2.675992   -0.462443   -0.057320
      8          1           0       -0.616960    1.405320   -0.027749
 ---------------------------------------------------------------------

 SCF Done:  E(RB2PLYPD3) =  -191.605582615     A.U. after   13 cycles
 E2(B2PLYPD3) =    -0.2452337519D+00 E(B2PLYPD3) =    -0.19185081636646D+03

 The electronic state is 1-A.
 Alpha  occ. eigenvalues --  -19.72452 -10.70441 -10.65509 -10.63504  -1.21951
 Alpha  occ. eigenvalues --   -0.92124  -0.74697  -0.68220  -0.57611  -0.56103
 Alpha  occ. eigenvalues --   -0.50665  -0.48132  -0.46772  -0.33977  -0.33757
 Alpha virt. eigenvalues --   -0.01154   0.05825   0.07438   0.08142   0.09792
 Alpha virt. eigenvalues --    0.12433   0.14077   0.15475   0.18220   0.19342
 Alpha virt. eigenvalues --    0.20112   0.21400   0.25404   0.26318   0.29117

 Mulliken charges:
               1
     1  C    0.153942
     2  O   -0.325591
     3  C   -0.058052
     4  C   -0.137546
     5  H    0.106379
     6  H    0.078228
     7  H    0.101080
     8  H    0.081561
 Sum of Mulliken charges =   0.00000

 Dipole moment (field-independent basis, Debye):
    X=              3.0822    Y=              0.8433    Z=              0.2568  Tot=              3.2057
 Quadrupole moment (field-independent basis, Debye-Ang):
   XX=            -27.2746   YY=            -21.6521   ZZ=            -25.1155
   XY=             -1.5631   XZ=             -0.0916   YZ=             -0.0023

 Normal termination of Gaussian 09 at Wed Aug 26 10:36:29 2020.
