 Gaussian 09, Revision D.01,
 Gaussian 09:  ES64L-G09RevD.01 24-Apr-2013

 --------------------
 #p B2PLYPD3/Def2QZVP
 --------------------

 --------
 acrolein
 --------
 Symbolic Z-matrix:
 Charge =  0 Multiplicity = 1

                         Standard orientation:
 ---------------------------------------------------------------------
 Center     Atomic      Atomic             Coordinates (Angstroms)
 Number     Number       Type             X           Y           Z
 ---------------------------------------------------------------------
      1          6           0       -0.676905    0.349257    0.022701
      2          8           0       -1.754866   -0.141990   -0.050222
      3          6           0        0.513154   -0.399097    0.030578
      4          6           0        1.761936    0.103048   -0.020424
      5          1           0        0.341913   -1.449419    0.145240
      6          1           0        1.862580    1.138081   -0.189983
      7          1           0        2.826951   -0.411786   -0.012276
      8          1           0       -0.581631    1.539800    0.261661
 ---------------------------------------------------------------------

 SCF Done:  E(RB2PLYPD3) =  -191.594881390     A.U. after   13 cycles
 E2(B2PLYPD3) =    -0.2477854536D+00 E(B2PLYPD3) =    -0.19184266684398D+03

 The electronic state is 1-A.
 Alpha  occ. eigenvalues --  -19.72905 -10.71791 -10.66689 -10.64227  -1.21327
 Alpha  occ. eigenvalues --   -0.93161  -0.76061  -0.65764  -0.57263  -0.55863
 Alpha  occ. eigenvalues --   -0.50723  -0.47821  -0.45573  -0.34613  -0.33632
 Alpha virt. eigenvalues --   -0.02308   0.05509   0.06878   0.08700   0.09746
 Alpha virt. eigenvalues --    0.12017   0.14097   0.15332   0.17506   0.19160
 Alpha virt. eigenvalues --    0.20071   0.21060   0.25132   0.26677   0.28943

 Mulliken charges:
               1
     1  C    0.156370
     2  O   -0.330036
     3  C   -0.034336
     4  C   -0.122681
     5  H    0.107204
     6  H    0.082673
     7  H    0.100004
     8  H    0.040803
 Sum of Mulliken charges =   0.00000

 Dipole moment (field-independent basis, Debye):
    X=              3.4392    Y=              0.6550    Z=              0.1424  Tot=              3.5039
 Quadrupole moment (field-independent basis, Debye-Ang):
   XX=            -26.3023   YY=            -22.5735   ZZ=            -25.2019
   XY=             -0.8330   XZ=             -0.5136   YZ=             -0.3232

 Normal termination of Gaussian 09 at Wed Aug 26 13:41:09 2020.
