 Gaussian 09, Revision D.01,
 Gaussian 09:  ES64L-G09RevD.01 24-Apr-2013

 --------------------
 #p B2PLYPD3/Def2QZVP
 --------------------

 --------
 acrolein
 --------
 Symbolic Z-matrix:
 Charge =  0 Multiplicity = 1

                         Standard orientation:
 ---------------------------------------------------------------------
 Center     Atomic      Atomic             Coordinates (Angstroms)
 Number     Number       Type             X           Y           Z
 ---------------------------------------------------------------------
      1          6           0       -0.691390    0.357352    0.027773
      2          8           0       -1.777190   -0.133106   -0.034045
      3          6           0        0.545636   -0.444401    0.029181
      4          6           0        1.767138    0.149154   -0.034984
      5          1           0        0.425001   -1.497016    0.041518
      6          1           0        1.810599    1.180177   -0.097696
      7          1           0        2.770780   -0.460880    0.050959
      8          1           0       -0.517160    1.469936    0.145758
 ---------------------------------------------------------------------

 SCF Done:  E(RB2PLYPD3) =  -191.607148310     A.U. after   13 cycles
 E2(B2PLYPD3) =    -0.2473341207D+00 E(B2PLYPD3) =    -0.19185448243119D+03

 The electronic state is 1-A.
 Alpha  occ. eigenvalues --  -19.72979 -10.71738 -10.66153 -10.64366  -1.20779
 Alpha  occ. eigenvalues --   -0.92235  -0.74854  -0.67143  -0.56699  -0.55678
 Alpha  occ. eigenvalues --   -0.50366  -0.47334  -0.47207  -0.34189  -0.33795
 Alpha virt. eigenvalues --   -0.01808   0.05630   0.07126   0.08182   0.09805
 Alpha virt. eigenvalues --    0.12322   0.13737   0.15469   0.17663   0.19490
 Alpha virt. eigenvalues --    0.20144   0.21171   0.25256   0.26339   0.28836

 Mulliken charges:
               1
     1  C    0.154038
     2  O   -0.336135
     3  C   -0.042337
     4  C   -0.139704
     5  H    0.109587
     6  H    0.090344
     7  H    0.099226
     8  H    0.064981
 Sum of Mulliken charges =   0.00000

 Dipole moment (field-independent basis, Debye):
    X=              3.3011    Y=              0.7676    Z=              0.1461  Tot=              3.3923
 Quadrupole moment (field-independent basis, Debye-Ang):
   XX=            -27.2587   YY=            -21.8768   ZZ=            -25.3221
   XY=             -0.9947   XZ=             -0.1674   YZ=             -0.1462

 Normal termination of Gaussian 09 at Wed Aug 26 08:44:03 2020.
