 Gaussian 09, Revision D.01,
 Gaussian 09:  ES64L-G09RevD.01 24-Apr-2013

 --------------------
 #p B2PLYPD3/Def2QZVP
 --------------------

 --------
 acrolein
 --------
 Symbolic Z-matrix:
 Charge =  0 Multiplicity = 1

                         Standard orientation:
 ---------------------------------------------------------------------
 Center     Atomic      Atomic             Coordinates (Angstroms)
 Number     Number       Type             X           Y           Z
 ---------------------------------------------------------------------
      1          6           0        0.671845    0.346291    0.017463
      2          8           0        1.792051   -0.120250   -0.019803
      3          6           0       -0.571151   -0.450001    0.018157
      4          6           0       -1.753203    0.142331   -0.020060
      5          1           0       -0.462310   -1.498789    0.022346
      6          1           0       -1.838892    1.205682   -0.041974
      7          1           0       -2.627447   -0.410936    0.014386
      8          1           0        0.507298    1.434312    0.070301
 ---------------------------------------------------------------------

 SCF Done:  E(RB2PLYPD3) =  -191.615574266     A.U. after   12 cycles
 E2(B2PLYPD3) =    -0.2465562575D+00 E(B2PLYPD3) =    -0.19186213052377D+03

 The electronic state is 1-A.
 Alpha  occ. eigenvalues --  -19.72871 -10.71593 -10.64597 -10.63957  -1.19308
 Alpha  occ. eigenvalues --   -0.93434  -0.75870  -0.67458  -0.57055  -0.56602
 Alpha  occ. eigenvalues --   -0.50838  -0.47519  -0.46623  -0.34862  -0.33830
 Alpha virt. eigenvalues --   -0.01652   0.05857   0.07339   0.08200   0.09774
 Alpha virt. eigenvalues --    0.12758   0.14032   0.15375   0.17580   0.19713
 Alpha virt. eigenvalues --    0.20089   0.21895   0.25524   0.26521   0.28653

 Mulliken charges:
               1
     1  C    0.154325
     2  O   -0.350299
     3  C   -0.037698
     4  C   -0.130201
     5  H    0.105575
     6  H    0.084479
     7  H    0.102065
     8  H    0.071755
 Sum of Mulliken charges =   0.00000

 Dipole moment (field-independent basis, Debye):
    X=             -3.5021    Y=              0.7499    Z=              0.0843  Tot=              3.5824
 Quadrupole moment (field-independent basis, Debye-Ang):
   XX=            -27.4665   YY=            -21.7277   ZZ=            -25.0826
   XY=              0.9031   XZ=              0.1181   YZ=             -0.0528

 Normal termination of Gaussian 09 at Wed Aug 26 12:47:29 2020.
