 Gaussian 09, Revision D.01,
 Gaussian 09:  ES64L-G09RevD.01 24-Apr-2013

 --------------------
 #p B2PLYPD3/Def2QZVP
 --------------------

 --------
 acrolein
 --------
 Symbolic Z-matrix:
 Charge =  0 Multiplicity = 1

                         Standard orientation:
 ---------------------------------------------------------------------
 Center     Atomic      Atomic             Coordinates (Angstroms)
 Number     Number       Type             X           Y           Z
 ---------------------------------------------------------------------
      1          6           0        0.671685    0.339099    0.001667
      2          8           0        1.799709   -0.110294   -0.011557
      3          6           0       -0.574587   -0.465111    0.008629
      4          6           0       -1.750421    0.145052   -0.005938
      5          1           0       -0.463612   -1.520422    0.038038
      6          1           0       -1.865951    1.242861   -0.039654
      7          1           0       -2.613375   -0.412228   -0.012700
      8          1           0        0.465206    1.457903    0.080624
 ---------------------------------------------------------------------

 SCF Done:  E(RB2PLYPD3) =  -191.613169720     A.U. after   12 cycles
 E2(B2PLYPD3) =    -0.2472726170D+00 E(B2PLYPD3) =    -0.19186044233702D+03

 The electronic state is 1-A.
 Alpha  occ. eigenvalues --  -19.73043 -10.72054 -10.64993 -10.64258  -1.19343
 Alpha  occ. eigenvalues --   -0.93299  -0.75598  -0.66752  -0.57023  -0.55960
 Alpha  occ. eigenvalues --   -0.50777  -0.47401  -0.46617  -0.34933  -0.33716
 Alpha virt. eigenvalues --   -0.01647   0.05792   0.07185   0.08072   0.09709
 Alpha virt. eigenvalues --    0.12702   0.13920   0.15315   0.17457   0.19612
 Alpha virt. eigenvalues --    0.20051   0.21833   0.25341   0.26628   0.28392

 Mulliken charges:
               1
     1  C    0.160837
     2  O   -0.347352
     3  C   -0.041250
     4  C   -0.127010
     5  H    0.105364
     6  H    0.085836
     7  H    0.101930
     8  H    0.061645
 Sum of Mulliken charges =   0.00000

 Dipole moment (field-independent basis, Debye):
    X=             -3.5272    Y=              0.6601    Z=              0.0425  Tot=              3.5887
 Quadrupole moment (field-independent basis, Debye-Ang):
   XX=            -27.5247   YY=            -21.7508   ZZ=            -25.1796
   XY=              0.7209   XZ=              0.1343   YZ=             -0.0624

 Normal termination of Gaussian 09 at Wed Aug 26 18:17:29 2020.
