 Gaussian 09, Revision D.01,
 Gaussian 09:  ES64L-G09RevD.01 24-Apr-2013

 --------------------
 #p B2PLYPD3/Def2QZVP
 --------------------

 --------
 acrolein
 --------
 Symbolic Z-matrix:
 Charge =  0 Multiplicity = 1

                         Standard orientation:
 ---------------------------------------------------------------------
 Center     Atomic      Atomic             Coordinates (Angstroms)
 Number     Number       Type             X           Y           Z
 ---------------------------------------------------------------------
      1          6           0       -0.657861    0.370100   -0.029265
      2          8           0       -1.771198   -0.143232    0.037041
      3          6           0        0.538329   -0.407261   -0.032648
      4          6           0        1.761704    0.107753    0.028222
      5          1           0        0.433144   -1.489945    0.002883
      6          1           0        1.793023    1.144587    0.239323
      7          1           0        2.622751   -0.390081   -0.124548
      8          1           0       -0.532366    1.457741   -0.211842
 ---------------------------------------------------------------------

 SCF Done:  E(RB2PLYPD3) =  -191.604984349     A.U. after   14 cycles
 E2(B2PLYPD3) =    -0.2477227813D+00 E(B2PLYPD3) =    -0.19185270713060D+03

 The electronic state is 1-A.
 Alpha  occ. eigenvalues --  -19.72722 -10.71498 -10.64489 -10.63961  -1.18562
 Alpha  occ. eigenvalues --   -0.93839  -0.76992  -0.67014  -0.57835  -0.56777
 Alpha  occ. eigenvalues --   -0.51046  -0.46555  -0.46255  -0.34444  -0.33982
 Alpha virt. eigenvalues --   -0.02545   0.05862   0.07195   0.08115   0.09916
 Alpha virt. eigenvalues --    0.12627   0.14002   0.15661   0.17188   0.18930
 Alpha virt. eigenvalues --    0.20382   0.22166   0.25397   0.26545   0.29304

 Mulliken charges:
               1
     1  C    0.151413
     2  O   -0.357762
     3  C   -0.035778
     4  C   -0.123021
     5  H    0.102708
     6  H    0.074933
     7  H    0.110650
     8  H    0.076856
 Sum of Mulliken charges =   0.00000

 Dipole moment (field-independent basis, Debye):
    X=              3.5961    Y=              0.8365    Z=             -0.0951  Tot=              3.6933
 Quadrupole moment (field-independent basis, Debye-Ang):
   XX=            -27.2559   YY=            -21.9235   ZZ=            -24.9695
   XY=             -1.2285   XZ=              0.2381   YZ=              0.1993

 Normal termination of Gaussian 09 at Wed Aug 26 11:05:05 2020.
