 Gaussian 09, Revision D.01,
 Gaussian 09:  ES64L-G09RevD.01 24-Apr-2013

 --------------------
 #p B2PLYPD3/Def2QZVP
 --------------------

 --------
 acrolein
 --------
 Symbolic Z-matrix:
 Charge =  0 Multiplicity = 1

                         Standard orientation:
 ---------------------------------------------------------------------
 Center     Atomic      Atomic             Coordinates (Angstroms)
 Number     Number       Type             X           Y           Z
 ---------------------------------------------------------------------
      1          6           0        0.678161   -0.332927    0.102444
      2          8           0        1.774277    0.072976   -0.071846
      3          6           0       -0.561229    0.501118    0.080848
      4          6           0       -1.757269   -0.176125   -0.065086
      5          1           0       -0.351432    1.659590   -0.015222
      6          1           0       -1.853095   -1.267419    0.058222
      7          1           0       -2.721135    0.328943   -0.119368
      8          1           0        0.573471   -1.257323   -0.058088
 ---------------------------------------------------------------------

 SCF Done:  E(RB2PLYPD3) =  -191.576735850     A.U. after   14 cycles
 E2(B2PLYPD3) =    -0.2471534530D+00 E(B2PLYPD3) =    -0.19182388930317D+03

 The electronic state is 1-A.
 Alpha  occ. eigenvalues --  -19.72250 -10.69249 -10.66435 -10.66280  -1.21153
 Alpha  occ. eigenvalues --   -0.91349  -0.75598  -0.68577  -0.56891  -0.55369
 Alpha  occ. eigenvalues --   -0.50522  -0.47303  -0.46353  -0.34150  -0.33218
 Alpha virt. eigenvalues --   -0.01745   0.05760   0.07177   0.07357   0.09664
 Alpha virt. eigenvalues --    0.12647   0.14233   0.15344   0.17315   0.19562
 Alpha virt. eigenvalues --    0.20087   0.21493   0.23722   0.27439   0.29029

 Mulliken charges:
               1
     1  C    0.177563
     2  O   -0.341248
     3  C   -0.067440
     4  C   -0.133227
     5  H    0.105763
     6  H    0.085808
     7  H    0.098162
     8  H    0.074619
 Sum of Mulliken charges =   0.00000

 Dipole moment (field-independent basis, Debye):
    X=             -3.2971    Y=             -0.7641    Z=              0.1883  Tot=              3.3897
 Quadrupole moment (field-independent basis, Debye-Ang):
   XX=            -27.3573   YY=            -21.5384   ZZ=            -25.2888
   XY=             -0.4175   XZ=              0.5531   YZ=             -0.1912

 Normal termination of Gaussian 09 at Wed Aug 26 14:58:55 2020.
