 Gaussian 09, Revision D.01,
 Gaussian 09:  ES64L-G09RevD.01 24-Apr-2013

 --------------------
 #p B2PLYPD3/Def2QZVP
 --------------------

 --------
 acrolein
 --------
 Symbolic Z-matrix:
 Charge =  0 Multiplicity = 1

                         Standard orientation:
 ---------------------------------------------------------------------
 Center     Atomic      Atomic             Coordinates (Angstroms)
 Number     Number       Type             X           Y           Z
 ---------------------------------------------------------------------
      1          6           0       -0.691836    0.377261    0.008383
      2          8           0       -1.776988   -0.150118   -0.018287
      3          6           0        0.551755   -0.445244    0.005810
      4          6           0        1.765921    0.134754   -0.035338
      5          1           0        0.455449   -1.467805    0.087113
      6          1           0        1.856845    1.170853   -0.034026
      7          1           0        2.702896   -0.435702    0.084587
      8          1           0       -0.554325    1.532966    0.135497
 ---------------------------------------------------------------------

 SCF Done:  E(RB2PLYPD3) =  -191.609007641     A.U. after   12 cycles
 E2(B2PLYPD3) =    -0.2474647321D+00 E(B2PLYPD3) =    -0.19185647237326D+03

 The electronic state is 1-A.
 Alpha  occ. eigenvalues --  -19.73107 -10.72490 -10.65082 -10.64128  -1.20037
 Alpha  occ. eigenvalues --   -0.92402  -0.74864  -0.67125  -0.56536  -0.56154
 Alpha  occ. eigenvalues --   -0.50614  -0.47542  -0.46789  -0.34311  -0.33833
 Alpha virt. eigenvalues --   -0.01668   0.05783   0.07047   0.07977   0.09798
 Alpha virt. eigenvalues --    0.12387   0.13877   0.15443   0.17705   0.19588
 Alpha virt. eigenvalues --    0.20076   0.21611   0.25160   0.26377   0.28699

 Mulliken charges:
               1
     1  C    0.155921
     2  O   -0.338378
     3  C   -0.052668
     4  C   -0.129084
     5  H    0.114954
     6  H    0.083685
     7  H    0.094753
     8  H    0.070816
 Sum of Mulliken charges =   0.00000

 Dipole moment (field-independent basis, Debye):
    X=              3.2946    Y=              0.8310    Z=              0.2174  Tot=              3.4047
 Quadrupole moment (field-independent basis, Debye-Ang):
   XX=            -27.3081   YY=            -21.7696   ZZ=            -25.2629
   XY=             -1.0851   XZ=              0.1211   YZ=             -0.1451

 Normal termination of Gaussian 09 at Wed Aug 26 08:10:33 2020.
