 Gaussian 09, Revision D.01,
 Gaussian 09:  ES64L-G09RevD.01 24-Apr-2013

 --------------------
 #p B2PLYPD3/Def2QZVP
 --------------------

 --------
 acrolein
 --------
 Symbolic Z-matrix:
 Charge =  0 Multiplicity = 1

                         Standard orientation:
 ---------------------------------------------------------------------
 Center     Atomic      Atomic             Coordinates (Angstroms)
 Number     Number       Type             X           Y           Z
 ---------------------------------------------------------------------
      1          6           0        0.692706    0.367535    0.013133
      2          8           0        1.788121   -0.160733   -0.022018
      3          6           0       -0.571678   -0.409640    0.088344
      4          6           0       -1.759890    0.135371   -0.038096
      5          1           0       -0.456200   -1.505618   -0.119135
      6          1           0       -1.727035    1.036860    0.071663
      7          1           0       -2.795285   -0.391982   -0.093869
      8          1           0        0.506730    1.587007   -0.062802
 ---------------------------------------------------------------------

 SCF Done:  E(RB2PLYPD3) =  -191.566640861     A.U. after   14 cycles
 E2(B2PLYPD3) =    -0.2488621758D+00 E(B2PLYPD3) =    -0.19181550303673D+03

 The electronic state is 1-A.
 Alpha  occ. eigenvalues --  -19.73729 -10.73573 -10.64584 -10.63996  -1.19779
 Alpha  occ. eigenvalues --   -0.94086  -0.75522  -0.66306  -0.56644  -0.56058
 Alpha  occ. eigenvalues --   -0.50712  -0.47154  -0.45724  -0.35253  -0.33964
 Alpha virt. eigenvalues --   -0.01857   0.05675   0.06496   0.07832   0.09929
 Alpha virt. eigenvalues --    0.12194   0.13493   0.14683   0.17168   0.19520
 Alpha virt. eigenvalues --    0.20541   0.22284   0.24069   0.26395   0.29150

 Mulliken charges:
               1
     1  C    0.152970
     2  O   -0.334011
     3  C   -0.025432
     4  C   -0.138925
     5  H    0.096313
     6  H    0.097715
     7  H    0.105126
     8  H    0.046243
 Sum of Mulliken charges =   0.00000

 Dipole moment (field-independent basis, Debye):
    X=             -3.4012    Y=              0.8145    Z=             -0.0795  Tot=              3.4983
 Quadrupole moment (field-independent basis, Debye-Ang):
   XX=            -26.8366   YY=            -22.3856   ZZ=            -25.1868
   XY=              1.1587   XZ=              0.3129   YZ=              0.3169

 Normal termination of Gaussian 09 at Wed Aug 26 10:54:32 2020.
