 Gaussian 09, Revision D.01,
 Gaussian 09:  ES64L-G09RevD.01 24-Apr-2013

 --------------------
 #p B2PLYPD3/Def2QZVP
 --------------------

 --------
 acrolein
 --------
 Symbolic Z-matrix:
 Charge =  0 Multiplicity = 1

                         Standard orientation:
 ---------------------------------------------------------------------
 Center     Atomic      Atomic             Coordinates (Angstroms)
 Number     Number       Type             X           Y           Z
 ---------------------------------------------------------------------
      1          6           0       -0.658367   -0.343087    0.069686
      2          8           0       -1.800203    0.108534   -0.055108
      3          6           0        0.577901    0.444036   -0.014209
      4          6           0        1.755864   -0.151127   -0.042575
      5          1           0        0.415014    1.672873    0.198005
      6          1           0        1.783635   -1.294154   -0.072042
      7          1           0        2.727548    0.402048    0.049257
      8          1           0       -0.576958   -1.347969    0.188228
 ---------------------------------------------------------------------

 SCF Done:  E(RB2PLYPD3) =  -191.587691818     A.U. after   12 cycles
 E2(B2PLYPD3) =    -0.2492674074D+00 E(B2PLYPD3) =    -0.19183695922582D+03

 The electronic state is 1-A.
 Alpha  occ. eigenvalues --  -19.72679 -10.71017 -10.66563 -10.66056  -1.18096
 Alpha  occ. eigenvalues --   -0.93058  -0.75667  -0.66461  -0.56371  -0.55505
 Alpha  occ. eigenvalues --   -0.50247  -0.46078  -0.44077  -0.34965  -0.34057
 Alpha virt. eigenvalues --   -0.02038   0.05526   0.05799   0.07974   0.09454
 Alpha virt. eigenvalues --    0.12318   0.13926   0.15073   0.17092   0.18986
 Alpha virt. eigenvalues --    0.20014   0.21227   0.24846   0.27017   0.29378

 Mulliken charges:
               1
     1  C    0.160234
     2  O   -0.358815
     3  C   -0.036923
     4  C   -0.119289
     5  H    0.088895
     6  H    0.077761
     7  H    0.108077
     8  H    0.080060
 Sum of Mulliken charges =   0.00000

 Dipole moment (field-independent basis, Debye):
    X=              3.5820    Y=             -0.8768    Z=              0.4363  Tot=              3.7134
 Quadrupole moment (field-independent basis, Debye-Ang):
   XX=            -27.7544   YY=            -21.6602   ZZ=            -25.3747
   XY=              0.9808   XZ=             -0.1650   YZ=              0.3369

 Normal termination of Gaussian 09 at Wed Aug 26 12:01:34 2020.
