 Gaussian 09, Revision D.01,
 Gaussian 09:  ES64L-G09RevD.01 24-Apr-2013

 --------------------
 #p B2PLYPD3/Def2QZVP
 --------------------

 --------
 acrolein
 --------
 Symbolic Z-matrix:
 Charge =  0 Multiplicity = 1

                         Standard orientation:
 ---------------------------------------------------------------------
 Center     Atomic      Atomic             Coordinates (Angstroms)
 Number     Number       Type             X           Y           Z
 ---------------------------------------------------------------------
      1          6           0        0.657278    0.331093    0.031817
      2          8           0        1.789583   -0.121511   -0.020620
      3          6           0       -0.560787   -0.426869    0.036423
      4          6           0       -1.736102    0.122745   -0.027653
      5          1           0       -0.409433   -1.451777    0.020969
      6          1           0       -1.829203    1.137070    0.175926
      7          1           0       -2.701976   -0.392729   -0.145966
      8          1           0        0.461607    1.517713   -0.129484
 ---------------------------------------------------------------------

 SCF Done:  E(RB2PLYPD3) =  -191.601435277     A.U. after   13 cycles
 E2(B2PLYPD3) =    -0.2478666610D+00 E(B2PLYPD3) =    -0.19184930193785D+03

 The electronic state is 1-A.
 Alpha  occ. eigenvalues --  -19.73211 -10.72452 -10.65084 -10.63562  -1.19171
 Alpha  occ. eigenvalues --   -0.94631  -0.76302  -0.66640  -0.57462  -0.56105
 Alpha  occ. eigenvalues --   -0.50575  -0.47245  -0.46623  -0.35308  -0.33688
 Alpha virt. eigenvalues --   -0.02158   0.05748   0.07110   0.08089   0.09866
 Alpha virt. eigenvalues --    0.12597   0.13896   0.15172   0.17258   0.19475
 Alpha virt. eigenvalues --    0.20692   0.21735   0.24469   0.26927   0.28652

 Mulliken charges:
               1
     1  C    0.163168
     2  O   -0.348684
     3  C   -0.020672
     4  C   -0.118542
     5  H    0.104525
     6  H    0.087703
     7  H    0.098114
     8  H    0.034388
 Sum of Mulliken charges =   0.00000

 Dipole moment (field-independent basis, Debye):
    X=             -3.6516    Y=              0.5656    Z=              0.0885  Tot=              3.6962
 Quadrupole moment (field-independent basis, Debye-Ang):
   XX=            -27.0008   YY=            -22.3808   ZZ=            -24.9730
   XY=              0.7026   XZ=              0.1686   YZ=              0.2059

 Normal termination of Gaussian 09 at Wed Aug 26 13:48:31 2020.
