 Gaussian 09, Revision D.01,
 Gaussian 09:  ES64L-G09RevD.01 24-Apr-2013

 --------------------
 #p B2PLYPD3/Def2QZVP
 --------------------

 --------
 acrolein
 --------
 Symbolic Z-matrix:
 Charge =  0 Multiplicity = 1

                         Standard orientation:
 ---------------------------------------------------------------------
 Center     Atomic      Atomic             Coordinates (Angstroms)
 Number     Number       Type             X           Y           Z
 ---------------------------------------------------------------------
      1          6           0       -0.673492    0.351589    0.004150
      2          8           0       -1.778899   -0.132814   -0.013747
      3          6           0        0.555688   -0.437733    0.024498
      4          6           0        1.751074    0.145855   -0.021646
      5          1           0        0.453919   -1.524920    0.027946
      6          1           0        1.782126    1.161840    0.027624
      7          1           0        2.719932   -0.419486   -0.027290
      8          1           0       -0.524401    1.486819    0.039678
 ---------------------------------------------------------------------

 SCF Done:  E(RB2PLYPD3) =  -191.611525814     A.U. after   12 cycles
 E2(B2PLYPD3) =    -0.2471811077D+00 E(B2PLYPD3) =    -0.19185870692186D+03

 The electronic state is 1-A.
 Alpha  occ. eigenvalues --  -19.72906 -10.71924 -10.65121 -10.64350  -1.19849
 Alpha  occ. eigenvalues --   -0.93270  -0.75379  -0.66795  -0.56848  -0.56207
 Alpha  occ. eigenvalues --   -0.50417  -0.47188  -0.46830  -0.34725  -0.33861
 Alpha virt. eigenvalues --   -0.01749   0.05791   0.06978   0.08296   0.09826
 Alpha virt. eigenvalues --    0.12516   0.13963   0.15336   0.17289   0.19883
 Alpha virt. eigenvalues --    0.20293   0.21463   0.25527   0.26187   0.28959

 Mulliken charges:
               1
     1  C    0.151390
     2  O   -0.343303
     3  C   -0.029533
     4  C   -0.132417
     5  H    0.103218
     6  H    0.087370
     7  H    0.101701
     8  H    0.061573
 Sum of Mulliken charges =   0.00000

 Dipole moment (field-independent basis, Debye):
    X=              3.4481    Y=              0.7524    Z=              0.0707  Tot=              3.5300
 Quadrupole moment (field-independent basis, Debye-Ang):
   XX=            -27.2533   YY=            -21.8878   ZZ=            -25.2026
   XY=             -1.0577   XZ=             -0.0820   YZ=              0.0400

 Normal termination of Gaussian 09 at Wed Aug 26 19:24:47 2020.
