 Gaussian 09, Revision D.01,
 Gaussian 09:  ES64L-G09RevD.01 24-Apr-2013

 --------------------
 #p B2PLYPD3/Def2QZVP
 --------------------

 --------
 acrolein
 --------
 Symbolic Z-matrix:
 Charge =  0 Multiplicity = 1

                         Standard orientation:
 ---------------------------------------------------------------------
 Center     Atomic      Atomic             Coordinates (Angstroms)
 Number     Number       Type             X           Y           Z
 ---------------------------------------------------------------------
      1          6           0       -0.642498    0.305356   -0.039182
      2          8           0       -1.811312   -0.087012    0.043635
      3          6           0        0.574934   -0.458359   -0.077931
      4          6           0        1.751742    0.138429    0.013671
      5          1           0        0.390411   -1.595946    0.064032
      6          1           0        1.833782    1.318285    0.070448
      7          1           0        2.616013   -0.413330    0.167564
      8          1           0       -0.454776    1.474535   -0.030474
 ---------------------------------------------------------------------

 SCF Done:  E(RB2PLYPD3) =  -191.595874487     A.U. after   12 cycles
 E2(B2PLYPD3) =    -0.2501166023D+00 E(B2PLYPD3) =    -0.19184599108880D+03

 The electronic state is 1-A.
 Alpha  occ. eigenvalues --  -19.72988 -10.72339 -10.66676 -10.65470  -1.18019
 Alpha  occ. eigenvalues --   -0.93965  -0.76280  -0.64728  -0.57357  -0.54920
 Alpha  occ. eigenvalues --   -0.50054  -0.46412  -0.45656  -0.35265  -0.33594
 Alpha virt. eigenvalues --   -0.02562   0.05375   0.06435   0.08293   0.09667
 Alpha virt. eigenvalues --    0.12321   0.13531   0.15102   0.16855   0.19350
 Alpha virt. eigenvalues --    0.19817   0.21788   0.24659   0.26623   0.28644

 Mulliken charges:
               1
     1  C    0.167179
     2  O   -0.358250
     3  C   -0.027253
     4  C   -0.109645
     5  H    0.095445
     6  H    0.085199
     7  H    0.111560
     8  H    0.035764
 Sum of Mulliken charges =   0.00000

 Dipole moment (field-independent basis, Debye):
    X=              3.8077    Y=              0.5057    Z=              0.1135  Tot=              3.8429
 Quadrupole moment (field-independent basis, Debye-Ang):
   XX=            -27.6279   YY=            -22.0011   ZZ=            -25.3482
   XY=             -0.5360   XZ=              0.7750   YZ=             -0.1382

 Normal termination of Gaussian 09 at Wed Aug 26 11:17:55 2020.
