 Gaussian 09, Revision D.01,
 Gaussian 09:  ES64L-G09RevD.01 24-Apr-2013

 --------------------
 #p B2PLYPD3/Def2QZVP
 --------------------

 --------
 acrolein
 --------
 Symbolic Z-matrix:
 Charge =  0 Multiplicity = 1

                         Standard orientation:
 ---------------------------------------------------------------------
 Center     Atomic      Atomic             Coordinates (Angstroms)
 Number     Number       Type             X           Y           Z
 ---------------------------------------------------------------------
      1          6           0       -0.669283    0.351304   -0.018186
      2          8           0       -1.782264   -0.127386    0.017767
      3          6           0        0.556334   -0.431363   -0.018951
      4          6           0        1.744382    0.139465    0.017283
      5          1           0        0.460568   -1.523663   -0.036209
      6          1           0        1.824381    1.194029   -0.028436
      7          1           0        2.709529   -0.426976    0.047324
      8          1           0       -0.524962    1.419256   -0.005695
 ---------------------------------------------------------------------

 SCF Done:  E(RB2PLYPD3) =  -191.614970329     A.U. after   12 cycles
 E2(B2PLYPD3) =    -0.2467476226D+00 E(B2PLYPD3) =    -0.19186171795111D+03

 The electronic state is 1-A.
 Alpha  occ. eigenvalues --  -19.72719 -10.71212 -10.65372 -10.64142  -1.19414
 Alpha  occ. eigenvalues --   -0.93478  -0.75656  -0.67335  -0.57108  -0.56172
 Alpha  occ. eigenvalues --   -0.50548  -0.46898  -0.46330  -0.34886  -0.33972
 Alpha virt. eigenvalues --   -0.01713   0.05705   0.07115   0.08371   0.09738
 Alpha virt. eigenvalues --    0.12563   0.14158   0.15340   0.17507   0.19855
 Alpha virt. eigenvalues --    0.20042   0.21439   0.25652   0.26465   0.28838

 Mulliken charges:
               1
     1  C    0.150627
     2  O   -0.350783
     3  C   -0.029951
     4  C   -0.130292
     5  H    0.102125
     6  H    0.082870
     7  H    0.099944
     8  H    0.075460
 Sum of Mulliken charges =   0.00000

 Dipole moment (field-independent basis, Debye):
    X=              3.5073    Y=              0.8158    Z=             -0.0785  Tot=              3.6017
 Quadrupole moment (field-independent basis, Debye-Ang):
   XX=            -27.3537   YY=            -21.7986   ZZ=            -25.1281
   XY=             -1.0236   XZ=              0.1349   YZ=             -0.0217

 Normal termination of Gaussian 09 at Wed Aug 26 15:56:20 2020.
