 Gaussian 09, Revision D.01,
 Gaussian 09:  ES64L-G09RevD.01 24-Apr-2013

 --------------------
 #p B2PLYPD3/Def2QZVP
 --------------------

 --------
 acrolein
 --------
 Symbolic Z-matrix:
 Charge =  0 Multiplicity = 1

                         Standard orientation:
 ---------------------------------------------------------------------
 Center     Atomic      Atomic             Coordinates (Angstroms)
 Number     Number       Type             X           Y           Z
 ---------------------------------------------------------------------
      1          6           0        0.677665    0.361458   -0.011143
      2          8           0        1.773982   -0.129735    0.015235
      3          6           0       -0.548810   -0.438142   -0.013172
      4          6           0       -1.757518    0.135712    0.003437
      5          1           0       -0.439013   -1.539243   -0.007603
      6          1           0       -1.841774    1.190479    0.075197
      7          1           0       -2.662453   -0.419464    0.002912
      8          1           0        0.523362    1.451941   -0.067117
 ---------------------------------------------------------------------

 SCF Done:  E(RB2PLYPD3) =  -191.616331526     A.U. after   12 cycles
 E2(B2PLYPD3) =    -0.2466112722D+00 E(B2PLYPD3) =    -0.19186294279842D+03

 The electronic state is 1-A.
 Alpha  occ. eigenvalues --  -19.72768 -10.71405 -10.64961 -10.64460  -1.20106
 Alpha  occ. eigenvalues --   -0.92816  -0.75701  -0.66900  -0.56835  -0.56551
 Alpha  occ. eigenvalues --   -0.50794  -0.47101  -0.46739  -0.34490  -0.33903
 Alpha virt. eigenvalues --   -0.01683   0.05843   0.07169   0.08275   0.09783
 Alpha virt. eigenvalues --    0.12635   0.14150   0.15421   0.17345   0.19712
 Alpha virt. eigenvalues --    0.20127   0.21809   0.25532   0.26412   0.28744

 Mulliken charges:
               1
     1  C    0.154564
     2  O   -0.343100
     3  C   -0.039674
     4  C   -0.133396
     5  H    0.102388
     6  H    0.082253
     7  H    0.103468
     8  H    0.073496
 Sum of Mulliken charges =   0.00000

 Dipole moment (field-independent basis, Debye):
    X=             -3.4065    Y=              0.8051    Z=             -0.0073  Tot=              3.5004
 Quadrupole moment (field-independent basis, Debye-Ang):
   XX=            -27.2709   YY=            -21.7487   ZZ=            -25.1776
   XY=              0.9934   XZ=             -0.2050   YZ=              0.0649

 Normal termination of Gaussian 09 at Wed Aug 26 14:11:40 2020.
