 Gaussian 09, Revision D.01,
 Gaussian 09:  ES64L-G09RevD.01 24-Apr-2013

 --------------------
 #p B2PLYPD3/Def2QZVP
 --------------------

 --------
 acrolein
 --------
 Symbolic Z-matrix:
 Charge =  0 Multiplicity = 1

                         Standard orientation:
 ---------------------------------------------------------------------
 Center     Atomic      Atomic             Coordinates (Angstroms)
 Number     Number       Type             X           Y           Z
 ---------------------------------------------------------------------
      1          6           0       -0.676005    0.344380    0.036675
      2          8           0       -1.797865   -0.104607   -0.039906
      3          6           0        0.567575   -0.476641    0.006326
      4          6           0        1.768405    0.144888   -0.014248
      5          1           0        0.373241   -1.570224    0.133568
      6          1           0        1.944034    1.320697   -0.066698
      7          1           0        2.656813   -0.450904   -0.053545
      8          1           0       -0.551021    1.461524    0.133406
 ---------------------------------------------------------------------

 SCF Done:  E(RB2PLYPD3) =  -191.604567454     A.U. after   12 cycles
 E2(B2PLYPD3) =    -0.2486022071D+00 E(B2PLYPD3) =    -0.19185316966070D+03

 The electronic state is 1-A.
 Alpha  occ. eigenvalues --  -19.72777 -10.71772 -10.66829 -10.65530  -1.19465
 Alpha  occ. eigenvalues --   -0.92018  -0.74784  -0.65837  -0.56278  -0.55202
 Alpha  occ. eigenvalues --   -0.50440  -0.46741  -0.45973  -0.34505  -0.33526
 Alpha virt. eigenvalues --   -0.01794   0.05437   0.06874   0.07902   0.09492
 Alpha virt. eigenvalues --    0.12085   0.13780   0.15195   0.17423   0.19020
 Alpha virt. eigenvalues --    0.19978   0.21548   0.24873   0.26635   0.28526

 Mulliken charges:
               1
     1  C    0.163673
     2  O   -0.346623
     3  C   -0.055807
     4  C   -0.126789
     5  H    0.108321
     6  H    0.088402
     7  H    0.103029
     8  H    0.065795
 Sum of Mulliken charges =   0.00000

 Dipole moment (field-independent basis, Debye):
    X=              3.4737    Y=              0.6917    Z=              0.1932  Tot=              3.5471
 Quadrupole moment (field-independent basis, Debye-Ang):
   XX=            -27.5924   YY=            -21.5936   ZZ=            -25.4774
   XY=             -0.6075   XZ=             -0.3843   YZ=             -0.2164

 Normal termination of Gaussian 09 at Wed Aug 26 21:05:03 2020.
