 Gaussian 09, Revision D.01,
 Gaussian 09:  ES64L-G09RevD.01 24-Apr-2013

 --------------------
 #p B2PLYPD3/Def2QZVP
 --------------------

 --------
 acrolein
 --------
 Symbolic Z-matrix:
 Charge =  0 Multiplicity = 1

                         Standard orientation:
 ---------------------------------------------------------------------
 Center     Atomic      Atomic             Coordinates (Angstroms)
 Number     Number       Type             X           Y           Z
 ---------------------------------------------------------------------
      1          6           0       -0.666611    0.347905   -0.017518
      2          8           0       -1.790456   -0.119969    0.024049
      3          6           0        0.569887   -0.458630   -0.025700
      4          6           0        1.751300    0.140933    0.011130
      5          1           0        0.444834   -1.526805   -0.052737
      6          1           0        1.819614    1.235849    0.000559
      7          1           0        2.618589   -0.414925    0.094426
      8          1           0       -0.486844    1.484384   -0.042114
 ---------------------------------------------------------------------

 SCF Done:  E(RB2PLYPD3) =  -191.613597851     A.U. after   12 cycles
 E2(B2PLYPD3) =    -0.2475948962D+00 E(B2PLYPD3) =    -0.19186119274680D+03

 The electronic state is 1-A.
 Alpha  occ. eigenvalues --  -19.72988 -10.72157 -10.65007 -10.64343  -1.19138
 Alpha  occ. eigenvalues --   -0.93315  -0.75519  -0.66524  -0.57032  -0.55926
 Alpha  occ. eigenvalues --   -0.50590  -0.47359  -0.46506  -0.34849  -0.33775
 Alpha virt. eigenvalues --   -0.01709   0.05794   0.07081   0.08059   0.09780
 Alpha virt. eigenvalues --    0.12597   0.13860   0.15308   0.17290   0.19803
 Alpha virt. eigenvalues --    0.19921   0.21847   0.25417   0.26448   0.28730

 Mulliken charges:
               1
     1  C    0.159614
     2  O   -0.349686
     3  C   -0.037616
     4  C   -0.128332
     5  H    0.105080
     6  H    0.085023
     7  H    0.104787
     8  H    0.061131
 Sum of Mulliken charges =   0.00000

 Dipole moment (field-independent basis, Debye):
    X=              3.5102    Y=              0.6897    Z=             -0.0495  Tot=              3.5776
 Quadrupole moment (field-independent basis, Debye-Ang):
   XX=            -27.5674   YY=            -21.7255   ZZ=            -25.2063
   XY=             -0.8816   XZ=              0.3260   YZ=             -0.0050

 Normal termination of Gaussian 09 at Wed Aug 26 15:09:06 2020.
