 Gaussian 09, Revision D.01,
 Gaussian 09:  ES64L-G09RevD.01 24-Apr-2013

 --------------------
 #p B2PLYPD3/Def2QZVP
 --------------------

 --------
 acrolein
 --------
 Symbolic Z-matrix:
 Charge =  0 Multiplicity = 1

                         Standard orientation:
 ---------------------------------------------------------------------
 Center     Atomic      Atomic             Coordinates (Angstroms)
 Number     Number       Type             X           Y           Z
 ---------------------------------------------------------------------
      1          6           0        0.642148    0.368265    0.087941
      2          8           0        1.780147   -0.148306   -0.077155
      3          6           0       -0.559509   -0.407019    0.084089
      4          6           0       -1.729102    0.156113   -0.077046
      5          1           0       -0.444862   -1.580950    0.071100
      6          1           0       -1.703273    1.136489   -0.021953
      7          1           0       -2.810558   -0.477341   -0.069927
      8          1           0        0.596296    1.404089    0.068118
 ---------------------------------------------------------------------

 SCF Done:  E(RB2PLYPD3) =  -191.574600169     A.U. after   13 cycles
 E2(B2PLYPD3) =    -0.2500983515D+00 E(B2PLYPD3) =    -0.19182469852020D+03

 The electronic state is 1-A.
 Alpha  occ. eigenvalues --  -19.72593 -10.71328 -10.65863 -10.64964  -1.16683
 Alpha  occ. eigenvalues --   -0.94549  -0.76057  -0.67724  -0.58078  -0.54597
 Alpha  occ. eigenvalues --   -0.49016  -0.45722  -0.45212  -0.35008  -0.34150
 Alpha virt. eigenvalues --   -0.02506   0.05044   0.06521   0.07877   0.09805
 Alpha virt. eigenvalues --    0.12076   0.13850   0.15093   0.17073   0.19587
 Alpha virt. eigenvalues --    0.20521   0.20828   0.24698   0.26694   0.28859

 Mulliken charges:
               1
     1  C    0.138042
     2  O   -0.375081
     3  C   -0.013024
     4  C   -0.127511
     5  H    0.098863
     6  H    0.089925
     7  H    0.100568
     8  H    0.088217
 Sum of Mulliken charges =   0.00000

 Dipole moment (field-independent basis, Debye):
    X=             -3.6598    Y=              0.9720    Z=              0.2931  Tot=              3.7980
 Quadrupole moment (field-independent basis, Debye-Ang):
   XX=            -27.7449   YY=            -21.6190   ZZ=            -25.2743
   XY=              1.5104   XZ=              0.5001   YZ=              0.0118

 Normal termination of Gaussian 09 at Wed Aug 26 13:07:04 2020.
