 Gaussian 09, Revision D.01,
 Gaussian 09:  ES64L-G09RevD.01 24-Apr-2013

 --------------------
 #p B2PLYPD3/Def2QZVP
 --------------------

 --------
 acrolein
 --------
 Symbolic Z-matrix:
 Charge =  0 Multiplicity = 1

                         Standard orientation:
 ---------------------------------------------------------------------
 Center     Atomic      Atomic             Coordinates (Angstroms)
 Number     Number       Type             X           Y           Z
 ---------------------------------------------------------------------
      1          6           0       -0.669674    0.330356    0.025957
      2          8           0       -1.810202   -0.097778   -0.062450
      3          6           0        0.599785   -0.500237    0.033277
      4          6           0        1.757457    0.140206   -0.026709
      5          1           0        0.445743   -1.491368    0.191668
      6          1           0        1.990399    1.344240   -0.171503
      7          1           0        2.522855   -0.355163   -0.067476
      8          1           0       -0.602784    1.462561    0.351761
 ---------------------------------------------------------------------

 SCF Done:  E(RB2PLYPD3) =  -191.562378773     A.U. after   13 cycles
 E2(B2PLYPD3) =    -0.2482830222D+00 E(B2PLYPD3) =    -0.19181066179528D+03

 The electronic state is 1-A.
 Alpha  occ. eigenvalues --  -19.72952 -10.72477 -10.64943 -10.64679  -1.18877
 Alpha  occ. eigenvalues --   -0.93405  -0.76137  -0.66247  -0.58261  -0.55044
 Alpha  occ. eigenvalues --   -0.50969  -0.46868  -0.45750  -0.35189  -0.33093
 Alpha virt. eigenvalues --   -0.01476   0.05516   0.06563   0.07717   0.09302
 Alpha virt. eigenvalues --    0.12231   0.14140   0.14981   0.17584   0.18885
 Alpha virt. eigenvalues --    0.19945   0.22198   0.24247   0.26778   0.28337

 Mulliken charges:
               1
     1  C    0.158794
     2  O   -0.344570
     3  C   -0.068043
     4  C   -0.126965
     5  H    0.116381
     6  H    0.082661
     7  H    0.113797
     8  H    0.067945
 Sum of Mulliken charges =   0.00000

 Dipole moment (field-independent basis, Debye):
    X=              3.5208    Y=              0.5465    Z=              0.2623  Tot=              3.5726
 Quadrupole moment (field-independent basis, Debye-Ang):
   XX=            -27.5041   YY=            -21.6926   ZZ=            -25.1592
   XY=             -0.5743   XZ=             -0.6937   YZ=             -0.3382

 Normal termination of Gaussian 09 at Wed Aug 26 13:20:04 2020.
