 Gaussian 09, Revision D.01,
 Gaussian 09:  ES64L-G09RevD.01 24-Apr-2013

 --------------------
 #p B2PLYPD3/Def2QZVP
 --------------------

 --------
 acrolein
 --------
 Symbolic Z-matrix:
 Charge =  0 Multiplicity = 1

                         Standard orientation:
 ---------------------------------------------------------------------
 Center     Atomic      Atomic             Coordinates (Angstroms)
 Number     Number       Type             X           Y           Z
 ---------------------------------------------------------------------
      1          6           0        0.671099    0.346034   -0.006882
      2          8           0        1.796811   -0.111568    0.007047
      3          6           0       -0.565698   -0.462933   -0.015072
      4          6           0       -1.757782    0.138812   -0.000195
      5          1           0       -0.444278   -1.574553   -0.000709
      6          1           0       -1.873332    1.266501   -0.030842
      7          1           0       -2.641516   -0.395723    0.076042
      8          1           0        0.498926    1.464840    0.032027
 ---------------------------------------------------------------------

 SCF Done:  E(RB2PLYPD3) =  -191.611856878     A.U. after   13 cycles
 E2(B2PLYPD3) =    -0.2479336925D+00 E(B2PLYPD3) =    -0.19185979057005D+03

 The electronic state is 1-A.
 Alpha  occ. eigenvalues --  -19.72919 -10.71990 -10.65616 -10.65035  -1.19264
 Alpha  occ. eigenvalues --   -0.92798  -0.75470  -0.66101  -0.56849  -0.55729
 Alpha  occ. eigenvalues --   -0.50599  -0.46629  -0.46459  -0.34704  -0.33807
 Alpha virt. eigenvalues --   -0.01816   0.05686   0.06967   0.08051   0.09644
 Alpha virt. eigenvalues --    0.12462   0.14104   0.15338   0.17127   0.19571
 Alpha virt. eigenvalues --    0.19989   0.21815   0.25238   0.26475   0.28603

 Mulliken charges:
               1
     1  C    0.161840
     2  O   -0.347719
     3  C   -0.043137
     4  C   -0.125586
     5  H    0.102292
     6  H    0.080978
     7  H    0.105386
     8  H    0.065946
 Sum of Mulliken charges =   0.00000

 Dipole moment (field-independent basis, Debye):
    X=             -3.5331    Y=              0.7004    Z=              0.0282  Tot=              3.6020
 Quadrupole moment (field-independent basis, Debye-Ang):
   XX=            -27.4803   YY=            -21.7101   ZZ=            -25.3168
   XY=              0.7767   XZ=             -0.1760   YZ=             -0.0703

 Normal termination of Gaussian 09 at Wed Aug 26 19:08:30 2020.
