 Gaussian 09, Revision D.01,
 Gaussian 09:  ES64L-G09RevD.01 24-Apr-2013

 --------------------
 #p B2PLYPD3/Def2QZVP
 --------------------

 --------
 acrolein
 --------
 Symbolic Z-matrix:
 Charge =  0 Multiplicity = 1

                         Standard orientation:
 ---------------------------------------------------------------------
 Center     Atomic      Atomic             Coordinates (Angstroms)
 Number     Number       Type             X           Y           Z
 ---------------------------------------------------------------------
      1          6           0        0.670950   -0.348940    0.062290
      2          8           0        1.770485    0.110650   -0.064994
      3          6           0       -0.544692    0.452874    0.122097
      4          6           0       -1.774164   -0.140713   -0.058371
      5          1           0       -0.426893    1.637596   -0.092277
      6          1           0       -1.841935   -1.209552   -0.020938
      7          1           0       -2.606216    0.329239   -0.138261
      8          1           0        0.598602   -1.421813    0.015330
 ---------------------------------------------------------------------

 SCF Done:  E(RB2PLYPD3) =  -191.588468619     A.U. after   14 cycles
 E2(B2PLYPD3) =    -0.2477063209D+00 E(B2PLYPD3) =    -0.19183617493999D+03

 The electronic state is 1-A.
 Alpha  occ. eigenvalues --  -19.72350 -10.70952 -10.66162 -10.64914  -1.20120
 Alpha  occ. eigenvalues --   -0.92273  -0.76858  -0.66485  -0.57456  -0.56625
 Alpha  occ. eigenvalues --   -0.50930  -0.47092  -0.45640  -0.34271  -0.33540
 Alpha virt. eigenvalues --   -0.02254   0.05942   0.06670   0.07956   0.09705
 Alpha virt. eigenvalues --    0.12593   0.13928   0.15575   0.17248   0.19815
 Alpha virt. eigenvalues --    0.20016   0.22329   0.23865   0.26423   0.29123

 Mulliken charges:
               1
     1  C    0.152038
     2  O   -0.341065
     3  C   -0.045623
     4  C   -0.119369
     5  H    0.096374
     6  H    0.078660
     7  H    0.108595
     8  H    0.070390
 Sum of Mulliken charges =   0.00000

 Dipole moment (field-independent basis, Debye):
    X=             -3.4948    Y=             -0.8348    Z=             -0.0262  Tot=              3.5932
 Quadrupole moment (field-independent basis, Debye-Ang):
   XX=            -27.0616   YY=            -21.7572   ZZ=            -25.2476
   XY=             -0.9044   XZ=              0.8020   YZ=             -0.2686

 Normal termination of Gaussian 09 at Wed Aug 26 14:04:33 2020.
