 Gaussian 09, Revision D.01,
 Gaussian 09:  ES64L-G09RevD.01 24-Apr-2013

 --------------------
 #p B2PLYPD3/Def2QZVP
 --------------------

 --------
 acrolein
 --------
 Symbolic Z-matrix:
 Charge =  0 Multiplicity = 1

                         Standard orientation:
 ---------------------------------------------------------------------
 Center     Atomic      Atomic             Coordinates (Angstroms)
 Number     Number       Type             X           Y           Z
 ---------------------------------------------------------------------
      1          6           0       -0.677660    0.352221    0.018861
      2          8           0       -1.772702   -0.130113   -0.023102
      3          6           0        0.556775   -0.444066    0.005136
      4          6           0        1.743348    0.139858   -0.006226
      5          1           0        0.477121   -1.493322    0.073110
      6          1           0        1.847160    1.220239   -0.066808
      7          1           0        2.688927   -0.415627   -0.022650
      8          1           0       -0.566370    1.441541    0.094543
 ---------------------------------------------------------------------

 SCF Done:  E(RB2PLYPD3) =  -191.616626402     A.U. after   12 cycles
 E2(B2PLYPD3) =    -0.2459440974D+00 E(B2PLYPD3) =    -0.19186257049950D+03

 The electronic state is 1-A.
 Alpha  occ. eigenvalues --  -19.72648 -10.71254 -10.65267 -10.63836  -1.20320
 Alpha  occ. eigenvalues --   -0.93086  -0.75085  -0.67395  -0.57030  -0.56399
 Alpha  occ. eigenvalues --   -0.50774  -0.47233  -0.46629  -0.34807  -0.33773
 Alpha virt. eigenvalues --   -0.01329   0.05788   0.07294   0.08306   0.09705
 Alpha virt. eigenvalues --    0.12521   0.14191   0.15347   0.17790   0.19642
 Alpha virt. eigenvalues --    0.20036   0.21436   0.25496   0.26437   0.28839

 Mulliken charges:
               1
     1  C    0.150582
     2  O   -0.340574
     3  C   -0.044701
     4  C   -0.126816
     5  H    0.108827
     6  H    0.080595
     7  H    0.096719
     8  H    0.075369
 Sum of Mulliken charges =   0.00000

 Dipole moment (field-independent basis, Debye):
    X=              3.3730    Y=              0.7871    Z=              0.0953  Tot=              3.4650
 Quadrupole moment (field-independent basis, Debye-Ang):
   XX=            -27.2660   YY=            -21.7614   ZZ=            -25.1118
   XY=             -1.0557   XZ=             -0.2390   YZ=             -0.1374

 Normal termination of Gaussian 09 at Wed Aug 26 19:13:37 2020.
