 Gaussian 09, Revision D.01,
 Gaussian 09:  ES64L-G09RevD.01 24-Apr-2013

 --------------------
 #p B2PLYPD3/Def2QZVP
 --------------------

 --------
 acrolein
 --------
 Symbolic Z-matrix:
 Charge =  0 Multiplicity = 1

                         Standard orientation:
 ---------------------------------------------------------------------
 Center     Atomic      Atomic             Coordinates (Angstroms)
 Number     Number       Type             X           Y           Z
 ---------------------------------------------------------------------
      1          6           0       -0.663092    0.361038   -0.032140
      2          8           0       -1.787833   -0.133944    0.028148
      3          6           0        0.562074   -0.453035   -0.005985
      4          6           0        1.751090    0.142916    0.002864
      5          1           0        0.462605   -1.504711   -0.052655
      6          1           0        1.782147    1.206455    0.122068
      7          1           0        2.638247   -0.447381    0.010166
      8          1           0       -0.480766    1.511673   -0.093203
 ---------------------------------------------------------------------

 SCF Done:  E(RB2PLYPD3) =  -191.611430710     A.U. after   13 cycles
 E2(B2PLYPD3) =    -0.2484729700D+00 E(B2PLYPD3) =    -0.19185990367969D+03

 The electronic state is 1-A.
 Alpha  occ. eigenvalues --  -19.73043 -10.72523 -10.65084 -10.64148  -1.18481
 Alpha  occ. eigenvalues --   -0.93379  -0.75319  -0.66817  -0.56824  -0.55775
 Alpha  occ. eigenvalues --   -0.50172  -0.47587  -0.46253  -0.34685  -0.33910
 Alpha virt. eigenvalues --   -0.01943   0.05772   0.06982   0.07772   0.09854
 Alpha virt. eigenvalues --    0.12609   0.13630   0.15234   0.17359   0.19652
 Alpha virt. eigenvalues --    0.20208   0.21664   0.25099   0.26435   0.28851

 Mulliken charges:
               1
     1  C    0.156493
     2  O   -0.354427
     3  C   -0.035901
     4  C   -0.129082
     5  H    0.107867
     6  H    0.086376
     7  H    0.102870
     8  H    0.065805
 Sum of Mulliken charges =   0.00000

 Dipole moment (field-independent basis, Debye):
    X=              3.5277    Y=              0.7336    Z=             -0.0648  Tot=              3.6037
 Quadrupole moment (field-independent basis, Debye-Ang):
   XX=            -27.7216   YY=            -21.6637   ZZ=            -25.2426
   XY=             -1.0964   XZ=              0.3110   YZ=              0.1780

 Normal termination of Gaussian 09 at Wed Aug 26 20:41:23 2020.
