 Gaussian 09, Revision D.01,
 Gaussian 09:  ES64L-G09RevD.01 24-Apr-2013

 --------------------
 #p B2PLYPD3/Def2QZVP
 --------------------

 --------
 acrolein
 --------
 Symbolic Z-matrix:
 Charge =  0 Multiplicity = 1

                         Standard orientation:
 ---------------------------------------------------------------------
 Center     Atomic      Atomic             Coordinates (Angstroms)
 Number     Number       Type             X           Y           Z
 ---------------------------------------------------------------------
      1          6           0       -0.676885    0.355048    0.015091
      2          8           0       -1.781048   -0.131035   -0.012362
      3          6           0        0.546461   -0.445903    0.027199
      4          6           0        1.760482    0.142508   -0.017315
      5          1           0        0.451314   -1.500933   -0.031925
      6          1           0        1.791350    1.194076    0.012076
      7          1           0        2.747472   -0.423382   -0.013640
      8          1           0       -0.522101    1.468604   -0.017462
 ---------------------------------------------------------------------

 SCF Done:  E(RB2PLYPD3) =  -191.612570819     A.U. after   13 cycles
 E2(B2PLYPD3) =    -0.2475273593D+00 E(B2PLYPD3) =    -0.19186009817845D+03

 The electronic state is 1-A.
 Alpha  occ. eigenvalues --  -19.72825 -10.71730 -10.65942 -10.64305  -1.19834
 Alpha  occ. eigenvalues --   -0.92744  -0.75140  -0.67216  -0.56634  -0.55991
 Alpha  occ. eigenvalues --   -0.50319  -0.47179  -0.46889  -0.34418  -0.33874
 Alpha virt. eigenvalues --   -0.01919   0.05688   0.07153   0.08137   0.09772
 Alpha virt. eigenvalues --    0.12412   0.13897   0.15345   0.17661   0.19850
 Alpha virt. eigenvalues --    0.20063   0.21179   0.25272   0.26328   0.29096

 Mulliken charges:
               1
     1  C    0.150779
     2  O   -0.344762
     3  C   -0.037012
     4  C   -0.132878
     5  H    0.109309
     6  H    0.084809
     7  H    0.101273
     8  H    0.068482
 Sum of Mulliken charges =   0.00000

 Dipole moment (field-independent basis, Debye):
    X=              3.4539    Y=              0.7730    Z=              0.0058  Tot=              3.5393
 Quadrupole moment (field-independent basis, Debye-Ang):
   XX=            -27.2601   YY=            -21.8468   ZZ=            -25.2792
   XY=             -1.0783   XZ=             -0.0937   YZ=              0.0758

 Normal termination of Gaussian 09 at Wed Aug 26 09:43:08 2020.
