 Gaussian 09, Revision D.01,
 Gaussian 09:  ES64L-G09RevD.01 24-Apr-2013

 --------------------
 #p B2PLYPD3/Def2QZVP
 --------------------

 --------
 acrolein
 --------
 Symbolic Z-matrix:
 Charge =  0 Multiplicity = 1

                         Standard orientation:
 ---------------------------------------------------------------------
 Center     Atomic      Atomic             Coordinates (Angstroms)
 Number     Number       Type             X           Y           Z
 ---------------------------------------------------------------------
      1          6           0       -0.681428    0.367803    0.000028
      2          8           0       -1.778863   -0.134530   -0.011336
      3          6           0        0.551163   -0.438162    0.014299
      4          6           0        1.756478    0.132539   -0.001681
      5          1           0        0.447008   -1.532302    0.028820
      6          1           0        1.853717    1.208552   -0.027840
      7          1           0        2.698561   -0.426166   -0.044902
      8          1           0       -0.525666    1.453077    0.058731
 ---------------------------------------------------------------------

 SCF Done:  E(RB2PLYPD3) =  -191.616348357     A.U. after   12 cycles
 E2(B2PLYPD3) =    -0.2470223394D+00 E(B2PLYPD3) =    -0.19186337069683D+03

 The electronic state is 1-A.
 Alpha  occ. eigenvalues --  -19.72861 -10.71598 -10.65419 -10.64437  -1.19833
 Alpha  occ. eigenvalues --   -0.92680  -0.75279  -0.66969  -0.56719  -0.56148
 Alpha  occ. eigenvalues --   -0.50695  -0.46961  -0.46322  -0.34574  -0.33952
 Alpha virt. eigenvalues --   -0.01637   0.05736   0.07158   0.08138   0.09723
 Alpha virt. eigenvalues --    0.12476   0.14131   0.15409   0.17478   0.19681
 Alpha virt. eigenvalues --    0.19990   0.21543   0.25588   0.26400   0.28737

 Mulliken charges:
               1
     1  C    0.155851
     2  O   -0.344762
     3  C   -0.043815
     4  C   -0.130816
     5  H    0.105114
     6  H    0.079149
     7  H    0.100854
     8  H    0.078425
 Sum of Mulliken charges =   0.00000

 Dipole moment (field-independent basis, Debye):
    X=              3.3975    Y=              0.8417    Z=              0.0074  Tot=              3.5002
 Quadrupole moment (field-independent basis, Debye-Ang):
   XX=            -27.3267   YY=            -21.7356   ZZ=            -25.2398
   XY=             -1.0286   XZ=             -0.2075   YZ=             -0.0168

 Normal termination of Gaussian 09 at Wed Aug 26 21:10:43 2020.
