 Gaussian 09, Revision D.01,
 Gaussian 09:  ES64L-G09RevD.01 24-Apr-2013

 --------------------
 #p B2PLYPD3/Def2QZVP
 --------------------

 --------
 acrolein
 --------
 Symbolic Z-matrix:
 Charge =  0 Multiplicity = 1

                         Standard orientation:
 ---------------------------------------------------------------------
 Center     Atomic      Atomic             Coordinates (Angstroms)
 Number     Number       Type             X           Y           Z
 ---------------------------------------------------------------------
      1          6           0       -0.671065    0.360707   -0.022525
      2          8           0       -1.777282   -0.139071    0.032038
      3          6           0        0.567860   -0.446791   -0.062211
      4          6           0        1.742119    0.139621    0.017801
      5          1           0        0.476160   -1.510013    0.028048
      6          1           0        1.757537    1.212827    0.030903
      7          1           0        2.661164   -0.416069    0.115761
      8          1           0       -0.510090    1.504606   -0.029410
 ---------------------------------------------------------------------

 SCF Done:  E(RB2PLYPD3) =  -191.613672648     A.U. after   12 cycles
 E2(B2PLYPD3) =    -0.2474047801D+00 E(B2PLYPD3) =    -0.19186107742820D+03

 The electronic state is 1-A.
 Alpha  occ. eigenvalues --  -19.73029 -10.72323 -10.64876 -10.63964  -1.19407
 Alpha  occ. eigenvalues --   -0.93434  -0.74913  -0.66706  -0.56805  -0.56074
 Alpha  occ. eigenvalues --   -0.50570  -0.46943  -0.46677  -0.34954  -0.33881
 Alpha virt. eigenvalues --   -0.01452   0.05819   0.07006   0.07969   0.09850
 Alpha virt. eigenvalues --    0.12536   0.13764   0.15276   0.17465   0.19808
 Alpha virt. eigenvalues --    0.19998   0.21547   0.25267   0.26407   0.29030

 Mulliken charges:
               1
     1  C    0.154115
     2  O   -0.345649
     3  C   -0.037305
     4  C   -0.124911
     5  H    0.105599
     6  H    0.080065
     7  H    0.102872
     8  H    0.065214
 Sum of Mulliken charges =   0.00000

 Dipole moment (field-independent basis, Debye):
    X=              3.4141    Y=              0.7633    Z=              0.0529  Tot=              3.4988
 Quadrupole moment (field-independent basis, Debye-Ang):
   XX=            -27.4964   YY=            -21.7778   ZZ=            -25.1853
   XY=             -1.1735   XZ=              0.5197   YZ=             -0.1156

 Normal termination of Gaussian 09 at Wed Aug 26 09:05:45 2020.
