 Gaussian 09, Revision D.01,
 Gaussian 09:  ES64L-G09RevD.01 24-Apr-2013

 --------------------
 #p B2PLYPD3/Def2QZVP
 --------------------

 --------
 acrolein
 --------
 Symbolic Z-matrix:
 Charge =  0 Multiplicity = 1

                         Standard orientation:
 ---------------------------------------------------------------------
 Center     Atomic      Atomic             Coordinates (Angstroms)
 Number     Number       Type             X           Y           Z
 ---------------------------------------------------------------------
      1          6           0        0.674924    0.327142   -0.019865
      2          8           0        1.798834   -0.095778    0.029802
      3          6           0       -0.559678   -0.463513   -0.025638
      4          6           0       -1.755531    0.149601    0.007891
      5          1           0       -0.434070   -1.574062   -0.087253
      6          1           0       -1.917914    1.283114   -0.016171
      7          1           0       -2.723918   -0.410730    0.143983
      8          1           0        0.526934    1.388522   -0.053302
 ---------------------------------------------------------------------

 SCF Done:  E(RB2PLYPD3) =  -191.609147041     A.U. after   13 cycles
 E2(B2PLYPD3) =    -0.2475095684D+00 E(B2PLYPD3) =    -0.19185665660912D+03

 The electronic state is 1-A.
 Alpha  occ. eigenvalues --  -19.72614 -10.70970 -10.66963 -10.65182  -1.19914
 Alpha  occ. eigenvalues --   -0.92529  -0.75142  -0.66717  -0.56685  -0.55533
 Alpha  occ. eigenvalues --   -0.50505  -0.47075  -0.45824  -0.34644  -0.33646
 Alpha virt. eigenvalues --   -0.01877   0.05486   0.06975   0.08350   0.09513
 Alpha virt. eigenvalues --    0.12290   0.14148   0.15302   0.17519   0.19412
 Alpha virt. eigenvalues --    0.19833   0.21321   0.25229   0.26609   0.28470

 Mulliken charges:
               1
     1  C    0.159854
     2  O   -0.345975
     3  C   -0.041155
     4  C   -0.125170
     5  H    0.103291
     6  H    0.083829
     7  H    0.097685
     8  H    0.067640
 Sum of Mulliken charges =   0.00000

 Dipole moment (field-independent basis, Debye):
    X=             -3.5420    Y=              0.7024    Z=             -0.0771  Tot=              3.6118
 Quadrupole moment (field-independent basis, Debye-Ang):
   XX=            -27.3738   YY=            -21.7893   ZZ=            -25.3189
   XY=              0.5988   XZ=             -0.4392   YZ=              0.0107

 Normal termination of Gaussian 09 at Wed Aug 26 10:05:27 2020.
