 Gaussian 09, Revision D.01,
 Gaussian 09:  ES64L-G09RevD.01 24-Apr-2013

 --------------------
 #p B2PLYPD3/Def2QZVP
 --------------------

 --------
 acrolein
 --------
 Symbolic Z-matrix:
 Charge =  0 Multiplicity = 1

                         Standard orientation:
 ---------------------------------------------------------------------
 Center     Atomic      Atomic             Coordinates (Angstroms)
 Number     Number       Type             X           Y           Z
 ---------------------------------------------------------------------
      1          6           0       -0.663331    0.324534    0.051522
      2          8           0       -1.784283   -0.100268   -0.039643
      3          6           0        0.563764   -0.453071    0.014480
      4          6           0        1.757535    0.162236   -0.029212
      5          1           0        0.448175   -1.553114    0.054677
      6          1           0        1.778747    1.203479   -0.082829
      7          1           0        2.623128   -0.402099    0.027422
      8          1           0       -0.523596    1.351686    0.097140
 ---------------------------------------------------------------------

 SCF Done:  E(RB2PLYPD3) =  -191.610505235     A.U. after   13 cycles
 E2(B2PLYPD3) =    -0.2461265570D+00 E(B2PLYPD3) =    -0.19185663179200D+03

 The electronic state is 1-A.
 Alpha  occ. eigenvalues --  -19.72459 -10.70374 -10.64835 -10.64515  -1.19814
 Alpha  occ. eigenvalues --   -0.93344  -0.76485  -0.67753  -0.57566  -0.56603
 Alpha  occ. eigenvalues --   -0.50741  -0.47632  -0.46856  -0.34544  -0.33741
 Alpha virt. eigenvalues --   -0.01911   0.05926   0.07224   0.08479   0.09789
 Alpha virt. eigenvalues --    0.12904   0.14144   0.15329   0.17453   0.19756
 Alpha virt. eigenvalues --    0.20188   0.21943   0.25337   0.26670   0.29008

 Mulliken charges:
               1
     1  C    0.150317
     2  O   -0.349351
     3  C   -0.025434
     4  C   -0.140716
     5  H    0.096276
     6  H    0.090926
     7  H    0.108507
     8  H    0.069475
 Sum of Mulliken charges =   0.00000

 Dipole moment (field-independent basis, Debye):
    X=              3.5224    Y=              0.7231    Z=              0.1847  Tot=              3.6006
 Quadrupole moment (field-independent basis, Debye-Ang):
   XX=            -27.4918   YY=            -21.6817   ZZ=            -25.0498
   XY=             -0.8807   XZ=             -0.2260   YZ=             -0.1643

 Normal termination of Gaussian 09 at Wed Aug 26 09:10:29 2020.
