 Gaussian 09, Revision D.01,
 Gaussian 09:  ES64L-G09RevD.01 24-Apr-2013

 --------------------
 #p B2PLYPD3/Def2QZVP
 --------------------

 --------
 acrolein
 --------
 Symbolic Z-matrix:
 Charge =  0 Multiplicity = 1

                         Standard orientation:
 ---------------------------------------------------------------------
 Center     Atomic      Atomic             Coordinates (Angstroms)
 Number     Number       Type             X           Y           Z
 ---------------------------------------------------------------------
      1          6           0       -0.689375    0.369721    0.033630
      2          8           0       -1.760691   -0.146711   -0.041107
      3          6           0        0.554462   -0.434112    0.008493
      4          6           0        1.756378    0.145199   -0.007355
      5          1           0        0.442012   -1.526887    0.136202
      6          1           0        1.780597    1.155250   -0.128520
      7          1           0        2.695221   -0.433099   -0.048785
      8          1           0       -0.561091    1.493576    0.161349
 ---------------------------------------------------------------------

 SCF Done:  E(RB2PLYPD3) =  -191.610783074     A.U. after   13 cycles
 E2(B2PLYPD3) =    -0.2464516635D+00 E(B2PLYPD3) =    -0.19185723473780D+03

 The electronic state is 1-A.
 Alpha  occ. eigenvalues --  -19.72946 -10.71840 -10.64592 -10.64361  -1.20896
 Alpha  occ. eigenvalues --   -0.92665  -0.74948  -0.66636  -0.57020  -0.56205
 Alpha  occ. eigenvalues --   -0.50748  -0.47618  -0.46559  -0.34536  -0.33791
 Alpha virt. eigenvalues --   -0.01316   0.05937   0.06968   0.08087   0.09857
 Alpha virt. eigenvalues --    0.12566   0.13932   0.15181   0.17451   0.19495
 Alpha virt. eigenvalues --    0.20405   0.21671   0.25007   0.26606   0.28910

 Mulliken charges:
               1
     1  C    0.150736
     2  O   -0.331425
     3  C   -0.043630
     4  C   -0.134650
     5  H    0.103371
     6  H    0.083910
     7  H    0.101326
     8  H    0.070362
 Sum of Mulliken charges =   0.00000

 Dipole moment (field-independent basis, Debye):
    X=              3.2030    Y=              0.8234    Z=              0.1429  Tot=              3.3103
 Quadrupole moment (field-independent basis, Debye-Ang):
   XX=            -27.2525   YY=            -21.8143   ZZ=            -25.1732
   XY=             -1.1986   XZ=             -0.4522   YZ=             -0.2555

 Normal termination of Gaussian 09 at Wed Aug 26 08:59:32 2020.
