 Gaussian 09, Revision D.01,
 Gaussian 09:  ES64L-G09RevD.01 24-Apr-2013

 --------------------
 #p B2PLYPD3/Def2QZVP
 --------------------

 --------
 acrolein
 --------
 Symbolic Z-matrix:
 Charge =  0 Multiplicity = 1

                         Standard orientation:
 ---------------------------------------------------------------------
 Center     Atomic      Atomic             Coordinates (Angstroms)
 Number     Number       Type             X           Y           Z
 ---------------------------------------------------------------------
      1          6           0       -0.678505    0.354798   -0.007269
      2          8           0       -1.754288   -0.159945   -0.004447
      3          6           0        0.548331   -0.406134   -0.016694
      4          6           0        1.741201    0.147441   -0.046029
      5          1           0        0.481770   -1.394127    0.106081
      6          1           0        1.729118    1.103320   -0.007241
      7          1           0        2.794173   -0.468559    0.184313
      8          1           0       -0.636928    1.462303    0.172375
 ---------------------------------------------------------------------

 SCF Done:  E(RB2PLYPD3) =  -191.578433507     A.U. after   12 cycles
 E2(B2PLYPD3) =    -0.2460475472D+00 E(B2PLYPD3) =    -0.19182448105375D+03

 The electronic state is 1-A.
 Alpha  occ. eigenvalues --  -19.72698 -10.71316 -10.64991 -10.62880  -1.20818
 Alpha  occ. eigenvalues --   -0.94156  -0.75369  -0.68466  -0.58251  -0.55456
 Alpha  occ. eigenvalues --   -0.50457  -0.47510  -0.46787  -0.34970  -0.33815
 Alpha virt. eigenvalues --   -0.01602   0.05505   0.07111   0.08459   0.09878
 Alpha virt. eigenvalues --    0.12159   0.14032   0.15312   0.18096   0.19218
 Alpha virt. eigenvalues --    0.20482   0.21310   0.25201   0.26438   0.28697

 Mulliken charges:
               1
     1  C    0.137182
     2  O   -0.334948
     3  C   -0.030571
     4  C   -0.129583
     5  H    0.111206
     6  H    0.089789
     7  H    0.089315
     8  H    0.067611
 Sum of Mulliken charges =   0.00000

 Dipole moment (field-independent basis, Debye):
    X=              3.2216    Y=              0.8277    Z=              0.3021  Tot=              3.3399
 Quadrupole moment (field-independent basis, Debye-Ang):
   XX=            -27.1933   YY=            -22.0453   ZZ=            -24.9285
   XY=             -1.4888   XZ=              0.4750   YZ=             -0.1920

 Normal termination of Gaussian 09 at Wed Aug 26 12:55:28 2020.
