 Gaussian 09, Revision D.01,
 Gaussian 09:  ES64L-G09RevD.01 24-Apr-2013

 --------------------
 #p B2PLYPD3/Def2QZVP
 --------------------

 --------
 acrolein
 --------
 Symbolic Z-matrix:
 Charge =  0 Multiplicity = 1

                         Standard orientation:
 ---------------------------------------------------------------------
 Center     Atomic      Atomic             Coordinates (Angstroms)
 Number     Number       Type             X           Y           Z
 ---------------------------------------------------------------------
      1          6           0        0.705273    0.359690   -0.088581
      2          8           0        1.764186   -0.150987    0.068559
      3          6           0       -0.539905   -0.413022   -0.036069
      4          6           0       -1.772407    0.144439    0.007245
      5          1           0       -0.416740   -1.457719   -0.051407
      6          1           0       -1.834239    1.032178    0.260867
      7          1           0       -2.793118   -0.436776    0.043032
      8          1           0        0.572838    1.523567   -0.096537
 ---------------------------------------------------------------------

 SCF Done:  E(RB2PLYPD3) =  -191.579745640     A.U. after   14 cycles
 E2(B2PLYPD3) =    -0.2469364761D+00 E(B2PLYPD3) =    -0.19182668211633D+03

 The electronic state is 1-A.
 Alpha  occ. eigenvalues --  -19.73207 -10.72066 -10.64714 -10.64260  -1.21475
 Alpha  occ. eigenvalues --   -0.92772  -0.76086  -0.67171  -0.57590  -0.55877
 Alpha  occ. eigenvalues --   -0.50559  -0.47931  -0.47319  -0.34354  -0.33590
 Alpha virt. eigenvalues --   -0.02124   0.05720   0.07331   0.08164   0.09899
 Alpha virt. eigenvalues --    0.12266   0.13976   0.15378   0.17222   0.19592
 Alpha virt. eigenvalues --    0.20352   0.22211   0.24762   0.26009   0.28454

 Mulliken charges:
               1
     1  C    0.160824
     2  O   -0.327292
     3  C   -0.041139
     4  C   -0.142533
     5  H    0.107333
     6  H    0.099943
     7  H    0.088468
     8  H    0.054396
 Sum of Mulliken charges =   0.00000

 Dipole moment (field-independent basis, Debye):
    X=             -3.1694    Y=              0.7719    Z=             -0.0435  Tot=              3.2623
 Quadrupole moment (field-independent basis, Debye-Ang):
   XX=            -26.8425   YY=            -22.2141   ZZ=            -25.0965
   XY=              1.0516   XZ=             -0.8292   YZ=              0.3140

 Normal termination of Gaussian 09 at Wed Aug 26 10:43:18 2020.
