 Gaussian 09, Revision D.01,
 Gaussian 09:  ES64L-G09RevD.01 24-Apr-2013

 --------------------
 #p B2PLYPD3/Def2QZVP
 --------------------

 --------
 acrolein
 --------
 Symbolic Z-matrix:
 Charge =  0 Multiplicity = 1

                         Standard orientation:
 ---------------------------------------------------------------------
 Center     Atomic      Atomic             Coordinates (Angstroms)
 Number     Number       Type             X           Y           Z
 ---------------------------------------------------------------------
      1          6           0       -0.710790    0.389082    0.029690
      2          8           0       -1.756400   -0.177986   -0.032696
      3          6           0        0.563706   -0.407620    0.034779
      4          6           0        1.769620    0.129134   -0.033635
      5          1           0        0.487150   -1.492771    0.119730
      6          1           0        1.659461    1.111039    0.156889
      7          1           0        2.736837   -0.394178   -0.159037
      8          1           0       -0.567459    1.536222   -0.041020
 ---------------------------------------------------------------------

 SCF Done:  E(RB2PLYPD3) =  -191.597703454     A.U. after   13 cycles
 E2(B2PLYPD3) =    -0.2469016369D+00 E(B2PLYPD3) =    -0.19184460509044D+03

 The electronic state is 1-A.
 Alpha  occ. eigenvalues --  -19.73413 -10.72586 -10.64041 -10.63893  -1.21265
 Alpha  occ. eigenvalues --   -0.92990  -0.74456  -0.66532  -0.57237  -0.56111
 Alpha  occ. eigenvalues --   -0.51541  -0.47853  -0.45619  -0.34424  -0.33928
 Alpha virt. eigenvalues --   -0.01181   0.05972   0.07078   0.07832   0.09975
 Alpha virt. eigenvalues --    0.12270   0.13888   0.15422   0.17266   0.19497
 Alpha virt. eigenvalues --    0.20391   0.21659   0.25225   0.26332   0.29219

 Mulliken charges:
               1
     1  C    0.152606
     2  O   -0.321980
     3  C   -0.039745
     4  C   -0.141783
     5  H    0.096036
     6  H    0.074178
     7  H    0.113209
     8  H    0.067479
 Sum of Mulliken charges =   0.00000

 Dipole moment (field-independent basis, Debye):
    X=              3.0706    Y=              0.8824    Z=              0.1833  Tot=              3.2001
 Quadrupole moment (field-independent basis, Debye-Ang):
   XX=            -26.9496   YY=            -22.1420   ZZ=            -25.1228
   XY=             -1.7267   XZ=             -0.2859   YZ=              0.1162

 Normal termination of Gaussian 09 at Wed Aug 26 14:23:17 2020.
