 Gaussian 09, Revision D.01,
 Gaussian 09:  ES64L-G09RevD.01 24-Apr-2013

 --------------------
 #p B2PLYPD3/Def2QZVP
 --------------------

 --------
 acrolein
 --------
 Symbolic Z-matrix:
 Charge =  0 Multiplicity = 1

                         Standard orientation:
 ---------------------------------------------------------------------
 Center     Atomic      Atomic             Coordinates (Angstroms)
 Number     Number       Type             X           Y           Z
 ---------------------------------------------------------------------
      1          6           0       -0.663717    0.344980   -0.028514
      2          8           0       -1.788465   -0.126567    0.024825
      3          6           0        0.562662   -0.440503   -0.029773
      4          6           0        1.743798    0.135591    0.005313
      5          1           0        0.476519   -1.499591    0.000477
      6          1           0        1.798740    1.194026    0.029443
      7          1           0        2.665161   -0.404081    0.087840
      8          1           0       -0.489161    1.481775    0.001483
 ---------------------------------------------------------------------

 SCF Done:  E(RB2PLYPD3) =  -191.614223093     A.U. after   12 cycles
 E2(B2PLYPD3) =    -0.2474006293D+00 E(B2PLYPD3) =    -0.19186162372225D+03

 The electronic state is 1-A.
 Alpha  occ. eigenvalues --  -19.72985 -10.72120 -10.64905 -10.63916  -1.19010
 Alpha  occ. eigenvalues --   -0.93857  -0.75733  -0.66932  -0.56909  -0.56426
 Alpha  occ. eigenvalues --   -0.50559  -0.47023  -0.46665  -0.35047  -0.33910
 Alpha virt. eigenvalues --   -0.01844   0.05796   0.07084   0.08264   0.09796
 Alpha virt. eigenvalues --    0.12658   0.13976   0.15310   0.17436   0.19865
 Alpha virt. eigenvalues --    0.20064   0.21635   0.25543   0.26388   0.28889

 Mulliken charges:
               1
     1  C    0.154399
     2  O   -0.350962
     3  C   -0.026489
     4  C   -0.124809
     5  H    0.103966
     6  H    0.081310
     7  H    0.102021
     8  H    0.060565
 Sum of Mulliken charges =   0.00000

 Dipole moment (field-independent basis, Debye):
    X=              3.5680    Y=              0.7099    Z=              0.0164  Tot=              3.6379
 Quadrupole moment (field-independent basis, Debye-Ang):
   XX=            -27.3642   YY=            -21.8989   ZZ=            -25.1152
   XY=             -0.9866   XZ=              0.3836   YZ=             -0.0216

 Normal termination of Gaussian 09 at Wed Aug 26 12:49:22 2020.
