 Gaussian 09, Revision D.01,
 Gaussian 09:  ES64L-G09RevD.01 24-Apr-2013

 --------------------
 #p B2PLYPD3/Def2QZVP
 --------------------

 --------
 acrolein
 --------
 Symbolic Z-matrix:
 Charge =  0 Multiplicity = 1

                         Standard orientation:
 ---------------------------------------------------------------------
 Center     Atomic      Atomic             Coordinates (Angstroms)
 Number     Number       Type             X           Y           Z
 ---------------------------------------------------------------------
      1          6           0        0.676443    0.346383    0.029411
      2          8           0        1.816187   -0.100251   -0.061695
      3          6           0       -0.566972   -0.464429    0.093231
      4          6           0       -1.761761    0.154601   -0.076629
      5          1           0       -0.375527   -1.609345    0.114002
      6          1           0       -1.967138    1.230920    0.075462
      7          1           0       -2.739972   -0.459445   -0.144175
      8          1           0        0.466884    1.420542    0.172197
 ---------------------------------------------------------------------

 SCF Done:  E(RB2PLYPD3) =  -191.599787915     A.U. after   13 cycles
 E2(B2PLYPD3) =    -0.2500715094D+00 E(B2PLYPD3) =    -0.19184985942437D+03

 The electronic state is 1-A.
 Alpha  occ. eigenvalues --  -19.73077 -10.72036 -10.67186 -10.66098  -1.18558
 Alpha  occ. eigenvalues --   -0.92179  -0.75119  -0.66114  -0.56293  -0.54837
 Alpha  occ. eigenvalues --   -0.50209  -0.46432  -0.45453  -0.34499  -0.33742
 Alpha virt. eigenvalues --   -0.02384   0.05415   0.06473   0.07709   0.09528
 Alpha virt. eigenvalues --    0.12231   0.13788   0.15310   0.16934   0.19594
 Alpha virt. eigenvalues --    0.20002   0.21212   0.24031   0.26566   0.27791

 Mulliken charges:
               1
     1  C    0.169656
     2  O   -0.356119
     3  C   -0.045177
     4  C   -0.125098
     5  H    0.104221
     6  H    0.091622
     7  H    0.090852
     8  H    0.070043
 Sum of Mulliken charges =   0.00000

 Dipole moment (field-independent basis, Debye):
    X=             -3.6026    Y=              0.7460    Z=              0.2795  Tot=              3.6897
 Quadrupole moment (field-independent basis, Debye-Ang):
   XX=            -27.6423   YY=            -21.7875   ZZ=            -25.5078
   XY=              0.3781   XZ=              0.4644   YZ=              0.1292

 Normal termination of Gaussian 09 at Wed Aug 26 13:35:08 2020.
