 Gaussian 09, Revision D.01,
 Gaussian 09:  ES64L-G09RevD.01 24-Apr-2013

 --------------------
 #p B2PLYPD3/Def2QZVP
 --------------------

 --------
 acrolein
 --------
 Symbolic Z-matrix:
 Charge =  0 Multiplicity = 1

                         Standard orientation:
 ---------------------------------------------------------------------
 Center     Atomic      Atomic             Coordinates (Angstroms)
 Number     Number       Type             X           Y           Z
 ---------------------------------------------------------------------
      1          6           0        0.658575    0.342358    0.001791
      2          8           0        1.797095   -0.111403   -0.007218
      3          6           0       -0.585083   -0.480525    0.036951
      4          6           0       -1.736203    0.148430   -0.020553
      5          1           0       -0.438820   -1.542446   -0.049462
      6          1           0       -1.853336    1.251784    0.039506
      7          1           0       -2.610543   -0.381860   -0.027190
      8          1           0        0.502209    1.502175   -0.014245
 ---------------------------------------------------------------------

 SCF Done:  E(RB2PLYPD3) =  -191.608486701     A.U. after   13 cycles
 E2(B2PLYPD3) =    -0.2479700154D+00 E(B2PLYPD3) =    -0.19185645671609D+03

 The electronic state is 1-A.
 Alpha  occ. eigenvalues --  -19.72940 -10.72426 -10.64892 -10.64553  -1.18611
 Alpha  occ. eigenvalues --   -0.93531  -0.75257  -0.66314  -0.57095  -0.55739
 Alpha  occ. eigenvalues --   -0.50422  -0.47107  -0.46235  -0.35163  -0.33577
 Alpha virt. eigenvalues --   -0.01521   0.05747   0.07044   0.07728   0.09687
 Alpha virt. eigenvalues --    0.12563   0.13875   0.15163   0.17183   0.19811
 Alpha virt. eigenvalues --    0.19957   0.21889   0.25088   0.26537   0.28503

 Mulliken charges:
               1
     1  C    0.160252
     2  O   -0.352407
     3  C   -0.045436
     4  C   -0.116753
     5  H    0.109947
     6  H    0.085764
     7  H    0.098762
     8  H    0.059871
 Sum of Mulliken charges =   0.00000

 Dipole moment (field-independent basis, Debye):
    X=             -3.5685    Y=              0.6602    Z=             -0.0243  Tot=              3.6291
 Quadrupole moment (field-independent basis, Debye-Ang):
   XX=            -27.6410   YY=            -21.6480   ZZ=            -25.2222
   XY=              0.6905   XZ=              0.0696   YZ=              0.1539

 Normal termination of Gaussian 09 at Wed Aug 26 10:03:23 2020.
