 Gaussian 09, Revision D.01,
 Gaussian 09:  ES64L-G09RevD.01 24-Apr-2013

 --------------------
 #p B2PLYPD3/Def2QZVP
 --------------------

 --------
 acrolein
 --------
 Symbolic Z-matrix:
 Charge =  0 Multiplicity = 1

                         Standard orientation:
 ---------------------------------------------------------------------
 Center     Atomic      Atomic             Coordinates (Angstroms)
 Number     Number       Type             X           Y           Z
 ---------------------------------------------------------------------
      1          6           0        0.667500    0.350594    0.051301
      2          8           0        1.828982   -0.121106   -0.058275
      3          6           0       -0.579445   -0.455287    0.022490
      4          6           0       -1.751021    0.157478   -0.029916
      5          1           0       -0.506498   -1.589940    0.180846
      6          1           0       -1.819101    1.150523   -0.136985
      7          1           0       -2.686894   -0.438652   -0.064521
      8          1           0        0.358437    1.530203    0.223607
 ---------------------------------------------------------------------

 SCF Done:  E(RB2PLYPD3) =  -191.590780976     A.U. after   13 cycles
 E2(B2PLYPD3) =    -0.2513699287D+00 E(B2PLYPD3) =    -0.19184215090464D+03

 The electronic state is 1-A.
 Alpha  occ. eigenvalues --  -19.73792 -10.74024 -10.65450 -10.64973  -1.17180
 Alpha  occ. eigenvalues --   -0.93629  -0.75535  -0.65940  -0.56072  -0.55605
 Alpha  occ. eigenvalues --   -0.49861  -0.46961  -0.45280  -0.35082  -0.33986
 Alpha virt. eigenvalues --   -0.02441   0.05595   0.06073   0.07554   0.09690
 Alpha virt. eigenvalues --    0.12613   0.13340   0.14843   0.16862   0.19525
 Alpha virt. eigenvalues --    0.20469   0.21637   0.24537   0.26587   0.28330

 Mulliken charges:
               1
     1  C    0.160517
     2  O   -0.357132
     3  C   -0.017285
     4  C   -0.127073
     5  H    0.097079
     6  H    0.089115
     7  H    0.099447
     8  H    0.055332
 Sum of Mulliken charges =   0.00000

 Dipole moment (field-independent basis, Debye):
    X=             -3.7189    Y=              0.6799    Z=              0.2388  Tot=              3.7881
 Quadrupole moment (field-independent basis, Debye-Ang):
   XX=            -27.8335   YY=            -21.9126   ZZ=            -25.3868
   XY=              0.7000   XZ=              0.5178   YZ=             -0.2787

 Normal termination of Gaussian 09 at Wed Aug 26 14:25:00 2020.
