 Gaussian 09, Revision D.01,
 Gaussian 09:  ES64L-G09RevD.01 24-Apr-2013

 --------------------
 #p B2PLYPD3/Def2QZVP
 --------------------

 --------
 acrolein
 --------
 Symbolic Z-matrix:
 Charge =  0 Multiplicity = 1

                         Standard orientation:
 ---------------------------------------------------------------------
 Center     Atomic      Atomic             Coordinates (Angstroms)
 Number     Number       Type             X           Y           Z
 ---------------------------------------------------------------------
      1          6           0        0.695779    0.336112   -0.065106
      2          8           0        1.786154   -0.101834    0.068467
      3          6           0       -0.541155   -0.463584   -0.073786
      4          6           0       -1.774369    0.127810    0.046457
      5          1           0       -0.385996   -1.488220   -0.120564
      6          1           0       -1.955418    1.370016   -0.051689
      7          1           0       -2.688969   -0.503117    0.216439
      8          1           0        0.459621    1.433958   -0.037311
 ---------------------------------------------------------------------

 SCF Done:  E(RB2PLYPD3) =  -191.592292860     A.U. after   13 cycles
 E2(B2PLYPD3) =    -0.2482957863D+00 E(B2PLYPD3) =    -0.19184058864580D+03

 The electronic state is 1-A.
 Alpha  occ. eigenvalues --  -19.72981 -10.71354 -10.68261 -10.64542  -1.21360
 Alpha  occ. eigenvalues --   -0.91717  -0.74536  -0.66514  -0.56299  -0.54949
 Alpha  occ. eigenvalues --   -0.50839  -0.47808  -0.45832  -0.34042  -0.33585
 Alpha virt. eigenvalues --   -0.01921   0.05016   0.07182   0.08206   0.09548
 Alpha virt. eigenvalues --    0.11894   0.13536   0.15354   0.18089   0.18627
 Alpha virt. eigenvalues --    0.19889   0.21208   0.24604   0.26780   0.28384

 Mulliken charges:
               1
     1  C    0.172387
     2  O   -0.332517
     3  C   -0.049190
     4  C   -0.135677
     5  H    0.107621
     6  H    0.082603
     7  H    0.104159
     8  H    0.050615
 Sum of Mulliken charges =   0.00000

 Dipole moment (field-independent basis, Debye):
    X=             -3.3461    Y=              0.5794    Z=             -0.1915  Tot=              3.4013
 Quadrupole moment (field-independent basis, Debye-Ang):
   XX=            -27.2793   YY=            -21.9094   ZZ=            -25.4508
   XY=              0.6361   XZ=             -0.7345   YZ=             -0.0890

 Normal termination of Gaussian 09 at Wed Aug 26 13:10:31 2020.
