 Gaussian 09, Revision D.01,
 Gaussian 09:  ES64L-G09RevD.01 24-Apr-2013

 --------------------
 #p B2PLYPD3/Def2QZVP
 --------------------

 --------
 acrolein
 --------
 Symbolic Z-matrix:
 Charge =  0 Multiplicity = 1

                         Standard orientation:
 ---------------------------------------------------------------------
 Center     Atomic      Atomic             Coordinates (Angstroms)
 Number     Number       Type             X           Y           Z
 ---------------------------------------------------------------------
      1          6           0       -0.688424    0.371023    0.019793
      2          8           0       -1.760564   -0.145972   -0.027494
      3          6           0        0.553712   -0.444168    0.056171
      4          6           0        1.747693    0.142746   -0.032198
      5          1           0        0.503947   -1.503573   -0.018399
      6          1           0        1.755534    1.217266    0.015703
      7          1           0        2.694811   -0.418267   -0.060029
      8          1           0       -0.547665    1.454735    0.020083
 ---------------------------------------------------------------------

 SCF Done:  E(RB2PLYPD3) =  -191.614320104     A.U. after   12 cycles
 E2(B2PLYPD3) =    -0.2461444095D+00 E(B2PLYPD3) =    -0.19186046451392D+03

 The electronic state is 1-A.
 Alpha  occ. eigenvalues --  -19.72801 -10.71484 -10.65049 -10.63805  -1.20826
 Alpha  occ. eigenvalues --   -0.92629  -0.74622  -0.67441  -0.57012  -0.56180
 Alpha  occ. eigenvalues --   -0.50718  -0.47426  -0.46668  -0.34490  -0.33881
 Alpha virt. eigenvalues --   -0.01143   0.05863   0.07242   0.08025   0.09825
 Alpha virt. eigenvalues --    0.12487   0.14024   0.15357   0.17811   0.19828
 Alpha virt. eigenvalues --    0.19942   0.21323   0.25240   0.26433   0.29041

 Mulliken charges:
               1
     1  C    0.149782
     2  O   -0.333394
     3  C   -0.048196
     4  C   -0.131522
     5  H    0.105880
     6  H    0.076344
     7  H    0.100848
     8  H    0.080259
 Sum of Mulliken charges =   0.00000

 Dipole moment (field-independent basis, Debye):
    X=              3.2164    Y=              0.8506    Z=              0.0283  Tot=              3.3271
 Quadrupole moment (field-independent basis, Debye-Ang):
   XX=            -27.3265   YY=            -21.6986   ZZ=            -25.1838
   XY=             -1.3730   XZ=             -0.2837   YZ=              0.1262

 Normal termination of Gaussian 09 at Wed Aug 26 09:12:29 2020.
