 Gaussian 09, Revision D.01,
 Gaussian 09:  ES64L-G09RevD.01 24-Apr-2013

 --------------------
 #p B2PLYPD3/Def2QZVP
 --------------------

 --------
 acrolein
 --------
 Symbolic Z-matrix:
 Charge =  0 Multiplicity = 1

                         Standard orientation:
 ---------------------------------------------------------------------
 Center     Atomic      Atomic             Coordinates (Angstroms)
 Number     Number       Type             X           Y           Z
 ---------------------------------------------------------------------
      1          6           0        0.665034    0.353376    0.020093
      2          8           0        1.779047   -0.125647   -0.035245
      3          6           0       -0.566223   -0.440265    0.054898
      4          6           0       -1.748139    0.133719   -0.042969
      5          1           0       -0.451354   -1.528330    0.053477
      6          1           0       -1.796020    1.222941    0.031246
      7          1           0       -2.608366   -0.401878   -0.075093
      8          1           0        0.519328    1.431462    0.080198
 ---------------------------------------------------------------------

 SCF Done:  E(RB2PLYPD3) =  -191.612969946     A.U. after   13 cycles
 E2(B2PLYPD3) =    -0.2466601826D+00 E(B2PLYPD3) =    -0.19185963012853D+03

 The electronic state is 1-A.
 Alpha  occ. eigenvalues --  -19.72773 -10.71408 -10.64545 -10.64122  -1.19311
 Alpha  occ. eigenvalues --   -0.93578  -0.76045  -0.67050  -0.57393  -0.56444
 Alpha  occ. eigenvalues --   -0.50933  -0.47035  -0.46391  -0.34898  -0.33924
 Alpha virt. eigenvalues --   -0.01629   0.05881   0.07146   0.08238   0.09813
 Alpha virt. eigenvalues --    0.12657   0.14161   0.15301   0.17353   0.19845
 Alpha virt. eigenvalues --    0.19977   0.22006   0.25312   0.26478   0.28844

 Mulliken charges:
               1
     1  C    0.155981
     2  O   -0.350679
     3  C   -0.035395
     4  C   -0.127137
     5  H    0.100236
     6  H    0.078773
     7  H    0.105185
     8  H    0.073035
 Sum of Mulliken charges =   0.00000

 Dipole moment (field-independent basis, Debye):
    X=             -3.4771    Y=              0.7727    Z=              0.1343  Tot=              3.5644
 Quadrupole moment (field-independent basis, Debye-Ang):
   XX=            -27.4746   YY=            -21.7219   ZZ=            -25.0756
   XY=              1.0694   XZ=              0.2963   YZ=              0.0778

 Normal termination of Gaussian 09 at Wed Aug 26 09:28:18 2020.
