 Gaussian 09, Revision D.01,
 Gaussian 09:  ES64L-G09RevD.01 24-Apr-2013

 --------------------
 #p B2PLYPD3/Def2QZVP
 --------------------

 --------
 acrolein
 --------
 Symbolic Z-matrix:
 Charge =  0 Multiplicity = 1

                         Standard orientation:
 ---------------------------------------------------------------------
 Center     Atomic      Atomic             Coordinates (Angstroms)
 Number     Number       Type             X           Y           Z
 ---------------------------------------------------------------------
      1          6           0       -0.676887    0.377485   -0.035770
      2          8           0       -1.792289   -0.131924    0.035417
      3          6           0        0.574889   -0.445359   -0.045123
      4          6           0        1.758648    0.124967    0.007367
      5          1           0        0.421579   -1.553844    0.016625
      6          1           0        1.860773    1.244778    0.093027
      7          1           0        2.629221   -0.406606    0.090714
      8          1           0       -0.513160    1.428503   -0.042550
 ---------------------------------------------------------------------

 SCF Done:  E(RB2PLYPD3) =  -191.609139799     A.U. after   13 cycles
 E2(B2PLYPD3) =    -0.2476412637D+00 E(B2PLYPD3) =    -0.19185678106289D+03

 The electronic state is 1-A.
 Alpha  occ. eigenvalues --  -19.73035 -10.71780 -10.64857 -10.64628  -1.18582
 Alpha  occ. eigenvalues --   -0.92968  -0.75746  -0.67055  -0.56991  -0.55951
 Alpha  occ. eigenvalues --   -0.50960  -0.46254  -0.45858  -0.34875  -0.34051
 Alpha virt. eigenvalues --   -0.01620   0.05700   0.07198   0.07791   0.09691
 Alpha virt. eigenvalues --    0.12514   0.14098   0.15390   0.17292   0.19464
 Alpha virt. eigenvalues --    0.19933   0.22046   0.25346   0.26675   0.28643

 Mulliken charges:
               1
     1  C    0.163535
     2  O   -0.356384
     3  C   -0.050963
     4  C   -0.123733
     5  H    0.103180
     6  H    0.071850
     7  H    0.104213
     8  H    0.088303
 Sum of Mulliken charges =   0.00000

 Dipole moment (field-independent basis, Debye):
    X=              3.4336    Y=              0.8857    Z=              0.0374  Tot=              3.5462
 Quadrupole moment (field-independent basis, Debye-Ang):
   XX=            -27.6586   YY=            -21.5899   ZZ=            -25.2076
   XY=             -0.9944   XZ=              0.5651   YZ=             -0.0121

 Normal termination of Gaussian 09 at Wed Aug 26 09:23:44 2020.
