 Gaussian 09, Revision D.01,
 Gaussian 09:  ES64L-G09RevD.01 24-Apr-2013

 --------------------
 #p B2PLYPD3/Def2QZVP
 --------------------

 --------
 acrolein
 --------
 Symbolic Z-matrix:
 Charge =  0 Multiplicity = 1

                         Standard orientation:
 ---------------------------------------------------------------------
 Center     Atomic      Atomic             Coordinates (Angstroms)
 Number     Number       Type             X           Y           Z
 ---------------------------------------------------------------------
      1          6           0       -0.658061    0.350692   -0.023360
      2          8           0       -1.786048   -0.134177    0.024085
      3          6           0        0.551678   -0.432431   -0.025510
      4          6           0        1.743043    0.128906    0.014084
      5          1           0        0.483564   -1.494054    0.009165
      6          1           0        1.808615    1.229227    0.102770
      7          1           0        2.666421   -0.453885   -0.015290
      8          1           0       -0.490181    1.509122   -0.080608
 ---------------------------------------------------------------------

 SCF Done:  E(RB2PLYPD3) =  -191.610995601     A.U. after   13 cycles
 E2(B2PLYPD3) =    -0.2484413994D+00 E(B2PLYPD3) =    -0.19185943700035D+03

 The electronic state is 1-A.
 Alpha  occ. eigenvalues --  -19.72959 -10.72317 -10.65738 -10.63907  -1.18557
 Alpha  occ. eigenvalues --   -0.93851  -0.75555  -0.66454  -0.56643  -0.56023
 Alpha  occ. eigenvalues --   -0.50174  -0.46779  -0.46384  -0.34940  -0.33951
 Alpha virt. eigenvalues --   -0.02102   0.05652   0.06851   0.08245   0.09788
 Alpha virt. eigenvalues --    0.12423   0.13703   0.15316   0.17458   0.19434
 Alpha virt. eigenvalues --    0.20102   0.21488   0.25604   0.26214   0.28989

 Mulliken charges:
               1
     1  C    0.156007
     2  O   -0.354453
     3  C   -0.028953
     4  C   -0.121421
     5  H    0.104456
     6  H    0.080439
     7  H    0.104175
     8  H    0.059750
 Sum of Mulliken charges =   0.00000

 Dipole moment (field-independent basis, Debye):
    X=              3.6218    Y=              0.6985    Z=             -0.0229  Tot=              3.6886
 Quadrupole moment (field-independent basis, Debye-Ang):
   XX=            -27.4774   YY=            -21.8550   ZZ=            -25.2211
   XY=             -1.1379   XZ=              0.2413   YZ=              0.0706

 Normal termination of Gaussian 09 at Wed Aug 26 09:21:01 2020.
