 Gaussian 09, Revision D.01,
 Gaussian 09:  ES64L-G09RevD.01 24-Apr-2013

 --------------------
 #p B2PLYPD3/Def2QZVP
 --------------------

 --------
 acrolein
 --------
 Symbolic Z-matrix:
 Charge =  0 Multiplicity = 1

                         Standard orientation:
 ---------------------------------------------------------------------
 Center     Atomic      Atomic             Coordinates (Angstroms)
 Number     Number       Type             X           Y           Z
 ---------------------------------------------------------------------
      1          6           0        0.664228    0.340429    0.044907
      2          8           0        1.784233   -0.119247   -0.041176
      3          6           0       -0.577182   -0.453486   -0.009694
      4          6           0       -1.733365    0.152636   -0.049119
      5          1           0       -0.587498   -1.516161    0.182141
      6          1           0       -1.728665    1.217584   -0.069313
      7          1           0       -2.537997   -0.370900    0.095429
      8          1           0        0.458215    1.385975    0.204582
 ---------------------------------------------------------------------

 SCF Done:  E(RB2PLYPD3) =  -191.601347664     A.U. after   13 cycles
 E2(B2PLYPD3) =    -0.2462799079D+00 E(B2PLYPD3) =    -0.19184762757160D+03

 The electronic state is 1-A.
 Alpha  occ. eigenvalues --  -19.72992 -10.71567 -10.63632 -10.63239  -1.19385
 Alpha  occ. eigenvalues --   -0.94295  -0.76370  -0.67448  -0.58225  -0.56424
 Alpha  occ. eigenvalues --   -0.51177  -0.47679  -0.46102  -0.35085  -0.34042
 Alpha virt. eigenvalues --   -0.01454   0.06076   0.06864   0.08133   0.09827
 Alpha virt. eigenvalues --    0.13002   0.14569   0.15073   0.17615   0.19401
 Alpha virt. eigenvalues --    0.20287   0.22162   0.24827   0.27145   0.28731

 Mulliken charges:
               1
     1  C    0.144758
     2  O   -0.343454
     3  C   -0.020841
     4  C   -0.127599
     5  H    0.089636
     6  H    0.075928
     7  H    0.101739
     8  H    0.079833
 Sum of Mulliken charges =   0.00000

 Dipole moment (field-independent basis, Debye):
    X=             -3.4313    Y=              0.7665    Z=              0.4184  Tot=              3.5407
 Quadrupole moment (field-independent basis, Debye-Ang):
   XX=            -27.7555   YY=            -21.7173   ZZ=            -24.8741
   XY=              1.1357   XZ=             -0.0879   YZ=             -0.3049

 Normal termination of Gaussian 09 at Wed Aug 26 14:29:59 2020.
