 Gaussian 09, Revision D.01,
 Gaussian 09:  ES64L-G09RevD.01 24-Apr-2013

 --------------------
 #p B2PLYPD3/Def2QZVP
 --------------------

 --------
 acrolein
 --------
 Symbolic Z-matrix:
 Charge =  0 Multiplicity = 1

                         Standard orientation:
 ---------------------------------------------------------------------
 Center     Atomic      Atomic             Coordinates (Angstroms)
 Number     Number       Type             X           Y           Z
 ---------------------------------------------------------------------
      1          6           0       -0.673296    0.343758    0.026466
      2          8           0       -1.785649   -0.110879   -0.018848
      3          6           0        0.560122   -0.466395    0.017107
      4          6           0        1.759127    0.145164   -0.017518
      5          1           0        0.435758   -1.568786    0.009784
      6          1           0        1.833853    1.264487    0.001469
      7          1           0        2.639721   -0.403653   -0.016012
      8          1           0       -0.499855    1.459828   -0.000787
 ---------------------------------------------------------------------

 SCF Done:  E(RB2PLYPD3) =  -191.613462910     A.U. after   12 cycles
 E2(B2PLYPD3) =    -0.2474083474D+00 E(B2PLYPD3) =    -0.19186087125738D+03

 The electronic state is 1-A.
 Alpha  occ. eigenvalues --  -19.72838 -10.71704 -10.65600 -10.64917  -1.20018
 Alpha  occ. eigenvalues --   -0.92573  -0.75366  -0.66239  -0.56762  -0.55902
 Alpha  occ. eigenvalues --   -0.50655  -0.47002  -0.46884  -0.34519  -0.33717
 Alpha virt. eigenvalues --   -0.01720   0.05765   0.07034   0.08138   0.09718
 Alpha virt. eigenvalues --    0.12526   0.14037   0.15366   0.17224   0.19670
 Alpha virt. eigenvalues --    0.19977   0.21732   0.25295   0.26455   0.28743

 Mulliken charges:
               1
     1  C    0.160798
     2  O   -0.341688
     3  C   -0.043173
     4  C   -0.130903
     5  H    0.102457
     6  H    0.083968
     7  H    0.106684
     8  H    0.061857
 Sum of Mulliken charges =   0.00000

 Dipole moment (field-independent basis, Debye):
    X=              3.4458    Y=              0.6787    Z=              0.0660  Tot=              3.5126
 Quadrupole moment (field-independent basis, Debye-Ang):
   XX=            -27.4420   YY=            -21.7018   ZZ=            -25.3099
   XY=             -0.8252   XZ=             -0.1205   YZ=              0.0029

 Normal termination of Gaussian 09 at Wed Aug 26 16:19:40 2020.
