 Gaussian 09, Revision D.01,
 Gaussian 09:  ES64L-G09RevD.01 24-Apr-2013

 --------------------
 #p B2PLYPD3/Def2QZVP
 --------------------

 --------
 acrolein
 --------
 Symbolic Z-matrix:
 Charge =  0 Multiplicity = 1

                         Standard orientation:
 ---------------------------------------------------------------------
 Center     Atomic      Atomic             Coordinates (Angstroms)
 Number     Number       Type             X           Y           Z
 ---------------------------------------------------------------------
      1          6           0       -0.684785    0.363376    0.034405
      2          8           0       -1.771220   -0.136804   -0.037619
      3          6           0        0.530244   -0.439406    0.048690
      4          6           0        1.753105    0.142686   -0.020462
      5          1           0        0.434755   -1.476933   -0.000588
      6          1           0        1.814813    1.137326   -0.073628
      7          1           0        2.827644   -0.437234   -0.059464
      8          1           0       -0.498841    1.471334    0.058840
 ---------------------------------------------------------------------

 SCF Done:  E(RB2PLYPD3) =  -191.597588254     A.U. after   13 cycles
 E2(B2PLYPD3) =    -0.2474608558D+00 E(B2PLYPD3) =    -0.19184504910983D+03

 The electronic state is 1-A.
 Alpha  occ. eigenvalues --  -19.72883 -10.71643 -10.66172 -10.64078  -1.20451
 Alpha  occ. eigenvalues --   -0.92704  -0.75219  -0.67800  -0.57198  -0.55441
 Alpha  occ. eigenvalues --   -0.50190  -0.47396  -0.46798  -0.34292  -0.33897
 Alpha virt. eigenvalues --   -0.01902   0.05434   0.07202   0.08186   0.09723
 Alpha virt. eigenvalues --    0.12237   0.13889   0.15423   0.17800   0.19789
 Alpha virt. eigenvalues --    0.20130   0.21056   0.25415   0.25982   0.28863

 Mulliken charges:
               1
     1  C    0.149311
     2  O   -0.341253
     3  C   -0.035821
     4  C   -0.137091
     5  H    0.113357
     6  H    0.089566
     7  H    0.091610
     8  H    0.070322
 Sum of Mulliken charges =   0.00000

 Dipole moment (field-independent basis, Debye):
    X=              3.3675    Y=              0.8319    Z=              0.0231  Tot=              3.4688
 Quadrupole moment (field-independent basis, Debye-Ang):
   XX=            -27.1102   YY=            -21.9346   ZZ=            -25.2705
   XY=             -0.9419   XZ=             -0.4515   YZ=             -0.0093

 Normal termination of Gaussian 09 at Wed Aug 26 09:32:20 2020.
