 Gaussian 09, Revision D.01,
 Gaussian 09:  ES64L-G09RevD.01 24-Apr-2013

 --------------------
 #p B2PLYPD3/Def2QZVP
 --------------------

 --------
 acrolein
 --------
 Symbolic Z-matrix:
 Charge =  0 Multiplicity = 1

                         Standard orientation:
 ---------------------------------------------------------------------
 Center     Atomic      Atomic             Coordinates (Angstroms)
 Number     Number       Type             X           Y           Z
 ---------------------------------------------------------------------
      1          6           0       -0.680145    0.347608   -0.035493
      2          8           0       -1.818420   -0.096328    0.033943
      3          6           0        0.578057   -0.490328   -0.042461
      4          6           0        1.770507    0.149037    0.035391
      5          1           0        0.461830   -1.642858   -0.053418
      6          1           0        1.999364    1.284158   -0.070695
      7          1           0        2.513601   -0.405271    0.113002
      8          1           0       -0.437944    1.496698   -0.005052
 ---------------------------------------------------------------------

 SCF Done:  E(RB2PLYPD3) =  -191.579320344     A.U. after   13 cycles
 E2(B2PLYPD3) =    -0.2496273625D+00 E(B2PLYPD3) =    -0.19182894770639D+03

 The electronic state is 1-A.
 Alpha  occ. eigenvalues --  -19.73237 -10.72827 -10.66122 -10.64961  -1.18822
 Alpha  occ. eigenvalues --   -0.92474  -0.76047  -0.65129  -0.56985  -0.54957
 Alpha  occ. eigenvalues --   -0.50363  -0.47108  -0.46122  -0.34401  -0.33652
 Alpha virt. eigenvalues --   -0.01964   0.05558   0.06755   0.07456   0.09417
 Alpha virt. eigenvalues --    0.12440   0.13955   0.15326   0.16707   0.19543
 Alpha virt. eigenvalues --    0.20051   0.22551   0.24440   0.26553   0.27458

 Mulliken charges:
               1
     1  C    0.168047
     2  O   -0.345497
     3  C   -0.050272
     4  C   -0.136830
     5  H    0.098518
     6  H    0.090785
     7  H    0.112571
     8  H    0.062678
 Sum of Mulliken charges =   0.00000

 Dipole moment (field-independent basis, Debye):
    X=              3.5827    Y=              0.6323    Z=             -0.1258  Tot=              3.6402
 Quadrupole moment (field-independent basis, Debye-Ang):
   XX=            -27.6936   YY=            -21.4787   ZZ=            -25.4613
   XY=             -0.4124   XZ=              0.2810   YZ=             -0.0958

 Normal termination of Gaussian 09 at Wed Aug 26 13:03:39 2020.
