 Gaussian 09, Revision D.01,
 Gaussian 09:  ES64L-G09RevD.01 24-Apr-2013

 --------------------
 #p B2PLYPD3/Def2QZVP
 --------------------

 --------
 acrolein
 --------
 Symbolic Z-matrix:
 Charge =  0 Multiplicity = 1

                         Standard orientation:
 ---------------------------------------------------------------------
 Center     Atomic      Atomic             Coordinates (Angstroms)
 Number     Number       Type             X           Y           Z
 ---------------------------------------------------------------------
      1          6           0        0.650322   -0.327486    0.024388
      2          8           0        1.794912    0.080813   -0.048588
      3          6           0       -0.567135    0.477084    0.009060
      4          6           0       -1.751118   -0.169931   -0.012415
      5          1           0       -0.337329    1.730100    0.151802
      6          1           0       -1.931546   -1.293379   -0.137760
      7          1           0       -2.739526    0.391013   -0.036769
      8          1           0        0.656690   -1.352237    0.285226
 ---------------------------------------------------------------------

 SCF Done:  E(RB2PLYPD3) =  -191.579466294     A.U. after   13 cycles
 E2(B2PLYPD3) =    -0.2496344663D+00 E(B2PLYPD3) =    -0.19182910075995D+03

 The electronic state is 1-A.
 Alpha  occ. eigenvalues --  -19.72141 -10.70688 -10.67374 -10.67085  -1.18868
 Alpha  occ. eigenvalues --   -0.92315  -0.74940  -0.65861  -0.56908  -0.54610
 Alpha  occ. eigenvalues --   -0.49604  -0.46087  -0.44529  -0.34697  -0.33268
 Alpha virt. eigenvalues --   -0.02036   0.05440   0.05484   0.07902   0.09385
 Alpha virt. eigenvalues --    0.12180   0.14170   0.15069   0.16638   0.18960
 Alpha virt. eigenvalues --    0.20105   0.20851   0.24480   0.26649   0.28598

 Mulliken charges:
               1
     1  C    0.159419
     2  O   -0.354186
     3  C   -0.053893
     4  C   -0.116593
     5  H    0.104592
     6  H    0.092935
     7  H    0.094800
     8  H    0.072927
 Sum of Mulliken charges =   0.00000

 Dipole moment (field-independent basis, Debye):
    X=             -3.6002    Y=             -0.7290    Z=              0.2283  Tot=              3.6804
 Quadrupole moment (field-independent basis, Debye-Ang):
   XX=            -27.5759   YY=            -21.5171   ZZ=            -25.5124
   XY=             -0.4051   XZ=              0.6124   YZ=              0.3104

 Normal termination of Gaussian 09 at Wed Aug 26 13:01:18 2020.
