 Gaussian 09, Revision D.01,
 Gaussian 09:  ES64L-G09RevD.01 24-Apr-2013

 --------------------
 #p B2PLYPD3/Def2QZVP
 --------------------

 --------
 acrolein
 --------
 Symbolic Z-matrix:
 Charge =  0 Multiplicity = 1

                         Standard orientation:
 ---------------------------------------------------------------------
 Center     Atomic      Atomic             Coordinates (Angstroms)
 Number     Number       Type             X           Y           Z
 ---------------------------------------------------------------------
      1          6           0       -0.666644    0.353020   -0.026362
      2          8           0       -1.797661   -0.136768    0.033743
      3          6           0        0.557881   -0.418589   -0.060521
      4          6           0        1.759729    0.120824    0.005909
      5          1           0        0.424142   -1.470377    0.025372
      6          1           0        1.841888    1.167491    0.056301
      7          1           0        2.675027   -0.464918    0.149031
      8          1           0       -0.465558    1.530417   -0.014809
 ---------------------------------------------------------------------

 SCF Done:  E(RB2PLYPD3) =  -191.607574127     A.U. after   12 cycles
 E2(B2PLYPD3) =    -0.2488713135D+00 E(B2PLYPD3) =    -0.19185644544038D+03

 The electronic state is 1-A.
 Alpha  occ. eigenvalues --  -19.73297 -10.72762 -10.65407 -10.64058  -1.18424
 Alpha  occ. eigenvalues --   -0.93868  -0.76056  -0.66457  -0.56783  -0.56033
 Alpha  occ. eigenvalues --   -0.50403  -0.46820  -0.46376  -0.35030  -0.33993
 Alpha virt. eigenvalues --   -0.02377   0.05655   0.06951   0.08235   0.09865
 Alpha virt. eigenvalues --    0.12473   0.13517   0.15265   0.17440   0.19699
 Alpha virt. eigenvalues --    0.19997   0.21722   0.25191   0.26371   0.28650

 Mulliken charges:
               1
     1  C    0.161137
     2  O   -0.355945
     3  C   -0.023977
     4  C   -0.121134
     5  H    0.103889
     6  H    0.083202
     7  H    0.103235
     8  H    0.049593
 Sum of Mulliken charges =   0.00000

 Dipole moment (field-independent basis, Debye):
    X=              3.6381    Y=              0.7047    Z=              0.0931  Tot=              3.7069
 Quadrupole moment (field-independent basis, Debye-Ang):
   XX=            -27.3474   YY=            -22.0781   ZZ=            -25.1913
   XY=             -0.9352   XZ=              0.6427   YZ=             -0.0927

 Normal termination of Gaussian 09 at Wed Aug 26 08:35:40 2020.
