 Gaussian 09, Revision D.01,
 Gaussian 09:  ES64L-G09RevD.01 24-Apr-2013

 --------------------
 #p B2PLYPD3/Def2QZVP
 --------------------

 --------
 acrolein
 --------
 Symbolic Z-matrix:
 Charge =  0 Multiplicity = 1

                         Standard orientation:
 ---------------------------------------------------------------------
 Center     Atomic      Atomic             Coordinates (Angstroms)
 Number     Number       Type             X           Y           Z
 ---------------------------------------------------------------------
      1          6           0       -0.672831    0.342609    0.013738
      2          8           0       -1.788967   -0.112604   -0.014390
      3          6           0        0.569464   -0.459218   -0.001714
      4          6           0        1.758761    0.139662   -0.005412
      5          1           0        0.431872   -1.511815    0.068718
      6          1           0        1.873351    1.279515   -0.009426
      7          1           0        2.631585   -0.414770   -0.028389
      8          1           0       -0.557442    1.409578    0.044540
 ---------------------------------------------------------------------

 SCF Done:  E(RB2PLYPD3) =  -191.612451013     A.U. after   12 cycles
 E2(B2PLYPD3) =    -0.2465094403D+00 E(B2PLYPD3) =    -0.19185896045351D+03

 The electronic state is 1-A.
 Alpha  occ. eigenvalues --  -19.72616 -10.71051 -10.65558 -10.64302  -1.19709
 Alpha  occ. eigenvalues --   -0.92908  -0.75557  -0.67326  -0.56903  -0.56287
 Alpha  occ. eigenvalues --   -0.50853  -0.47073  -0.46569  -0.34741  -0.33691
 Alpha virt. eigenvalues --   -0.01561   0.05713   0.07344   0.08223   0.09661
 Alpha virt. eigenvalues --    0.12471   0.14043   0.15348   0.17701   0.19373
 Alpha virt. eigenvalues --    0.19978   0.21819   0.25419   0.26575   0.28778

 Mulliken charges:
               1
     1  C    0.159025
     2  O   -0.348477
     3  C   -0.049793
     4  C   -0.128091
     5  H    0.107188
     6  H    0.082408
     7  H    0.104457
     8  H    0.073283
 Sum of Mulliken charges =   0.00000

 Dipole moment (field-independent basis, Debye):
    X=              3.4636    Y=              0.7375    Z=              0.0944  Tot=              3.5425
 Quadrupole moment (field-independent basis, Debye-Ang):
   XX=            -27.4722   YY=            -21.6497   ZZ=            -25.1703
   XY=             -0.8894   XZ=             -0.1191   YZ=             -0.0829

 Normal termination of Gaussian 09 at Wed Aug 26 15:08:15 2020.
