 Gaussian 09, Revision D.01,
 Gaussian 09:  ES64L-G09RevD.01 24-Apr-2013

 --------------------
 #p B2PLYPD3/Def2QZVP
 --------------------

 --------
 acrolein
 --------
 Symbolic Z-matrix:
 Charge =  0 Multiplicity = 1

                         Standard orientation:
 ---------------------------------------------------------------------
 Center     Atomic      Atomic             Coordinates (Angstroms)
 Number     Number       Type             X           Y           Z
 ---------------------------------------------------------------------
      1          6           0       -0.677373    0.334328    0.009138
      2          8           0       -1.791902   -0.110594   -0.031094
      3          6           0        0.575458   -0.468950    0.049585
      4          6           0        1.759744    0.170305   -0.032607
      5          1           0        0.427905   -1.545323    0.053258
      6          1           0        1.823003    1.245697    0.019548
      7          1           0        2.721959   -0.437917   -0.085493
      8          1           0       -0.584624    1.408193    0.104749
 ---------------------------------------------------------------------

 SCF Done:  E(RB2PLYPD3) =  -191.611934801     A.U. after   12 cycles
 E2(B2PLYPD3) =    -0.2471275958D+00 E(B2PLYPD3) =    -0.19185906239729D+03

 The electronic state is 1-A.
 Alpha  occ. eigenvalues --  -19.72585 -10.71138 -10.66289 -10.64927  -1.20003
 Alpha  occ. eigenvalues --   -0.92375  -0.74677  -0.67214  -0.56700  -0.55702
 Alpha  occ. eigenvalues --   -0.50397  -0.47210  -0.46717  -0.34516  -0.33506
 Alpha virt. eigenvalues --   -0.01600   0.05680   0.07086   0.08096   0.09683
 Alpha virt. eigenvalues --    0.12384   0.13860   0.15357   0.17556   0.19637
 Alpha virt. eigenvalues --    0.19989   0.21204   0.25057   0.26413   0.28755

 Mulliken charges:
               1
     1  C    0.157621
     2  O   -0.344717
     3  C   -0.048533
     4  C   -0.133129
     5  H    0.108082
     6  H    0.094814
     7  H    0.098495
     8  H    0.067367
 Sum of Mulliken charges =   0.00000

 Dipole moment (field-independent basis, Debye):
    X=              3.4105    Y=              0.7327    Z=              0.1035  Tot=              3.4898
 Quadrupole moment (field-independent basis, Debye-Ang):
   XX=            -27.5884   YY=            -21.6369   ZZ=            -25.3142
   XY=             -0.8908   XZ=             -0.3291   YZ=              0.0584

 Normal termination of Gaussian 09 at Wed Aug 26 10:25:02 2020.
