 Gaussian 09, Revision D.01,
 Gaussian 09:  ES64L-G09RevD.01 24-Apr-2013

 --------------------
 #p B2PLYPD3/Def2QZVP
 --------------------

 --------
 acrolein
 --------
 Symbolic Z-matrix:
 Charge =  0 Multiplicity = 1

                         Standard orientation:
 ---------------------------------------------------------------------
 Center     Atomic      Atomic             Coordinates (Angstroms)
 Number     Number       Type             X           Y           Z
 ---------------------------------------------------------------------
      1          6           0        0.647972    0.328682    0.014109
      2          8           0        1.804428   -0.090475   -0.031011
      3          6           0       -0.563076   -0.478830    0.016221
      4          6           0       -1.751165    0.135761   -0.012364
      5          1           0       -0.432898   -1.537007    0.093520
      6          1           0       -1.862346    1.317556   -0.095625
      7          1           0       -2.567020   -0.397222   -0.039998
      8          1           0        0.424453    1.426799    0.182400
 ---------------------------------------------------------------------

 SCF Done:  E(RB2PLYPD3) =  -191.597515593     A.U. after   13 cycles
 E2(B2PLYPD3) =    -0.2487757520D+00 E(B2PLYPD3) =    -0.19184629134540D+03

 The electronic state is 1-A.
 Alpha  occ. eigenvalues --  -19.72861 -10.71856 -10.65792 -10.64594  -1.18220
 Alpha  occ. eigenvalues --   -0.93600  -0.76540  -0.66477  -0.57600  -0.55132
 Alpha  occ. eigenvalues --   -0.50503  -0.47213  -0.45987  -0.34836  -0.33719
 Alpha virt. eigenvalues --   -0.02242   0.05519   0.07010   0.07910   0.09643
 Alpha virt. eigenvalues --    0.12519   0.13950   0.15135   0.17384   0.19127
 Alpha virt. eigenvalues --    0.20110   0.22013   0.24842   0.26891   0.28581

 Mulliken charges:
               1
     1  C    0.162099
     2  O   -0.359687
     3  C   -0.039920
     4  C   -0.123831
     5  H    0.106424
     6  H    0.083105
     7  H    0.108743
     8  H    0.063069
 Sum of Mulliken charges =   0.00000

 Dipole moment (field-independent basis, Debye):
    X=             -3.7196    Y=              0.5730    Z=              0.1206  Tot=              3.7654
 Quadrupole moment (field-independent basis, Debye-Ang):
   XX=            -27.7373   YY=            -21.6784   ZZ=            -25.2272
   XY=              0.5843   XZ=              0.3541   YZ=             -0.1627

 Normal termination of Gaussian 09 at Wed Aug 26 08:55:51 2020.
