 Gaussian 09, Revision D.01,
 Gaussian 09:  ES64L-G09RevD.01 24-Apr-2013

 --------------------
 #p B2PLYPD3/Def2QZVP
 --------------------

 --------
 acrolein
 --------
 Symbolic Z-matrix:
 Charge =  0 Multiplicity = 1

                         Standard orientation:
 ---------------------------------------------------------------------
 Center     Atomic      Atomic             Coordinates (Angstroms)
 Number     Number       Type             X           Y           Z
 ---------------------------------------------------------------------
      1          6           0       -0.668595    0.355741   -0.003460
      2          8           0       -1.783525   -0.128347    0.018289
      3          6           0        0.550626   -0.442663   -0.030198
      4          6           0        1.755349    0.141114    0.005534
      5          1           0        0.440268   -1.538966   -0.029838
      6          1           0        1.801219    1.205841    0.009721
      7          1           0        2.721629   -0.427413    0.094506
      8          1           0       -0.519191    1.462170   -0.051960
 ---------------------------------------------------------------------

 SCF Done:  E(RB2PLYPD3) =  -191.614028944     A.U. after   12 cycles
 E2(B2PLYPD3) =    -0.2478728656D+00 E(B2PLYPD3) =    -0.19186190180968D+03

 The electronic state is 1-A.
 Alpha  occ. eigenvalues --  -19.72790 -10.71723 -10.65886 -10.64617  -1.19250
 Alpha  occ. eigenvalues --   -0.92971  -0.75301  -0.66784  -0.56541  -0.56040
 Alpha  occ. eigenvalues --   -0.50259  -0.46846  -0.46495  -0.34568  -0.33920
 Alpha virt. eigenvalues --   -0.01961   0.05675   0.06969   0.08153   0.09755
 Alpha virt. eigenvalues --    0.12427   0.13978   0.15344   0.17355   0.19789
 Alpha virt. eigenvalues --    0.20012   0.21336   0.25454   0.26297   0.29019

 Mulliken charges:
               1
     1  C    0.153088
     2  O   -0.350615
     3  C   -0.034119
     4  C   -0.130782
     5  H    0.104958
     6  H    0.084316
     7  H    0.102917
     8  H    0.070236
 Sum of Mulliken charges =   0.00000

 Dipole moment (field-independent basis, Debye):
    X=              3.5139    Y=              0.7837    Z=              0.0038  Tot=              3.6003
 Quadrupole moment (field-independent basis, Debye-Ang):
   XX=            -27.4094   YY=            -21.7752   ZZ=            -25.2847
   XY=             -1.0379   XZ=              0.3419   YZ=             -0.0371

 Normal termination of Gaussian 09 at Wed Aug 26 18:30:25 2020.
