 Gaussian 09, Revision D.01,
 Gaussian 09:  ES64L-G09RevD.01 24-Apr-2013

 --------------------
 #p B2PLYPD3/Def2QZVP
 --------------------

 --------
 acrolein
 --------
 Symbolic Z-matrix:
 Charge =  0 Multiplicity = 1

                         Standard orientation:
 ---------------------------------------------------------------------
 Center     Atomic      Atomic             Coordinates (Angstroms)
 Number     Number       Type             X           Y           Z
 ---------------------------------------------------------------------
      1          6           0       -0.675767    0.344089    0.029406
      2          8           0       -1.781802   -0.107840   -0.037256
      3          6           0        0.573638   -0.463520    0.012654
      4          6           0        1.762010    0.155736   -0.025336
      5          1           0        0.429537   -1.592874    0.123444
      6          1           0        1.842254    1.248665   -0.046271
      7          1           0        2.568006   -0.408197   -0.028808
      8          1           0       -0.544662    1.397290    0.149335
 ---------------------------------------------------------------------

 SCF Done:  E(RB2PLYPD3) =  -191.605460448     A.U. after   12 cycles
 E2(B2PLYPD3) =    -0.2462831461D+00 E(B2PLYPD3) =    -0.19185174359400D+03

 The electronic state is 1-A.
 Alpha  occ. eigenvalues --  -19.72636 -10.70955 -10.65063 -10.64482  -1.20254
 Alpha  occ. eigenvalues --   -0.92712  -0.75936  -0.66756  -0.57145  -0.56465
 Alpha  occ. eigenvalues --   -0.50907  -0.47498  -0.46514  -0.34558  -0.33617
 Alpha virt. eigenvalues --   -0.01401   0.05950   0.06985   0.08215   0.09687
 Alpha virt. eigenvalues --    0.12709   0.14153   0.15295   0.17265   0.19514
 Alpha virt. eigenvalues --    0.20107   0.22245   0.25185   0.26723   0.28618

 Mulliken charges:
               1
     1  C    0.157318
     2  O   -0.341351
     3  C   -0.047078
     4  C   -0.137951
     5  H    0.097542
     6  H    0.089018
     7  H    0.108631
     8  H    0.073870
 Sum of Mulliken charges =   0.00000

 Dipole moment (field-independent basis, Debye):
    X=              3.3638    Y=              0.7565    Z=              0.2137  Tot=              3.4544
 Quadrupole moment (field-independent basis, Debye-Ang):
   XX=            -27.5909   YY=            -21.5215   ZZ=            -25.1630
   XY=             -0.8229   XZ=             -0.2769   YZ=             -0.1693

 Normal termination of Gaussian 09 at Wed Aug 26 08:41:20 2020.
