 Gaussian 09, Revision D.01,
 Gaussian 09:  ES64L-G09RevD.01 24-Apr-2013

 --------------------
 #p B2PLYPD3/Def2QZVP
 --------------------

 --------
 acrolein
 --------
 Symbolic Z-matrix:
 Charge =  0 Multiplicity = 1

                         Standard orientation:
 ---------------------------------------------------------------------
 Center     Atomic      Atomic             Coordinates (Angstroms)
 Number     Number       Type             X           Y           Z
 ---------------------------------------------------------------------
      1          6           0        0.667656    0.347239    0.019956
      2          8           0        1.784873   -0.127420   -0.017695
      3          6           0       -0.555776   -0.434312    0.031838
      4          6           0       -1.747965    0.142650   -0.020139
      5          1           0       -0.453172   -1.508984   -0.014622
      6          1           0       -1.805795    1.155626    0.020940
      7          1           0       -2.703786   -0.424236   -0.039396
      8          1           0        0.500280    1.463490   -0.015297
 ---------------------------------------------------------------------

 SCF Done:  E(RB2PLYPD3) =  -191.612260261     A.U. after   12 cycles
 E2(B2PLYPD3) =    -0.2471727628D+00 E(B2PLYPD3) =    -0.19185943302407D+03

 The electronic state is 1-A.
 Alpha  occ. eigenvalues --  -19.72879 -10.71761 -10.65031 -10.64131  -1.19347
 Alpha  occ. eigenvalues --   -0.93630  -0.75838  -0.67148  -0.56977  -0.56355
 Alpha  occ. eigenvalues --   -0.50444  -0.47085  -0.46820  -0.34859  -0.33900
 Alpha virt. eigenvalues --   -0.01907   0.05773   0.07092   0.08312   0.09824
 Alpha virt. eigenvalues --    0.12628   0.13955   0.15289   0.17423   0.19871
 Alpha virt. eigenvalues --    0.20315   0.21569   0.25385   0.26447   0.28839

 Mulliken charges:
               1
     1  C    0.150185
     2  O   -0.349637
     3  C   -0.024923
     4  C   -0.131201
     5  H    0.103899
     6  H    0.087348
     7  H    0.100752
     8  H    0.063576
 Sum of Mulliken charges =   0.00000

 Dipole moment (field-independent basis, Debye):
    X=             -3.5420    Y=              0.7546    Z=              0.0269  Tot=              3.6216
 Quadrupole moment (field-independent basis, Debye-Ang):
   XX=            -27.2860   YY=            -21.8989   ZZ=            -25.1317
   XY=              0.9617   XZ=              0.1563   YZ=              0.0777

 Normal termination of Gaussian 09 at Wed Aug 26 09:58:11 2020.
