 Gaussian 09, Revision D.01,
 Gaussian 09:  ES64L-G09RevD.01 24-Apr-2013

 --------------------
 #p B2PLYPD3/Def2QZVP
 --------------------

 --------
 acrolein
 --------
 Symbolic Z-matrix:
 Charge =  0 Multiplicity = 1

                         Standard orientation:
 ---------------------------------------------------------------------
 Center     Atomic      Atomic             Coordinates (Angstroms)
 Number     Number       Type             X           Y           Z
 ---------------------------------------------------------------------
      1          6           0        0.671370    0.348933   -0.002253
      2          8           0        1.781632   -0.110520    0.023013
      3          6           0       -0.550216   -0.466617   -0.045686
      4          6           0       -1.756278    0.148293    0.009803
      5          1           0       -0.399708   -1.564766   -0.013594
      6          1           0       -1.846779    1.273221    0.012504
      7          1           0       -2.715677   -0.433336    0.115160
      8          1           0        0.519854    1.425388   -0.069353
 ---------------------------------------------------------------------

 SCF Done:  E(RB2PLYPD3) =  -191.611676135     A.U. after   13 cycles
 E2(B2PLYPD3) =    -0.2477272700D+00 E(B2PLYPD3) =    -0.19185940340514D+03

 The electronic state is 1-A.
 Alpha  occ. eigenvalues --  -19.72607 -10.71168 -10.66791 -10.65010  -1.19963
 Alpha  occ. eigenvalues --   -0.92234  -0.74809  -0.66767  -0.56249  -0.55695
 Alpha  occ. eigenvalues --   -0.50324  -0.46982  -0.46423  -0.34347  -0.33713
 Alpha virt. eigenvalues --   -0.01797   0.05555   0.07024   0.08074   0.09660
 Alpha virt. eigenvalues --    0.12325   0.13931   0.15359   0.17463   0.19466
 Alpha virt. eigenvalues --    0.19907   0.21247   0.25166   0.26544   0.28787

 Mulliken charges:
               1
     1  C    0.161154
     2  O   -0.346698
     3  C   -0.047307
     4  C   -0.130054
     5  H    0.107435
     6  H    0.085167
     7  H    0.100619
     8  H    0.069685
 Sum of Mulliken charges =   0.00000

 Dipole moment (field-independent basis, Debye):
    X=             -3.4436    Y=              0.7445    Z=              0.0242  Tot=              3.5232
 Quadrupole moment (field-independent basis, Debye-Ang):
   XX=            -27.5054   YY=            -21.6474   ZZ=            -25.3777
   XY=              0.7948   XZ=             -0.4361   YZ=             -0.0813

 Normal termination of Gaussian 09 at Wed Aug 26 21:01:11 2020.
