 Gaussian 09, Revision D.01,
 Gaussian 09:  ES64L-G09RevD.01 24-Apr-2013

 --------------------
 #p B2PLYPD3/Def2QZVP
 --------------------

 --------
 acrolein
 --------
 Symbolic Z-matrix:
 Charge =  0 Multiplicity = 1

                         Standard orientation:
 ---------------------------------------------------------------------
 Center     Atomic      Atomic             Coordinates (Angstroms)
 Number     Number       Type             X           Y           Z
 ---------------------------------------------------------------------
      1          6           0        0.647848    0.373244    0.076397
      2          8           0        1.782298   -0.157373   -0.059803
      3          6           0       -0.575295   -0.419674    0.039098
      4          6           0       -1.721440    0.148965   -0.063859
      5          1           0       -0.449103   -1.530939    0.106238
      6          1           0       -1.635368    1.065706   -0.063954
      7          1           0       -2.786542   -0.418289    0.027235
      8          1           0        0.505945    1.527297    0.099091
 ---------------------------------------------------------------------

 SCF Done:  E(RB2PLYPD3) =  -191.567553327     A.U. after   13 cycles
 E2(B2PLYPD3) =    -0.2498142691D+00 E(B2PLYPD3) =    -0.19181736759628D+03

 The electronic state is 1-A.
 Alpha  occ. eigenvalues --  -19.73249 -10.73008 -10.64221 -10.64047  -1.16991
 Alpha  occ. eigenvalues --   -0.95367  -0.75524  -0.67375  -0.57163  -0.55305
 Alpha  occ. eigenvalues --   -0.49719  -0.46246  -0.45641  -0.35456  -0.34184
 Alpha virt. eigenvalues --   -0.02141   0.05545   0.06426   0.07847   0.09948
 Alpha virt. eigenvalues --    0.12196   0.13749   0.15145   0.16764   0.19459
 Alpha virt. eigenvalues --    0.20825   0.21701   0.25683   0.25930   0.29399

 Mulliken charges:
               1
     1  C    0.140667
     2  O   -0.366165
     3  C   -0.001554
     4  C   -0.145382
     5  H    0.100053
     6  H    0.096494
     7  H    0.104901
     8  H    0.070986
 Sum of Mulliken charges =   0.00000

 Dipole moment (field-independent basis, Debye):
    X=             -3.5663    Y=              0.8836    Z=              0.3197  Tot=              3.6880
 Quadrupole moment (field-independent basis, Debye-Ang):
   XX=            -27.6457   YY=            -21.8277   ZZ=            -25.1555
   XY=              1.3949   XZ=              0.1972   YZ=             -0.1499

 Normal termination of Gaussian 09 at Wed Aug 26 11:03:10 2020.
