 Gaussian 09, Revision D.01,
 Gaussian 09:  ES64L-G09RevD.01 24-Apr-2013

 --------------------
 #p B2PLYPD3/Def2QZVP
 --------------------

 --------
 acrolein
 --------
 Symbolic Z-matrix:
 Charge =  0 Multiplicity = 1

                         Standard orientation:
 ---------------------------------------------------------------------
 Center     Atomic      Atomic             Coordinates (Angstroms)
 Number     Number       Type             X           Y           Z
 ---------------------------------------------------------------------
      1          6           0        0.674589    0.360073    0.021034
      2          8           0        1.792588   -0.131325   -0.023743
      3          6           0       -0.560346   -0.438969    0.007501
      4          6           0       -1.759978    0.134377   -0.005819
      5          1           0       -0.459786   -1.534649    0.072265
      6          1           0       -1.819699    1.216063   -0.059562
      7          1           0       -2.656938   -0.444224   -0.039885
      8          1           0        0.470122    1.480527    0.080833
 ---------------------------------------------------------------------

 SCF Done:  E(RB2PLYPD3) =  -191.614176060     A.U. after   12 cycles
 E2(B2PLYPD3) =    -0.2481416969D+00 E(B2PLYPD3) =    -0.19186231775641D+03

 The electronic state is 1-A.
 Alpha  occ. eigenvalues --  -19.73144 -10.72296 -10.65275 -10.64493  -1.19020
 Alpha  occ. eigenvalues --   -0.93105  -0.75524  -0.66380  -0.56646  -0.56013
 Alpha  occ. eigenvalues --   -0.50619  -0.46834  -0.46323  -0.34743  -0.34008
 Alpha virt. eigenvalues --   -0.01926   0.05754   0.06947   0.08043   0.09785
 Alpha virt. eigenvalues --    0.12572   0.13788   0.15268   0.17343   0.19654
 Alpha virt. eigenvalues --    0.20021   0.21691   0.25370   0.26494   0.28726

 Mulliken charges:
               1
     1  C    0.157776
     2  O   -0.349218
     3  C   -0.033218
     4  C   -0.131319
     5  H    0.100840
     6  H    0.081252
     7  H    0.106171
     8  H    0.067717
 Sum of Mulliken charges =   0.00000

 Dipole moment (field-independent basis, Debye):
    X=             -3.5036    Y=              0.7624    Z=              0.0822  Tot=              3.5865
 Quadrupole moment (field-independent basis, Debye-Ang):
   XX=            -27.5305   YY=            -21.7860   ZZ=            -25.2702
   XY=              1.0272   XZ=              0.2639   YZ=             -0.1147

 Normal termination of Gaussian 09 at Wed Aug 26 09:01:16 2020.
