 Gaussian 09, Revision D.01,
 Gaussian 09:  ES64L-G09RevD.01 24-Apr-2013

 --------------------
 #p B2PLYPD3/Def2QZVP
 --------------------

 --------
 acrolein
 --------
 Symbolic Z-matrix:
 Charge =  0 Multiplicity = 1

                         Standard orientation:
 ---------------------------------------------------------------------
 Center     Atomic      Atomic             Coordinates (Angstroms)
 Number     Number       Type             X           Y           Z
 ---------------------------------------------------------------------
      1          6           0       -0.698420    0.333021    0.070790
      2          8           0       -1.805332   -0.094782   -0.066575
      3          6           0        0.610032   -0.499752    0.024266
      4          6           0        1.764227    0.172132   -0.062862
      5          1           0        0.426149   -1.575183    0.207264
      6          1           0        1.899419    1.306785    0.008393
      7          1           0        2.529680   -0.437790   -0.044929
      8          1           0       -0.467627    1.432036    0.168708
 ---------------------------------------------------------------------

 SCF Done:  E(RB2PLYPD3) =  -191.593882704     A.U. after   13 cycles
 E2(B2PLYPD3) =    -0.2475097266D+00 E(B2PLYPD3) =    -0.19184139243042D+03

 The electronic state is 1-A.
 Alpha  occ. eigenvalues --  -19.73318 -10.72016 -10.65209 -10.64700  -1.20624
 Alpha  occ. eigenvalues --   -0.92312  -0.74821  -0.65995  -0.56828  -0.55358
 Alpha  occ. eigenvalues --   -0.51204  -0.47767  -0.46619  -0.34657  -0.33134
 Alpha virt. eigenvalues --   -0.01028   0.05785   0.06886   0.07824   0.09566
 Alpha virt. eigenvalues --    0.12608   0.13735   0.15150   0.17464   0.19185
 Alpha virt. eigenvalues --    0.19992   0.22107   0.24651   0.26935   0.27791

 Mulliken charges:
               1
     1  C    0.162259
     2  O   -0.328853
     3  C   -0.056095
     4  C   -0.134345
     5  H    0.099718
     6  H    0.094366
     7  H    0.102088
     8  H    0.060863
 Sum of Mulliken charges =   0.00000

 Dipole moment (field-independent basis, Debye):
    X=              3.2312    Y=              0.6381    Z=              0.4421  Tot=              3.3231
 Quadrupole moment (field-independent basis, Debye-Ang):
   XX=            -27.8839   YY=            -21.5290   ZZ=            -25.2903
   XY=             -0.4268   XZ=             -0.2822   YZ=             -0.2169

 Normal termination of Gaussian 09 at Wed Aug 26 12:38:00 2020.
