 Gaussian 09, Revision D.01,
 Gaussian 09:  ES64L-G09RevD.01 24-Apr-2013

 --------------------
 #p B2PLYPD3/Def2QZVP
 --------------------

 --------
 acrolein
 --------
 Symbolic Z-matrix:
 Charge =  0 Multiplicity = 1

                         Standard orientation:
 ---------------------------------------------------------------------
 Center     Atomic      Atomic             Coordinates (Angstroms)
 Number     Number       Type             X           Y           Z
 ---------------------------------------------------------------------
      1          6           0        0.662344    0.339819    0.026428
      2          8           0        1.795352   -0.111001   -0.024878
      3          6           0       -0.561219   -0.450638    0.006371
      4          6           0       -1.746248    0.141807   -0.023963
      5          1           0       -0.441246   -1.536101    0.080176
      6          1           0       -1.857392    1.231338   -0.021212
      7          1           0       -2.674029   -0.424006    0.007351
      8          1           0        0.480590    1.430847    0.079696
 ---------------------------------------------------------------------

 SCF Done:  E(RB2PLYPD3) =  -191.615734626     A.U. after   12 cycles
 E2(B2PLYPD3) =    -0.2476362606D+00 E(B2PLYPD3) =    -0.19186337088629D+03

 The electronic state is 1-A.
 Alpha  occ. eigenvalues --  -19.72826 -10.71585 -10.65723 -10.64467  -1.18891
 Alpha  occ. eigenvalues --   -0.93417  -0.75710  -0.66815  -0.56658  -0.56174
 Alpha  occ. eigenvalues --   -0.50495  -0.46853  -0.46314  -0.34891  -0.33871
 Alpha virt. eigenvalues --   -0.01938   0.05682   0.07010   0.08255   0.09700
 Alpha virt. eigenvalues --    0.12591   0.14005   0.15255   0.17432   0.19681
 Alpha virt. eigenvalues --    0.20017   0.21588   0.25423   0.26584   0.28663

 Mulliken charges:
               1
     1  C    0.156027
     2  O   -0.354357
     3  C   -0.030774
     4  C   -0.127430
     5  H    0.103200
     6  H    0.084694
     7  H    0.101078
     8  H    0.067562
 Sum of Mulliken charges =   0.00000

 Dipole moment (field-independent basis, Debye):
    X=             -3.6079    Y=              0.7208    Z=              0.1731  Tot=              3.6833
 Quadrupole moment (field-independent basis, Debye-Ang):
   XX=            -27.4951   YY=            -21.7823   ZZ=            -25.2058
   XY=              0.7596   XZ=              0.0881   YZ=             -0.1131

 Normal termination of Gaussian 09 at Wed Aug 26 16:01:32 2020.
