 Gaussian 09, Revision D.01,
 Gaussian 09:  ES64L-G09RevD.01 24-Apr-2013

 --------------------
 #p B2PLYPD3/Def2QZVP
 --------------------

 --------
 acrolein
 --------
 Symbolic Z-matrix:
 Charge =  0 Multiplicity = 1

                         Standard orientation:
 ---------------------------------------------------------------------
 Center     Atomic      Atomic             Coordinates (Angstroms)
 Number     Number       Type             X           Y           Z
 ---------------------------------------------------------------------
      1          6           0       -0.681792    0.361750    0.011201
      2          8           0       -1.781120   -0.127423   -0.021208
      3          6           0        0.561110   -0.449024    0.019787
      4          6           0        1.767016    0.139043   -0.023642
      5          1           0        0.420780   -1.534352    0.059947
      6          1           0        1.858926    1.207063   -0.010598
      7          1           0        2.639751   -0.416589   -0.011304
      8          1           0       -0.548498    1.452648    0.087540
 ---------------------------------------------------------------------

 SCF Done:  E(RB2PLYPD3) =  -191.615516102     A.U. after   12 cycles
 E2(B2PLYPD3) =    -0.2466647093D+00 E(B2PLYPD3) =    -0.19186218081083D+03

 The electronic state is 1-A.
 Alpha  occ. eigenvalues --  -19.72804 -10.71520 -10.64841 -10.64621  -1.19973
 Alpha  occ. eigenvalues --   -0.92542  -0.75596  -0.66958  -0.56746  -0.56583
 Alpha  occ. eigenvalues --   -0.50855  -0.47296  -0.46729  -0.34442  -0.33796
 Alpha virt. eigenvalues --   -0.01605   0.05871   0.07229   0.08149   0.09761
 Alpha virt. eigenvalues --    0.12598   0.14106   0.15421   0.17381   0.19713
 Alpha virt. eigenvalues --    0.20034   0.21942   0.25416   0.26437   0.28687

 Mulliken charges:
               1
     1  C    0.157839
     2  O   -0.344012
     3  C   -0.048322
     4  C   -0.133783
     5  H    0.105290
     6  H    0.084331
     7  H    0.104098
     8  H    0.074559
 Sum of Mulliken charges =   0.00000

 Dipole moment (field-independent basis, Debye):
    X=              3.3762    Y=              0.8042    Z=              0.1232  Tot=              3.4728
 Quadrupole moment (field-independent basis, Debye-Ang):
   XX=            -27.3697   YY=            -21.6638   ZZ=            -25.2082
   XY=             -0.9448   XZ=             -0.1255   YZ=             -0.0451

 Normal termination of Gaussian 09 at Wed Aug 26 19:52:03 2020.
