 Gaussian 09, Revision D.01,
 Gaussian 09:  ES64L-G09RevD.01 24-Apr-2013

 --------------------
 #p B2PLYPD3/Def2QZVP
 --------------------

 --------
 acrolein
 --------
 Symbolic Z-matrix:
 Charge =  0 Multiplicity = 1

                         Standard orientation:
 ---------------------------------------------------------------------
 Center     Atomic      Atomic             Coordinates (Angstroms)
 Number     Number       Type             X           Y           Z
 ---------------------------------------------------------------------
      1          6           0       -0.677596    0.356594    0.017648
      2          8           0       -1.772149   -0.127991   -0.020326
      3          6           0        0.541734   -0.437953    0.036890
      4          6           0        1.758302    0.129450   -0.023632
      5          1           0        0.459132   -1.517369   -0.012642
      6          1           0        1.832500    1.218411    0.001977
      7          1           0        2.675421   -0.406414   -0.028505
      8          1           0       -0.524501    1.440756    0.016342
 ---------------------------------------------------------------------

 SCF Done:  E(RB2PLYPD3) =  -191.616209670     A.U. after   12 cycles
 E2(B2PLYPD3) =    -0.2465454053D+00 E(B2PLYPD3) =    -0.19186275507566D+03

 The electronic state is 1-A.
 Alpha  occ. eigenvalues --  -19.72693 -10.71216 -10.65410 -10.64247  -1.20330
 Alpha  occ. eigenvalues --   -0.92781  -0.75705  -0.67110  -0.56839  -0.56561
 Alpha  occ. eigenvalues --   -0.50883  -0.47270  -0.46535  -0.34453  -0.33922
 Alpha virt. eigenvalues --   -0.01764   0.05807   0.07258   0.08374   0.09754
 Alpha virt. eigenvalues --    0.12539   0.14199   0.15402   0.17602   0.19792
 Alpha virt. eigenvalues --    0.19902   0.21622   0.25442   0.26414   0.28914

 Mulliken charges:
               1
     1  C    0.153070
     2  O   -0.341235
     3  C   -0.039256
     4  C   -0.130202
     5  H    0.103925
     6  H    0.076487
     7  H    0.104245
     8  H    0.072965
 Sum of Mulliken charges =   0.00000

 Dipole moment (field-independent basis, Debye):
    X=              3.4233    Y=              0.7823    Z=              0.0318  Tot=              3.5117
 Quadrupole moment (field-independent basis, Debye-Ang):
   XX=            -27.1597   YY=            -21.8190   ZZ=            -25.1784
   XY=             -1.0633   XZ=             -0.1837   YZ=              0.0679

 Normal termination of Gaussian 09 at Wed Aug 26 11:19:51 2020.
