 Gaussian 09, Revision D.01,
 Gaussian 09:  ES64L-G09RevD.01 24-Apr-2013

 --------------------
 #p B2PLYPD3/Def2QZVP
 --------------------

 --------
 acrolein
 --------
 Symbolic Z-matrix:
 Charge =  0 Multiplicity = 1

                         Standard orientation:
 ---------------------------------------------------------------------
 Center     Atomic      Atomic             Coordinates (Angstroms)
 Number     Number       Type             X           Y           Z
 ---------------------------------------------------------------------
      1          6           0       -0.678433    0.361239   -0.001997
      2          8           0       -1.785968   -0.130170   -0.006565
      3          6           0        0.565775   -0.449699    0.007914
      4          6           0        1.760342    0.139956    0.002693
      5          1           0        0.467155   -1.517433    0.009547
      6          1           0        1.820829    1.215565   -0.046617
      7          1           0        2.644583   -0.408235   -0.017848
      8          1           0       -0.530933    1.442489    0.055774
 ---------------------------------------------------------------------

 SCF Done:  E(RB2PLYPD3) =  -191.616025975     A.U. after   12 cycles
 E2(B2PLYPD3) =    -0.2467640179D+00 E(B2PLYPD3) =    -0.19186278999268D+03

 The electronic state is 1-A.
 Alpha  occ. eigenvalues --  -19.72860 -10.71638 -10.64762 -10.64237  -1.19498
 Alpha  occ. eigenvalues --   -0.92908  -0.75520  -0.67335  -0.56927  -0.56467
 Alpha  occ. eigenvalues --   -0.50793  -0.47161  -0.46675  -0.34606  -0.33904
 Alpha virt. eigenvalues --   -0.01590   0.05850   0.07305   0.08002   0.09765
 Alpha virt. eigenvalues --    0.12637   0.14131   0.15394   0.17529   0.19693
 Alpha virt. eigenvalues --    0.20066   0.21796   0.25458   0.26445   0.28817

 Mulliken charges:
               1
     1  C    0.154385
     2  O   -0.347304
     3  C   -0.044659
     4  C   -0.132104
     5  H    0.105712
     6  H    0.081058
     7  H    0.103610
     8  H    0.079302
 Sum of Mulliken charges =   0.00000

 Dipole moment (field-independent basis, Debye):
    X=              3.4178    Y=              0.8114    Z=             -0.0156  Tot=              3.5128
 Quadrupole moment (field-independent basis, Debye-Ang):
   XX=            -27.4812   YY=            -21.6504   ZZ=            -25.1672
   XY=             -1.0788   XZ=             -0.1555   YZ=             -0.0329

 Normal termination of Gaussian 09 at Wed Aug 26 18:54:30 2020.
