 Gaussian 09, Revision D.01,
 Gaussian 09:  ES64L-G09RevD.01 24-Apr-2013

 --------------------
 #p B2PLYPD3/Def2QZVP
 --------------------

 --------
 acrolein
 --------
 Symbolic Z-matrix:
 Charge =  0 Multiplicity = 1

                         Standard orientation:
 ---------------------------------------------------------------------
 Center     Atomic      Atomic             Coordinates (Angstroms)
 Number     Number       Type             X           Y           Z
 ---------------------------------------------------------------------
      1          6           0       -0.671771    0.351584   -0.006995
      2          8           0       -1.787614   -0.125710    0.009234
      3          6           0        0.565295   -0.441069   -0.027490
      4          6           0        1.752241    0.143755    0.001316
      5          1           0        0.448731   -1.497397    0.044530
      6          1           0        1.821015    1.175853    0.018748
      7          1           0        2.672127   -0.423181    0.050518
      8          1           0       -0.515548    1.424785    0.011348
 ---------------------------------------------------------------------

 SCF Done:  E(RB2PLYPD3) =  -191.615397466     A.U. after   12 cycles
 E2(B2PLYPD3) =    -0.2465406591D+00 E(B2PLYPD3) =    -0.19186193812505D+03

 The electronic state is 1-A.
 Alpha  occ. eigenvalues --  -19.72807 -10.71382 -10.64775 -10.63968  -1.19322
 Alpha  occ. eigenvalues --   -0.93438  -0.75814  -0.67720  -0.57071  -0.56527
 Alpha  occ. eigenvalues --   -0.50716  -0.47354  -0.46628  -0.34820  -0.33891
 Alpha virt. eigenvalues --   -0.01694   0.05820   0.07313   0.08215   0.09801
 Alpha virt. eigenvalues --    0.12722   0.13990   0.15336   0.17639   0.19934
 Alpha virt. eigenvalues --    0.20051   0.21713   0.25499   0.26555   0.28775

 Mulliken charges:
               1
     1  C    0.151159
     2  O   -0.351815
     3  C   -0.033756
     4  C   -0.132900
     5  H    0.105790
     6  H    0.085786
     7  H    0.100898
     8  H    0.074837
 Sum of Mulliken charges =   0.00000

 Dipole moment (field-independent basis, Debye):
    X=              3.4933    Y=              0.8050    Z=              0.0769  Tot=              3.5857
 Quadrupole moment (field-independent basis, Debye-Ang):
   XX=            -27.4271   YY=            -21.7602   ZZ=            -25.0781
   XY=             -0.9620   XZ=              0.2306   YZ=             -0.0789

 Normal termination of Gaussian 09 at Wed Aug 26 14:35:13 2020.
