 Gaussian 09, Revision D.01,
 Gaussian 09:  ES64L-G09RevD.01 24-Apr-2013

 --------------------
 #p B2PLYPD3/Def2QZVP
 --------------------

 --------
 acrolein
 --------
 Symbolic Z-matrix:
 Charge =  0 Multiplicity = 1

                         Standard orientation:
 ---------------------------------------------------------------------
 Center     Atomic      Atomic             Coordinates (Angstroms)
 Number     Number       Type             X           Y           Z
 ---------------------------------------------------------------------
      1          6           0       -0.654975    0.298542    0.020282
      2          8           0       -1.780914   -0.082206   -0.055526
      3          6           0        0.548453   -0.509737    0.097040
      4          6           0        1.748468    0.156835   -0.071614
      5          1           0        0.465296   -1.454501    0.099824
      6          1           0        1.827883    1.388401    0.132010
      7          1           0        2.655961   -0.388179   -0.187392
      8          1           0       -0.553505    1.438083    0.125517
 ---------------------------------------------------------------------

 SCF Done:  E(RB2PLYPD3) =  -191.577015887     A.U. after   14 cycles
 E2(B2PLYPD3) =    -0.2482815486D+00 E(B2PLYPD3) =    -0.19182529743555D+03

 The electronic state is 1-A.
 Alpha  occ. eigenvalues --  -19.72223 -10.71143 -10.68008 -10.64079  -1.20398
 Alpha  occ. eigenvalues --   -0.92775  -0.74931  -0.67723  -0.56946  -0.55625
 Alpha  occ. eigenvalues --   -0.50257  -0.47558  -0.46760  -0.34089  -0.33088
 Alpha virt. eigenvalues --   -0.02302   0.05164   0.07011   0.08436   0.09507
 Alpha virt. eigenvalues --    0.11992   0.13856   0.15257   0.17920   0.19037
 Alpha virt. eigenvalues --    0.19911   0.21240   0.24073   0.26116   0.28825

 Mulliken charges:
               1
     1  C    0.160177
     2  O   -0.338426
     3  C   -0.056100
     4  C   -0.117868
     5  H    0.118609
     6  H    0.087840
     7  H    0.101250
     8  H    0.044517
 Sum of Mulliken charges =   0.00000

 Dipole moment (field-independent basis, Debye):
    X=              3.5917    Y=              0.4414    Z=              0.1963  Tot=              3.6240
 Quadrupole moment (field-independent basis, Debye-Ang):
   XX=            -27.3359   YY=            -21.7980   ZZ=            -25.2923
   XY=             -0.7778   XZ=             -0.5315   YZ=              0.2237

 Normal termination of Gaussian 09 at Wed Aug 26 13:01:10 2020.
