 Gaussian 09, Revision D.01,
 Gaussian 09:  ES64L-G09RevD.01 24-Apr-2013

 --------------------
 #p B2PLYPD3/Def2QZVP
 --------------------

 --------
 acrolein
 --------
 Symbolic Z-matrix:
 Charge =  0 Multiplicity = 1

                         Standard orientation:
 ---------------------------------------------------------------------
 Center     Atomic      Atomic             Coordinates (Angstroms)
 Number     Number       Type             X           Y           Z
 ---------------------------------------------------------------------
      1          6           0        0.682869    0.375074    0.080965
      2          8           0        1.793094   -0.142485   -0.067592
      3          6           0       -0.540520   -0.426441    0.103486
      4          6           0       -1.762673    0.127056   -0.061895
      5          1           0       -0.391953   -1.556545   -0.012727
      6          1           0       -1.796019    1.205281    0.070982
      7          1           0       -2.889448   -0.463829   -0.166359
      8          1           0        0.454615    1.500845   -0.086493
 ---------------------------------------------------------------------

 SCF Done:  E(RB2PLYPD3) =  -191.581655557     A.U. after   13 cycles
 E2(B2PLYPD3) =    -0.2517569111D+00 E(B2PLYPD3) =    -0.19183341246779D+03

 The electronic state is 1-A.
 Alpha  occ. eigenvalues --  -19.73413 -10.72894 -10.67812 -10.65495  -1.18593
 Alpha  occ. eigenvalues --   -0.92448  -0.74572  -0.65689  -0.55650  -0.54742
 Alpha  occ. eigenvalues --   -0.49428  -0.46426  -0.44799  -0.34715  -0.33959
 Alpha virt. eigenvalues --   -0.02589   0.04828   0.06373   0.07229   0.09720
 Alpha virt. eigenvalues --    0.11758   0.13613   0.15086   0.17279   0.19347
 Alpha virt. eigenvalues --    0.20177   0.20660   0.23400   0.26814   0.28751

 Mulliken charges:
               1
     1  C    0.168300
     2  O   -0.351411
     3  C   -0.040333
     4  C   -0.126879
     5  H    0.107055
     6  H    0.081656
     7  H    0.100922
     8  H    0.060689
 Sum of Mulliken charges =   0.00000

 Dipole moment (field-independent basis, Debye):
    X=             -3.5159    Y=              0.8358    Z=              0.1095  Tot=              3.6155
 Quadrupole moment (field-independent basis, Debye-Ang):
   XX=            -27.2595   YY=            -22.1151   ZZ=            -25.6119
   XY=              1.0474   XZ=              0.6308   YZ=              0.2266

 Normal termination of Gaussian 09 at Wed Aug 26 13:25:48 2020.
