 Gaussian 09, Revision D.01,
 Gaussian 09:  ES64L-G09RevD.01 24-Apr-2013

 --------------------
 #p B2PLYPD3/Def2QZVP
 --------------------

 --------
 acrolein
 --------
 Symbolic Z-matrix:
 Charge =  0 Multiplicity = 1

                         Standard orientation:
 ---------------------------------------------------------------------
 Center     Atomic      Atomic             Coordinates (Angstroms)
 Number     Number       Type             X           Y           Z
 ---------------------------------------------------------------------
      1          6           0       -0.664836    0.342715    0.006393
      2          8           0       -1.782692   -0.114292   -0.018022
      3          6           0        0.562516   -0.453777    0.014898
      4          6           0        1.755494    0.143118   -0.003850
      5          1           0        0.429684   -1.526229    0.042872
      6          1           0        1.836997    1.228874   -0.055507
      7          1           0        2.628841   -0.401244   -0.040500
      8          1           0       -0.553032    1.420590    0.092664
 ---------------------------------------------------------------------

 SCF Done:  E(RB2PLYPD3) =  -191.615230371     A.U. after   12 cycles
 E2(B2PLYPD3) =    -0.2465025110D+00 E(B2PLYPD3) =    -0.19186173288198D+03

 The electronic state is 1-A.
 Alpha  occ. eigenvalues --  -19.72553 -10.71081 -10.65049 -10.64390  -1.19557
 Alpha  occ. eigenvalues --   -0.93163  -0.75930  -0.67206  -0.56984  -0.56692
 Alpha  occ. eigenvalues --   -0.50669  -0.47322  -0.46705  -0.34689  -0.33709
 Alpha virt. eigenvalues --   -0.01729   0.05839   0.07274   0.08268   0.09747
 Alpha virt. eigenvalues --    0.12664   0.14169   0.15337   0.17461   0.19631
 Alpha virt. eigenvalues --    0.20091   0.21887   0.25398   0.26480   0.28856

 Mulliken charges:
               1
     1  C    0.154856
     2  O   -0.350127
     3  C   -0.041618
     4  C   -0.129345
     5  H    0.105648
     6  H    0.084992
     7  H    0.104375
     8  H    0.071220
 Sum of Mulliken charges =   0.00000

 Dipole moment (field-independent basis, Debye):
    X=              3.5035    Y=              0.7373    Z=              0.0348  Tot=              3.5805
 Quadrupole moment (field-independent basis, Debye-Ang):
   XX=            -27.4158   YY=            -21.6825   ZZ=            -25.1215
   XY=             -0.9070   XZ=             -0.2718   YZ=             -0.0673

 Normal termination of Gaussian 09 at Wed Aug 26 20:14:32 2020.
