 Gaussian 09, Revision D.01,
 Gaussian 09:  ES64L-G09RevD.01 24-Apr-2013

 --------------------
 #p B2PLYPD3/Def2QZVP
 --------------------

 --------
 acrolein
 --------
 Symbolic Z-matrix:
 Charge =  0 Multiplicity = 1

                         Standard orientation:
 ---------------------------------------------------------------------
 Center     Atomic      Atomic             Coordinates (Angstroms)
 Number     Number       Type             X           Y           Z
 ---------------------------------------------------------------------
      1          6           0       -0.674625    0.348668    0.032122
      2          8           0       -1.781165   -0.127085   -0.016773
      3          6           0        0.552924   -0.455457    0.019553
      4          6           0        1.739963    0.137580   -0.016162
      5          1           0        0.490936   -1.457262   -0.023777
      6          1           0        1.854160    1.239367    0.014235
      7          1           0        2.703475   -0.427496   -0.017163
      8          1           0       -0.508819    1.477331   -0.052194
 ---------------------------------------------------------------------

 SCF Done:  E(RB2PLYPD3) =  -191.609813139     A.U. after   13 cycles
 E2(B2PLYPD3) =    -0.2470055441D+00 E(B2PLYPD3) =    -0.19185681868272D+03

 The electronic state is 1-A.
 Alpha  occ. eigenvalues --  -19.72881 -10.71890 -10.65876 -10.63531  -1.19918
 Alpha  occ. eigenvalues --   -0.93236  -0.74810  -0.67507  -0.56440  -0.56390
 Alpha  occ. eigenvalues --   -0.50609  -0.47086  -0.46825  -0.34834  -0.33750
 Alpha virt. eigenvalues --   -0.01578   0.05664   0.07282   0.08084   0.09676
 Alpha virt. eigenvalues --    0.12425   0.13945   0.15357   0.18009   0.19629
 Alpha virt. eigenvalues --    0.19930   0.21175   0.25391   0.26470   0.28758

 Mulliken charges:
               1
     1  C    0.155770
     2  O   -0.342586
     3  C   -0.045082
     4  C   -0.122087
     5  H    0.114017
     6  H    0.080636
     7  H    0.093636
     8  H    0.065695
 Sum of Mulliken charges =   0.00000

 Dipole moment (field-independent basis, Debye):
    X=              3.4460    Y=              0.7136    Z=              0.0317  Tot=              3.5192
 Quadrupole moment (field-independent basis, Debye-Ang):
   XX=            -27.3155   YY=            -21.8345   ZZ=            -25.1827
   XY=             -0.9574   XZ=             -0.1032   YZ=              0.0429

 Normal termination of Gaussian 09 at Wed Aug 26 10:23:24 2020.
