 Gaussian 09, Revision D.01,
 Gaussian 09:  ES64L-G09RevD.01 24-Apr-2013

 --------------------
 #p B2PLYPD3/Def2QZVP
 --------------------

 --------
 acrolein
 --------
 Symbolic Z-matrix:
 Charge =  0 Multiplicity = 1

                         Standard orientation:
 ---------------------------------------------------------------------
 Center     Atomic      Atomic             Coordinates (Angstroms)
 Number     Number       Type             X           Y           Z
 ---------------------------------------------------------------------
      1          6           0       -0.672564    0.343246   -0.002598
      2          8           0       -1.795677   -0.119729    0.014751
      3          6           0        0.572704   -0.454896   -0.028946
      4          6           0        1.753486    0.138351    0.007523
      5          1           0        0.469732   -1.521421   -0.009919
      6          1           0        1.842136    1.250704    0.011867
      7          1           0        2.625372   -0.413372    0.069403
      8          1           0       -0.493573    1.481717   -0.045228
 ---------------------------------------------------------------------

 SCF Done:  E(RB2PLYPD3) =  -191.613139538     A.U. after   12 cycles
 E2(B2PLYPD3) =    -0.2474627741D+00 E(B2PLYPD3) =    -0.19186060231175D+03

 The electronic state is 1-A.
 Alpha  occ. eigenvalues --  -19.73061 -10.72225 -10.65133 -10.64291  -1.19361
 Alpha  occ. eigenvalues --   -0.93293  -0.75450  -0.66420  -0.57073  -0.55866
 Alpha  occ. eigenvalues --   -0.50730  -0.46998  -0.46678  -0.34959  -0.33783
 Alpha virt. eigenvalues --   -0.01674   0.05775   0.07093   0.08130   0.09721
 Alpha virt. eigenvalues --    0.12556   0.13914   0.15331   0.17376   0.19660
 Alpha virt. eigenvalues --    0.19937   0.21793   0.25441   0.26395   0.28626

 Mulliken charges:
               1
     1  C    0.161401
     2  O   -0.346095
     3  C   -0.040037
     4  C   -0.125115
     5  H    0.103504
     6  H    0.082170
     7  H    0.104445
     8  H    0.059727
 Sum of Mulliken charges =   0.00000

 Dipole moment (field-independent basis, Debye):
    X=              3.5050    Y=              0.6739    Z=              0.0144  Tot=              3.5692
 Quadrupole moment (field-independent basis, Debye-Ang):
   XX=            -27.4827   YY=            -21.7932   ZZ=            -25.2123
   XY=             -0.8971   XZ=              0.2680   YZ=             -0.0453

 Normal termination of Gaussian 09 at Wed Aug 26 15:55:35 2020.
