 Gaussian 09, Revision D.01,
 Gaussian 09:  ES64L-G09RevD.01 24-Apr-2013

 --------------------
 #p B2PLYPD3/Def2QZVP
 --------------------

 --------
 acrolein
 --------
 Symbolic Z-matrix:
 Charge =  0 Multiplicity = 1

                         Standard orientation:
 ---------------------------------------------------------------------
 Center     Atomic      Atomic             Coordinates (Angstroms)
 Number     Number       Type             X           Y           Z
 ---------------------------------------------------------------------
      1          6           0       -0.673299    0.352695    0.014763
      2          8           0       -1.779829   -0.135318   -0.016139
      3          6           0        0.536129   -0.427028    0.038476
      4          6           0        1.751238    0.129678   -0.028437
      5          1           0        0.484025   -1.485776   -0.036910
      6          1           0        1.783230    1.141768    0.009769
      7          1           0        2.732354   -0.415476    0.002715
      8          1           0       -0.445381    1.509959    0.004723
 ---------------------------------------------------------------------

 SCF Done:  E(RB2PLYPD3) =  -191.605345906     A.U. after   12 cycles
 E2(B2PLYPD3) =    -0.2479337994D+00 E(B2PLYPD3) =    -0.19185327970532D+03

 The electronic state is 1-A.
 Alpha  occ. eigenvalues --  -19.73139 -10.72287 -10.65292 -10.63946  -1.19839
 Alpha  occ. eigenvalues --   -0.93558  -0.75860  -0.66938  -0.56529  -0.56428
 Alpha  occ. eigenvalues --   -0.50505  -0.47261  -0.46792  -0.34694  -0.33987
 Alpha virt. eigenvalues --   -0.02173   0.05735   0.07008   0.08354   0.09842
 Alpha virt. eigenvalues --    0.12581   0.13772   0.15198   0.17604   0.19719
 Alpha virt. eigenvalues --    0.20255   0.21490   0.25380   0.26253   0.28899

 Mulliken charges:
               1
     1  C    0.149856
     2  O   -0.341590
     3  C   -0.019996
     4  C   -0.126131
     5  H    0.103253
     6  H    0.080333
     7  H    0.101303
     8  H    0.052972
 Sum of Mulliken charges =   0.00000

 Dipole moment (field-independent basis, Debye):
    X=              3.5394    Y=              0.7076    Z=              0.0270  Tot=              3.6096
 Quadrupole moment (field-independent basis, Debye-Ang):
   XX=            -27.0121   YY=            -22.1312   ZZ=            -25.1828
   XY=             -1.0253   XZ=             -0.0830   YZ=              0.0886

 Normal termination of Gaussian 09 at Wed Aug 26 09:46:28 2020.
