 Gaussian 09, Revision D.01,
 Gaussian 09:  ES64L-G09RevD.01 24-Apr-2013

 --------------------
 #p B2PLYPD3/Def2QZVP
 --------------------

 --------
 acrolein
 --------
 Symbolic Z-matrix:
 Charge =  0 Multiplicity = 1

                         Standard orientation:
 ---------------------------------------------------------------------
 Center     Atomic      Atomic             Coordinates (Angstroms)
 Number     Number       Type             X           Y           Z
 ---------------------------------------------------------------------
      1          6           0       -0.656663   -0.336143    0.032248
      2          8           0       -1.797591    0.094391   -0.057811
      3          6           0        0.598090    0.508450    0.016793
      4          6           0        1.726813   -0.181384   -0.016538
      5          1           0        0.545257    1.613653    0.185428
      6          1           0        1.761536   -1.250602   -0.191064
      7          1           0        2.538989    0.300690   -0.075719
      8          1           0       -0.474492   -1.364404    0.348818
 ---------------------------------------------------------------------

 SCF Done:  E(RB2PLYPD3) =  -191.592460522     A.U. after   13 cycles
 E2(B2PLYPD3) =    -0.2475978684D+00 E(B2PLYPD3) =    -0.19184005839050D+03

 The electronic state is 1-A.
 Alpha  occ. eigenvalues --  -19.72903 -10.71868 -10.65026 -10.63459  -1.18702
 Alpha  occ. eigenvalues --   -0.93510  -0.75868  -0.66940  -0.57513  -0.56008
 Alpha  occ. eigenvalues --   -0.50700  -0.47816  -0.45711  -0.35022  -0.33519
 Alpha virt. eigenvalues --   -0.01328   0.06060   0.06314   0.07466   0.09622
 Alpha virt. eigenvalues --    0.13194   0.14525   0.14878   0.17273   0.19063
 Alpha virt. eigenvalues --    0.20545   0.22069   0.23909   0.27347   0.28042

 Mulliken charges:
               1
     1  C    0.154213
     2  O   -0.347650
     3  C   -0.051292
     4  C   -0.124984
     5  H    0.103051
     6  H    0.080059
     7  H    0.100251
     8  H    0.086351
 Sum of Mulliken charges =   0.00000

 Dipole moment (field-independent basis, Debye):
    X=              3.4793    Y=             -0.6733    Z=              0.2440  Tot=              3.5523
 Quadrupole moment (field-independent basis, Debye-Ang):
   XX=            -28.0001   YY=            -21.4336   ZZ=            -25.0190
   XY=              0.7507   XZ=             -0.6686   YZ=              0.3404

 Normal termination of Gaussian 09 at Wed Aug 26 11:33:28 2020.
