 Gaussian 09, Revision D.01,
 Gaussian 09:  ES64L-G09RevD.01 24-Apr-2013

 --------------------
 #p B2PLYPD3/Def2QZVP
 --------------------

 --------
 acrolein
 --------
 Symbolic Z-matrix:
 Charge =  0 Multiplicity = 1

                         Standard orientation:
 ---------------------------------------------------------------------
 Center     Atomic      Atomic             Coordinates (Angstroms)
 Number     Number       Type             X           Y           Z
 ---------------------------------------------------------------------
      1          6           0       -0.672400    0.357190    0.036058
      2          8           0       -1.755987   -0.125512   -0.035219
      3          6           0        0.529325   -0.409071   -0.025006
      4          6           0        1.752775    0.128352    0.004029
      5          1           0        0.359911   -1.574069    0.132739
      6          1           0        1.787386    1.220045   -0.191679
      7          1           0        2.827911   -0.427839    0.037822
      8          1           0       -0.585512    1.327140    0.212381
 ---------------------------------------------------------------------

 SCF Done:  E(RB2PLYPD3) =  -191.585190722     A.U. after   13 cycles
 E2(B2PLYPD3) =    -0.2470052269D+00 E(B2PLYPD3) =    -0.19183219594874D+03

 The electronic state is 1-A.
 Alpha  occ. eigenvalues --  -19.72298 -10.69662 -10.67072 -10.64905  -1.20837
 Alpha  occ. eigenvalues --   -0.92845  -0.75753  -0.67621  -0.57135  -0.55193
 Alpha  occ. eigenvalues --   -0.50574  -0.47447  -0.44144  -0.34568  -0.34080
 Alpha virt. eigenvalues --   -0.01833   0.05304   0.06800   0.08327   0.09574
 Alpha virt. eigenvalues --    0.12235   0.14199   0.15139   0.17483   0.18955
 Alpha virt. eigenvalues --    0.20188   0.20701   0.24717   0.27595   0.29231

 Mulliken charges:
               1
     1  C    0.163648
     2  O   -0.342501
     3  C   -0.042893
     4  C   -0.124996
     5  H    0.095593
     6  H    0.075260
     7  H    0.101736
     8  H    0.074152
 Sum of Mulliken charges =   0.00000

 Dipole moment (field-independent basis, Debye):
    X=              3.3600    Y=              0.9047    Z=              0.1907  Tot=              3.4849
 Quadrupole moment (field-independent basis, Debye-Ang):
   XX=            -27.0058   YY=            -21.9996   ZZ=            -25.1840
   XY=             -1.1314   XZ=             -0.3304   YZ=             -0.3865

 Normal termination of Gaussian 09 at Wed Aug 26 12:23:54 2020.
