 Gaussian 09, Revision D.01,
 Gaussian 09:  ES64L-G09RevD.01 24-Apr-2013

 --------------------
 #p B2PLYPD3/Def2QZVP
 --------------------

 --------
 acrolein
 --------
 Symbolic Z-matrix:
 Charge =  0 Multiplicity = 1

                         Standard orientation:
 ---------------------------------------------------------------------
 Center     Atomic      Atomic             Coordinates (Angstroms)
 Number     Number       Type             X           Y           Z
 ---------------------------------------------------------------------
      1          6           0        0.670720    0.351980   -0.023331
      2          8           0        1.784108   -0.114933    0.020321
      3          6           0       -0.566048   -0.453965   -0.012927
      4          6           0       -1.753379    0.139567    0.009502
      5          1           0       -0.423724   -1.562651   -0.006698
      6          1           0       -1.865692    1.233102    0.076592
      7          1           0       -2.621194   -0.395547   -0.012088
      8          1           0        0.529983    1.419075   -0.059831
 ---------------------------------------------------------------------

 SCF Done:  E(RB2PLYPD3) =  -191.613270226     A.U. after   12 cycles
 E2(B2PLYPD3) =    -0.2465712839D+00 E(B2PLYPD3) =    -0.19185984150964D+03

 The electronic state is 1-A.
 Alpha  occ. eigenvalues --  -19.72690 -10.71191 -10.64866 -10.64659  -1.19597
 Alpha  occ. eigenvalues --   -0.92996  -0.75869  -0.66964  -0.56997  -0.56438
 Alpha  occ. eigenvalues --   -0.50856  -0.46788  -0.46636  -0.34737  -0.33796
 Alpha virt. eigenvalues --   -0.01566   0.05812   0.07194   0.08187   0.09711
 Alpha virt. eigenvalues --    0.12652   0.14227   0.15390   0.17245   0.19623
 Alpha virt. eigenvalues --    0.20066   0.22037   0.25473   0.26541   0.28641

 Mulliken charges:
               1
     1  C    0.158568
     2  O   -0.349056
     3  C   -0.043963
     4  C   -0.129469
     5  H    0.101807
     6  H    0.081883
     7  H    0.104280
     8  H    0.075950
 Sum of Mulliken charges =   0.00000

 Dipole moment (field-independent basis, Debye):
    X=             -3.4612    Y=              0.7797    Z=             -0.0442  Tot=              3.5482
 Quadrupole moment (field-independent basis, Debye-Ang):
   XX=            -27.4419   YY=            -21.6360   ZZ=            -25.1556
   XY=              0.8280   XZ=             -0.1939   YZ=              0.0796

 Normal termination of Gaussian 09 at Wed Aug 26 18:08:21 2020.
