 Gaussian 09, Revision D.01,
 Gaussian 09:  ES64L-G09RevD.01 24-Apr-2013

 --------------------
 #p B2PLYPD3/Def2QZVP
 --------------------

 --------
 acrolein
 --------
 Symbolic Z-matrix:
 Charge =  0 Multiplicity = 1

                         Standard orientation:
 ---------------------------------------------------------------------
 Center     Atomic      Atomic             Coordinates (Angstroms)
 Number     Number       Type             X           Y           Z
 ---------------------------------------------------------------------
      1          6           0        0.676199    0.347636   -0.009541
      2          8           0        1.788354   -0.117374    0.015209
      3          6           0       -0.563962   -0.464680   -0.025110
      4          6           0       -1.751923    0.150123    0.002510
      5          1           0       -0.473158   -1.537588    0.020052
      6          1           0       -1.847667    1.232945    0.059573
      7          1           0       -2.640218   -0.418342    0.036314
      8          1           0        0.492323    1.463505   -0.044765
 ---------------------------------------------------------------------

 SCF Done:  E(RB2PLYPD3) =  -191.615875582     A.U. after   12 cycles
 E2(B2PLYPD3) =    -0.2471188642D+00 E(B2PLYPD3) =    -0.19186299444662D+03

 The electronic state is 1-A.
 Alpha  occ. eigenvalues --  -19.72905 -10.71867 -10.65208 -10.64474  -1.19843
 Alpha  occ. eigenvalues --   -0.92813  -0.75224  -0.66754  -0.56574  -0.56260
 Alpha  occ. eigenvalues --   -0.50570  -0.47364  -0.46868  -0.34609  -0.33744
 Alpha virt. eigenvalues --   -0.01592   0.05807   0.07133   0.08047   0.09726
 Alpha virt. eigenvalues --    0.12661   0.13955   0.15369   0.17461   0.19722
 Alpha virt. eigenvalues --    0.20034   0.21664   0.25347   0.26425   0.28514

 Mulliken charges:
               1
     1  C    0.157145
     2  O   -0.342662
     3  C   -0.043222
     4  C   -0.129977
     5  H    0.105376
     6  H    0.085801
     7  H    0.100979
     8  H    0.066559
 Sum of Mulliken charges =   0.00000

 Dipole moment (field-independent basis, Debye):
    X=             -3.4461    Y=              0.7108    Z=              0.0444  Tot=              3.5189
 Quadrupole moment (field-independent basis, Debye-Ang):
   XX=            -27.4964   YY=            -21.6814   ZZ=            -25.2379
   XY=              0.8565   XZ=             -0.2813   YZ=             -0.0066

 Normal termination of Gaussian 09 at Wed Aug 26 18:48:48 2020.
