 Gaussian 09, Revision D.01,
 Gaussian 09:  ES64L-G09RevD.01 24-Apr-2013

 --------------------
 #p B2PLYPD3/Def2QZVP
 --------------------

 --------
 acrolein
 --------
 Symbolic Z-matrix:
 Charge =  0 Multiplicity = 1

                         Standard orientation:
 ---------------------------------------------------------------------
 Center     Atomic      Atomic             Coordinates (Angstroms)
 Number     Number       Type             X           Y           Z
 ---------------------------------------------------------------------
      1          6           0        0.667016    0.337919   -0.014382
      2          8           0        1.780384   -0.098750    0.014292
      3          6           0       -0.559780   -0.469359   -0.004021
      4          6           0       -1.748248    0.140667   -0.003226
      5          1           0       -0.436630   -1.507476    0.021386
      6          1           0       -1.903440    1.283232    0.133319
      7          1           0       -2.605611   -0.384060   -0.046342
      8          1           0        0.548683    1.342942   -0.092922
 ---------------------------------------------------------------------

 SCF Done:  E(RB2PLYPD3) =  -191.602458812     A.U. after   13 cycles
 E2(B2PLYPD3) =    -0.2455711874D+00 E(B2PLYPD3) =    -0.19184802999956D+03

 The electronic state is 1-A.
 Alpha  occ. eigenvalues --  -19.72291 -10.70044 -10.65416 -10.64029  -1.20118
 Alpha  occ. eigenvalues --   -0.93027  -0.76133  -0.68407  -0.57161  -0.56675
 Alpha  occ. eigenvalues --   -0.51045  -0.47239  -0.46757  -0.34572  -0.33645
 Alpha virt. eigenvalues --   -0.01528   0.05663   0.07574   0.08278   0.09621
 Alpha virt. eigenvalues --    0.12657   0.14336   0.15427   0.17797   0.19278
 Alpha virt. eigenvalues --    0.20157   0.21920   0.25198   0.26782   0.28567

 Mulliken charges:
               1
     1  C    0.159477
     2  O   -0.349211
     3  C   -0.053550
     4  C   -0.127395
     5  H    0.109411
     6  H    0.080281
     7  H    0.101552
     8  H    0.079435
 Sum of Mulliken charges =   0.00000

 Dipole moment (field-independent basis, Debye):
    X=             -3.4791    Y=              0.7258    Z=              0.0053  Tot=              3.5540
 Quadrupole moment (field-independent basis, Debye-Ang):
   XX=            -27.3941   YY=            -21.5896   ZZ=            -25.0209
   XY=              0.7623   XZ=             -0.2020   YZ=              0.1304

 Normal termination of Gaussian 09 at Wed Aug 26 09:04:41 2020.
