 Gaussian 09, Revision D.01,
 Gaussian 09:  ES64L-G09RevD.01 24-Apr-2013

 --------------------
 #p B2PLYPD3/Def2QZVP
 --------------------

 --------
 acrolein
 --------
 Symbolic Z-matrix:
 Charge =  0 Multiplicity = 1

                         Standard orientation:
 ---------------------------------------------------------------------
 Center     Atomic      Atomic             Coordinates (Angstroms)
 Number     Number       Type             X           Y           Z
 ---------------------------------------------------------------------
      1          6           0        0.696353    0.369683   -0.015167
      2          8           0        1.778043   -0.143078    0.018333
      3          6           0       -0.567355   -0.439409   -0.016076
      4          6           0       -1.759134    0.140710    0.000835
      5          1           0       -0.501272   -1.509388    0.012618
      6          1           0       -1.824052    1.197915    0.128173
      7          1           0       -2.637591   -0.435021   -0.016262
      8          1           0        0.519393    1.465206   -0.088747
 ---------------------------------------------------------------------

 SCF Done:  E(RB2PLYPD3) =  -191.614859780     A.U. after   13 cycles
 E2(B2PLYPD3) =    -0.2462120057D+00 E(B2PLYPD3) =    -0.19186107178519D+03

 The electronic state is 1-A.
 Alpha  occ. eigenvalues --  -19.73111 -10.71926 -10.64335 -10.63932  -1.20528
 Alpha  occ. eigenvalues --   -0.92737  -0.75059  -0.67054  -0.56925  -0.56424
 Alpha  occ. eigenvalues --   -0.51054  -0.47293  -0.46936  -0.34594  -0.33865
 Alpha virt. eigenvalues --   -0.01239   0.05917   0.07284   0.07999   0.09813
 Alpha virt. eigenvalues --    0.12691   0.13967   0.15486   0.17578   0.19522
 Alpha virt. eigenvalues --    0.20183   0.21798   0.25384   0.26516   0.28478

 Mulliken charges:
               1
     1  C    0.155453
     2  O   -0.334412
     3  C   -0.048527
     4  C   -0.134511
     5  H    0.102008
     6  H    0.080160
     7  H    0.101968
     8  H    0.077861
 Sum of Mulliken charges =   0.00000

 Dipole moment (field-independent basis, Debye):
    X=             -3.2413    Y=              0.8274    Z=              0.0227  Tot=              3.3453
 Quadrupole moment (field-independent basis, Debye-Ang):
   XX=            -27.4229   YY=            -21.7117   ZZ=            -25.1386
   XY=              1.1963   XZ=             -0.2666   YZ=              0.0998

 Normal termination of Gaussian 09 at Wed Aug 26 10:06:31 2020.
