 Gaussian 09, Revision D.01,
 Gaussian 09:  ES64L-G09RevD.01 24-Apr-2013

 --------------------
 #p B2PLYPD3/Def2QZVP
 --------------------

 --------
 acrolein
 --------
 Symbolic Z-matrix:
 Charge =  0 Multiplicity = 1

                         Standard orientation:
 ---------------------------------------------------------------------
 Center     Atomic      Atomic             Coordinates (Angstroms)
 Number     Number       Type             X           Y           Z
 ---------------------------------------------------------------------
      1          6           0       -0.674326    0.346303    0.009331
      2          8           0       -1.789429   -0.113555   -0.011353
      3          6           0        0.563899   -0.449547    0.026589
      4          6           0        1.758862    0.150662   -0.013261
      5          1           0        0.434849   -1.582109   -0.021338
      6          1           0        1.839294    1.207111    0.008262
      7          1           0        2.672309   -0.408459   -0.030504
      8          1           0       -0.521636    1.407389   -0.001554
 ---------------------------------------------------------------------

 SCF Done:  E(RB2PLYPD3) =  -191.614187190     A.U. after   12 cycles
 E2(B2PLYPD3) =    -0.2468948946D+00 E(B2PLYPD3) =    -0.19186108208435D+03

 The electronic state is 1-A.
 Alpha  occ. eigenvalues --  -19.72724 -10.71169 -10.65231 -10.64987  -1.19713
 Alpha  occ. eigenvalues --   -0.92835  -0.75757  -0.66944  -0.56864  -0.56339
 Alpha  occ. eigenvalues --   -0.50648  -0.46863  -0.46586  -0.34628  -0.33847
 Alpha virt. eigenvalues --   -0.01738   0.05815   0.07041   0.08236   0.09715
 Alpha virt. eigenvalues --    0.12672   0.14135   0.15345   0.17227   0.19915
 Alpha virt. eigenvalues --    0.19978   0.21762   0.25335   0.26587   0.28665

 Mulliken charges:
               1
     1  C    0.156001
     2  O   -0.347405
     3  C   -0.036940
     4  C   -0.133766
     5  H    0.098302
     6  H    0.086186
     7  H    0.104212
     8  H    0.073412
 Sum of Mulliken charges =   0.00000

 Dipole moment (field-independent basis, Debye):
    X=              3.4809    Y=              0.7913    Z=             -0.0043  Tot=              3.5697
 Quadrupole moment (field-independent basis, Debye-Ang):
   XX=            -27.4171   YY=            -21.7039   ZZ=            -25.2172
   XY=             -0.8436   XZ=             -0.1328   YZ=              0.0753

 Normal termination of Gaussian 09 at Wed Aug 26 19:28:58 2020.
