 Gaussian 09, Revision D.01,
 Gaussian 09:  ES64L-G09RevD.01 24-Apr-2013

 --------------------
 #p B2PLYPD3/Def2QZVP
 --------------------

 --------
 acrolein
 --------
 Symbolic Z-matrix:
 Charge =  0 Multiplicity = 1

                         Standard orientation:
 ---------------------------------------------------------------------
 Center     Atomic      Atomic             Coordinates (Angstroms)
 Number     Number       Type             X           Y           Z
 ---------------------------------------------------------------------
      1          6           0        0.677278    0.357252   -0.018120
      2          8           0        1.774182   -0.127055    0.014680
      3          6           0       -0.545686   -0.444602   -0.018034
      4          6           0       -1.754418    0.132472    0.000678
      5          1           0       -0.437844   -1.507965    0.010153
      6          1           0       -1.853571    1.221001    0.024657
      7          1           0       -2.696439   -0.416576    0.052264
      8          1           0        0.531356    1.449259    0.008342
 ---------------------------------------------------------------------

 SCF Done:  E(RB2PLYPD3) =  -191.616809032     A.U. after   12 cycles
 E2(B2PLYPD3) =    -0.2466214037D+00 E(B2PLYPD3) =    -0.19186343043540D+03

 The electronic state is 1-A.
 Alpha  occ. eigenvalues --  -19.72704 -10.71310 -10.65668 -10.64197  -1.20214
 Alpha  occ. eigenvalues --   -0.92734  -0.75321  -0.67181  -0.56773  -0.56288
 Alpha  occ. eigenvalues --   -0.50722  -0.47183  -0.46663  -0.34511  -0.33855
 Alpha virt. eigenvalues --   -0.01659   0.05733   0.07285   0.08305   0.09727
 Alpha virt. eigenvalues --    0.12475   0.14143   0.15418   0.17647   0.19741
 Alpha virt. eigenvalues --    0.19919   0.21480   0.25560   0.26391   0.28830

 Mulliken charges:
               1
     1  C    0.155392
     2  O   -0.343250
     3  C   -0.043312
     4  C   -0.129984
     5  H    0.108396
     6  H    0.079810
     7  H    0.100365
     8  H    0.072585
 Sum of Mulliken charges =   0.00000

 Dipole moment (field-independent basis, Debye):
    X=             -3.4113    Y=              0.7818    Z=              0.0262  Tot=              3.4998
 Quadrupole moment (field-independent basis, Debye-Ang):
   XX=            -27.2225   YY=            -21.7876   ZZ=            -25.2020
   XY=              0.9656   XZ=             -0.2489   YZ=             -0.0160

 Normal termination of Gaussian 09 at Wed Aug 26 15:53:02 2020.
