 Gaussian 09, Revision D.01,
 Gaussian 09:  ES64L-G09RevD.01 24-Apr-2013

 --------------------
 #p B2PLYPD3/Def2QZVP
 --------------------

 --------
 acrolein
 --------
 Symbolic Z-matrix:
 Charge =  0 Multiplicity = 1

                         Standard orientation:
 ---------------------------------------------------------------------
 Center     Atomic      Atomic             Coordinates (Angstroms)
 Number     Number       Type             X           Y           Z
 ---------------------------------------------------------------------
      1          6           0        0.674070    0.345892    0.012697
      2          8           0        1.795611   -0.121091   -0.021287
      3          6           0       -0.568601   -0.455102    0.029725
      4          6           0       -1.747848    0.140939   -0.022841
      5          1           0       -0.491321   -1.503053    0.031432
      6          1           0       -1.848464    1.258034   -0.003171
      7          1           0       -2.651255   -0.434669   -0.036434
      8          1           0        0.480421    1.458036    0.060976
 ---------------------------------------------------------------------

 SCF Done:  E(RB2PLYPD3) =  -191.614514472     A.U. after   12 cycles
 E2(B2PLYPD3) =    -0.2474097398D+00 E(B2PLYPD3) =    -0.19186192421149D+03

 The electronic state is 1-A.
 Alpha  occ. eigenvalues --  -19.73021 -10.72036 -10.65527 -10.64001  -1.19309
 Alpha  occ. eigenvalues --   -0.93260  -0.75174  -0.66933  -0.56646  -0.56004
 Alpha  occ. eigenvalues --   -0.50668  -0.46967  -0.46616  -0.34914  -0.33857
 Alpha virt. eigenvalues --   -0.01632   0.05705   0.07136   0.08112   0.09693
 Alpha virt. eigenvalues --    0.12542   0.13862   0.15337   0.17666   0.19535
 Alpha virt. eigenvalues --    0.19963   0.21524   0.25468   0.26456   0.28568

 Mulliken charges:
               1
     1  C    0.158485
     2  O   -0.347499
     3  C   -0.040676
     4  C   -0.125962
     5  H    0.105976
     6  H    0.081562
     7  H    0.100714
     8  H    0.067400
 Sum of Mulliken charges =   0.00000

 Dipole moment (field-independent basis, Debye):
    X=             -3.5023    Y=              0.7055    Z=              0.0750  Tot=              3.5734
 Quadrupole moment (field-independent basis, Debye-Ang):
   XX=            -27.5502   YY=            -21.7432   ZZ=            -25.2177
   XY=              0.9362   XZ=              0.1828   YZ=              0.0157

 Normal termination of Gaussian 09 at Wed Aug 26 16:11:53 2020.
