 Gaussian 09, Revision D.01,
 Gaussian 09:  ES64L-G09RevD.01 24-Apr-2013

 --------------------
 #p B2PLYPD3/Def2QZVP
 --------------------

 --------
 acrolein
 --------
 Symbolic Z-matrix:
 Charge =  0 Multiplicity = 1

                         Standard orientation:
 ---------------------------------------------------------------------
 Center     Atomic      Atomic             Coordinates (Angstroms)
 Number     Number       Type             X           Y           Z
 ---------------------------------------------------------------------
      1          6           0        0.676435    0.359753    0.003559
      2          8           0        1.788185   -0.130901   -0.010343
      3          6           0       -0.561369   -0.429805    0.021069
      4          6           0       -1.754913    0.137044   -0.015520
      5          1           0       -0.438044   -1.531364    0.026180
      6          1           0       -1.834696    1.172653    0.050953
      7          1           0       -2.701470   -0.429588   -0.053260
      8          1           0        0.507808    1.433553    0.004216
 ---------------------------------------------------------------------

 SCF Done:  E(RB2PLYPD3) =  -191.614412416     A.U. after   12 cycles
 E2(B2PLYPD3) =    -0.2470417200D+00 E(B2PLYPD3) =    -0.19186145413551D+03

 The electronic state is 1-A.
 Alpha  occ. eigenvalues --  -19.72931 -10.71563 -10.65046 -10.64364  -1.19317
 Alpha  occ. eigenvalues --   -0.93257  -0.75741  -0.67178  -0.56946  -0.56251
 Alpha  occ. eigenvalues --   -0.50721  -0.46815  -0.46355  -0.34813  -0.34009
 Alpha virt. eigenvalues --   -0.01764   0.05750   0.07142   0.08224   0.09775
 Alpha virt. eigenvalues --    0.12598   0.14066   0.15354   0.17356   0.19881
 Alpha virt. eigenvalues --    0.20080   0.21652   0.25510   0.26528   0.28683

 Mulliken charges:
               1
     1  C    0.154490
     2  O   -0.350696
     3  C   -0.032871
     4  C   -0.133371
     5  H    0.101144
     6  H    0.083681
     7  H    0.101635
     8  H    0.075988
 Sum of Mulliken charges =   0.00000

 Dipole moment (field-independent basis, Debye):
    X=             -3.4790    Y=              0.8425    Z=              0.0491  Tot=              3.5799
 Quadrupole moment (field-independent basis, Debye-Ang):
   XX=            -27.3695   YY=            -21.8112   ZZ=            -25.1581
   XY=              0.9739   XZ=              0.0898   YZ=              0.0695

 Normal termination of Gaussian 09 at Wed Aug 26 09:06:36 2020.
