 Gaussian 09, Revision D.01,
 Gaussian 09:  ES64L-G09RevD.01 24-Apr-2013

 --------------------
 #p B2PLYPD3/Def2QZVP
 --------------------

 --------
 acrolein
 --------
 Symbolic Z-matrix:
 Charge =  0 Multiplicity = 1

                         Standard orientation:
 ---------------------------------------------------------------------
 Center     Atomic      Atomic             Coordinates (Angstroms)
 Number     Number       Type             X           Y           Z
 ---------------------------------------------------------------------
      1          6           0        0.669336    0.344955   -0.015198
      2          8           0        1.788803   -0.113897    0.021175
      3          6           0       -0.561646   -0.450357   -0.025383
      4          6           0       -1.756773    0.143282    0.001577
      5          1           0       -0.423923   -1.541514   -0.035025
      6          1           0       -1.842180    1.238771    0.004555
      7          1           0       -2.657143   -0.431419    0.115530
      8          1           0        0.507318    1.418058   -0.020441
 ---------------------------------------------------------------------

 SCF Done:  E(RB2PLYPD3) =  -191.616086436     A.U. after   12 cycles
 E2(B2PLYPD3) =    -0.2471392235D+00 E(B2PLYPD3) =    -0.19186322565905D+03

 The electronic state is 1-A.
 Alpha  occ. eigenvalues --  -19.72738 -10.71254 -10.65658 -10.64564  -1.19474
 Alpha  occ. eigenvalues --   -0.93003  -0.75631  -0.66973  -0.56520  -0.56360
 Alpha  occ. eigenvalues --   -0.50618  -0.46965  -0.46609  -0.34678  -0.33824
 Alpha virt. eigenvalues --   -0.01819   0.05732   0.07145   0.08248   0.09737
 Alpha virt. eigenvalues --    0.12577   0.13974   0.15340   0.17447   0.19662
 Alpha virt. eigenvalues --    0.19884   0.21733   0.25401   0.26605   0.28680

 Mulliken charges:
               1
     1  C    0.157644
     2  O   -0.350884
     3  C   -0.037134
     4  C   -0.132037
     5  H    0.102997
     6  H    0.084925
     7  H    0.104363
     8  H    0.070126
 Sum of Mulliken charges =   0.00000

 Dipole moment (field-independent basis, Debye):
    X=             -3.5036    Y=              0.7469    Z=              0.0026  Tot=              3.5823
 Quadrupole moment (field-independent basis, Debye-Ang):
   XX=            -27.5258   YY=            -21.7111   ZZ=            -25.2057
   XY=              0.8528   XZ=             -0.3868   YZ=             -0.0292

 Normal termination of Gaussian 09 at Wed Aug 26 16:23:42 2020.
