 Gaussian 09, Revision D.01,
 Gaussian 09:  ES64L-G09RevD.01 24-Apr-2013

 --------------------
 #p B2PLYPD3/Def2QZVP
 --------------------

 --------
 acrolein
 --------
 Symbolic Z-matrix:
 Charge =  0 Multiplicity = 1

                         Standard orientation:
 ---------------------------------------------------------------------
 Center     Atomic      Atomic             Coordinates (Angstroms)
 Number     Number       Type             X           Y           Z
 ---------------------------------------------------------------------
      1          6           0        0.654832    0.323534   -0.014323
      2          8           0        1.790431   -0.102234    0.028194
      3          6           0       -0.547261   -0.447806   -0.043850
      4          6           0       -1.764631    0.154755    0.025266
      5          1           0       -0.411693   -1.573666   -0.053644
      6          1           0       -1.799755    1.212026   -0.052733
      7          1           0       -2.679165   -0.434965    0.119455
      8          1           0        0.509530    1.431581   -0.041185
 ---------------------------------------------------------------------

 SCF Done:  E(RB2PLYPD3) =  -191.611042647     A.U. after   13 cycles
 E2(B2PLYPD3) =    -0.2482813061D+00 E(B2PLYPD3) =    -0.19185932395268D+03

 The electronic state is 1-A.
 Alpha  occ. eigenvalues --  -19.72528 -10.71210 -10.66301 -10.65184  -1.19169
 Alpha  occ. eigenvalues --   -0.93163  -0.76197  -0.66311  -0.56590  -0.56303
 Alpha  occ. eigenvalues --   -0.50142  -0.47296  -0.46524  -0.34369  -0.33692
 Alpha virt. eigenvalues --   -0.02534   0.05734   0.06793   0.08529   0.09759
 Alpha virt. eigenvalues --    0.12537   0.13876   0.15262   0.17089   0.19908
 Alpha virt. eigenvalues --    0.20118   0.21480   0.25090   0.26444   0.28938

 Mulliken charges:
               1
     1  C    0.153772
     2  O   -0.353090
     3  C   -0.022244
     4  C   -0.134435
     5  H    0.097595
     6  H    0.095140
     7  H    0.110206
     8  H    0.053056
 Sum of Mulliken charges =   0.00000

 Dipole moment (field-independent basis, Debye):
    X=             -3.6887    Y=              0.6473    Z=             -0.0762  Tot=              3.7458
 Quadrupole moment (field-independent basis, Debye-Ang):
   XX=            -27.3866   YY=            -21.8464   ZZ=            -25.2835
   XY=              0.8379   XZ=             -0.3451   YZ=             -0.0961

 Normal termination of Gaussian 09 at Wed Aug 26 08:34:41 2020.
