 Gaussian 09, Revision D.01,
 Gaussian 09:  ES64L-G09RevD.01 24-Apr-2013

 --------------------
 #p B2PLYPD3/Def2QZVP
 --------------------

 --------
 acrolein
 --------
 Symbolic Z-matrix:
 Charge =  0 Multiplicity = 1

                         Standard orientation:
 ---------------------------------------------------------------------
 Center     Atomic      Atomic             Coordinates (Angstroms)
 Number     Number       Type             X           Y           Z
 ---------------------------------------------------------------------
      1          6           0       -0.668851    0.368970   -0.039943
      2          8           0       -1.790885   -0.139425    0.040150
      3          6           0        0.554747   -0.433738   -0.061190
      4          6           0        1.770522    0.131133    0.010729
      5          1           0        0.409209   -1.541959    0.016876
      6          1           0        1.790908    1.201025    0.042063
      7          1           0        2.724324   -0.435282    0.156235
      8          1           0       -0.535872    1.493426    0.006049
 ---------------------------------------------------------------------

 SCF Done:  E(RB2PLYPD3) =  -191.609814921     A.U. after   13 cycles
 E2(B2PLYPD3) =    -0.2493138456D+00 E(B2PLYPD3) =    -0.19185912876659D+03

 The electronic state is 1-A.
 Alpha  occ. eigenvalues --  -19.72959 -10.72296 -10.66036 -10.65042  -1.18253
 Alpha  occ. eigenvalues --   -0.92834  -0.75358  -0.66376  -0.56132  -0.56076
 Alpha  occ. eigenvalues --   -0.50146  -0.46342  -0.46050  -0.34500  -0.34058
 Alpha virt. eigenvalues --   -0.02302   0.05613   0.06835   0.07867   0.09790
 Alpha virt. eigenvalues --    0.12272   0.13813   0.15323   0.17213   0.19733
 Alpha virt. eigenvalues --    0.19902   0.21410   0.24942   0.26492   0.29210

 Mulliken charges:
               1
     1  C    0.156502
     2  O   -0.358584
     3  C   -0.036902
     4  C   -0.126892
     5  H    0.105515
     6  H    0.081892
     7  H    0.106734
     8  H    0.071735
 Sum of Mulliken charges =   0.00000

 Dipole moment (field-independent basis, Debye):
    X=              3.5565    Y=              0.8404    Z=              0.0615  Tot=              3.6550
 Quadrupole moment (field-independent basis, Debye-Ang):
   XX=            -27.5025   YY=            -21.7839   ZZ=            -25.3772
   XY=             -1.1556   XZ=              0.6727   YZ=             -0.0906

 Normal termination of Gaussian 09 at Wed Aug 26 08:36:23 2020.
