 Gaussian 09, Revision D.01,
 Gaussian 09:  ES64L-G09RevD.01 24-Apr-2013

 --------------------
 #p B2PLYPD3/Def2QZVP
 --------------------

 --------
 acrolein
 --------
 Symbolic Z-matrix:
 Charge =  0 Multiplicity = 1

                         Standard orientation:
 ---------------------------------------------------------------------
 Center     Atomic      Atomic             Coordinates (Angstroms)
 Number     Number       Type             X           Y           Z
 ---------------------------------------------------------------------
      1          6           0       -0.674794    0.344304    0.016890
      2          8           0       -1.786195   -0.113317   -0.014669
      3          6           0        0.561449   -0.444323   -0.006231
      4          6           0        1.754636    0.143713   -0.007055
      5          1           0        0.421612   -1.546229    0.063227
      6          1           0        1.868803    1.228467   -0.031147
      7          1           0        2.685700   -0.425846    0.006081
      8          1           0       -0.534306    1.387979    0.057564
 ---------------------------------------------------------------------

 SCF Done:  E(RB2PLYPD3) =  -191.615000349     A.U. after   12 cycles
 E2(B2PLYPD3) =    -0.2464301246D+00 E(B2PLYPD3) =    -0.19186143047365D+03

 The electronic state is 1-A.
 Alpha  occ. eigenvalues --  -19.72638 -10.70799 -10.65634 -10.64571  -1.19932
 Alpha  occ. eigenvalues --   -0.92918  -0.75661  -0.67277  -0.56949  -0.56152
 Alpha  occ. eigenvalues --   -0.50785  -0.47027  -0.46334  -0.34749  -0.33820
 Alpha virt. eigenvalues --   -0.01629   0.05728   0.07178   0.08382   0.09680
 Alpha virt. eigenvalues --    0.12585   0.14119   0.15334   0.17527   0.19628
 Alpha virt. eigenvalues --    0.19988   0.21613   0.25470   0.26732   0.28636

 Mulliken charges:
               1
     1  C    0.158056
     2  O   -0.347785
     3  C   -0.039534
     4  C   -0.132333
     5  H    0.101386
     6  H    0.084478
     7  H    0.101773
     8  H    0.073959
 Sum of Mulliken charges =   0.00000

 Dipole moment (field-independent basis, Debye):
    X=              3.4630    Y=              0.7917    Z=              0.1083  Tot=              3.5540
 Quadrupole moment (field-independent basis, Debye-Ang):
   XX=            -27.3687   YY=            -21.7414   ZZ=            -25.1691
   XY=             -0.8228   XZ=             -0.0752   YZ=             -0.1190

 Normal termination of Gaussian 09 at Wed Aug 26 19:31:27 2020.
