 Gaussian 09, Revision D.01,
 Gaussian 09:  ES64L-G09RevD.01 24-Apr-2013

 --------------------
 #p B2PLYPD3/Def2QZVP
 --------------------

 --------
 acrolein
 --------
 Symbolic Z-matrix:
 Charge =  0 Multiplicity = 1

                         Standard orientation:
 ---------------------------------------------------------------------
 Center     Atomic      Atomic             Coordinates (Angstroms)
 Number     Number       Type             X           Y           Z
 ---------------------------------------------------------------------
      1          6           0       -0.679354    0.360666    0.019792
      2          8           0       -1.776754   -0.132584   -0.010006
      3          6           0        0.549425   -0.446651    0.000114
      4          6           0        1.756230    0.137276   -0.008426
      5          1           0        0.444721   -1.533250    0.006998
      6          1           0        1.833693    1.226087   -0.022680
      7          1           0        2.689802   -0.441062    0.024702
      8          1           0       -0.511993    1.501147    0.002155
 ---------------------------------------------------------------------

 SCF Done:  E(RB2PLYPD3) =  -191.614882577     A.U. after   12 cycles
 E2(B2PLYPD3) =    -0.2475355696D+00 E(B2PLYPD3) =    -0.19186241814630D+03

 The electronic state is 1-A.
 Alpha  occ. eigenvalues --  -19.72950 -10.72032 -10.65724 -10.64517  -1.20099
 Alpha  occ. eigenvalues --   -0.92591  -0.74933  -0.66316  -0.56292  -0.56170
 Alpha  occ. eigenvalues --   -0.50457  -0.47116  -0.46680  -0.34519  -0.33824
 Alpha virt. eigenvalues --   -0.01683   0.05725   0.06986   0.08155   0.09768
 Alpha virt. eigenvalues --    0.12396   0.13885   0.15400   0.17377   0.19785
 Alpha virt. eigenvalues --    0.19905   0.21456   0.25542   0.26255   0.28808

 Mulliken charges:
               1
     1  C    0.158685
     2  O   -0.340147
     3  C   -0.042052
     4  C   -0.131592
     5  H    0.105647
     6  H    0.083270
     7  H    0.102815
     8  H    0.063374
 Sum of Mulliken charges =   0.00000

 Dipole moment (field-independent basis, Debye):
    X=              3.3902    Y=              0.7454    Z=              0.0542  Tot=              3.4716
 Quadrupole moment (field-independent basis, Debye-Ang):
   XX=            -27.3460   YY=            -21.7722   ZZ=            -25.3234
   XY=             -1.0126   XZ=             -0.0098   YZ=             -0.0545

 Normal termination of Gaussian 09 at Wed Aug 26 19:57:13 2020.
