 Gaussian 09, Revision D.01,
 Gaussian 09:  ES64L-G09RevD.01 24-Apr-2013

 --------------------
 #p B2PLYPD3/Def2QZVP
 --------------------

 --------
 acrolein
 --------
 Symbolic Z-matrix:
 Charge =  0 Multiplicity = 1

                         Standard orientation:
 ---------------------------------------------------------------------
 Center     Atomic      Atomic             Coordinates (Angstroms)
 Number     Number       Type             X           Y           Z
 ---------------------------------------------------------------------
      1          6           0        0.667795    0.338357   -0.079813
      2          8           0        1.779793   -0.119053    0.078333
      3          6           0       -0.535180   -0.430101   -0.041279
      4          6           0       -1.763026    0.118737    0.030529
      5          1           0       -0.348681   -1.514710   -0.119030
      6          1           0       -1.872716    1.204136    0.241157
      7          1           0       -2.760668   -0.414324    0.026454
      8          1           0        0.526190    1.515365   -0.231863
 ---------------------------------------------------------------------

 SCF Done:  E(RB2PLYPD3) =  -191.604640458     A.U. after   13 cycles
 E2(B2PLYPD3) =    -0.2490094752D+00 E(B2PLYPD3) =    -0.19185364993300D+03

 The electronic state is 1-A.
 Alpha  occ. eigenvalues --  -19.72989 -10.72131 -10.66923 -10.64931  -1.19608
 Alpha  occ. eigenvalues --   -0.92943  -0.75790  -0.65469  -0.56877  -0.55465
 Alpha  occ. eigenvalues --   -0.50465  -0.46879  -0.45836  -0.34540  -0.33790
 Alpha virt. eigenvalues --   -0.02541   0.05527   0.06863   0.08321   0.09730
 Alpha virt. eigenvalues --    0.12157   0.13888   0.15267   0.17081   0.19286
 Alpha virt. eigenvalues --    0.20153   0.21158   0.24904   0.26484   0.29064

 Mulliken charges:
               1
     1  C    0.161420
     2  O   -0.345667
     3  C   -0.031141
     4  C   -0.120342
     5  H    0.103303
     6  H    0.081982
     7  H    0.102500
     8  H    0.047945
 Sum of Mulliken charges =   0.00000

 Dipole moment (field-independent basis, Debye):
    X=             -3.5646    Y=              0.6324    Z=             -0.2012  Tot=              3.6258
 Quadrupole moment (field-independent basis, Debye-Ang):
   XX=            -26.9171   YY=            -22.2375   ZZ=            -25.3339
   XY=              0.6974   XZ=             -0.7639   YZ=              0.3652

 Normal termination of Gaussian 09 at Wed Aug 26 13:04:38 2020.
