 Gaussian 09, Revision D.01,
 Gaussian 09:  ES64L-G09RevD.01 24-Apr-2013

 --------------------
 #p B2PLYPD3/Def2QZVP
 --------------------

 --------
 acrolein
 --------
 Symbolic Z-matrix:
 Charge =  0 Multiplicity = 1

                         Standard orientation:
 ---------------------------------------------------------------------
 Center     Atomic      Atomic             Coordinates (Angstroms)
 Number     Number       Type             X           Y           Z
 ---------------------------------------------------------------------
      1          6           0       -0.625641   -0.313381    0.067378
      2          8           0       -1.797578    0.099340   -0.039068
      3          6           0        0.590247    0.450562    0.060885
      4          6           0        1.726376   -0.176038   -0.047795
      5          1           0        0.442582    1.515435   -0.048886
      6          1           0        1.822854   -1.120474    0.092697
      7          1           0        2.598834    0.387056   -0.096503
      8          1           0       -0.629535   -1.343595   -0.117566
 ---------------------------------------------------------------------

 SCF Done:  E(RB2PLYPD3) =  -191.587569769     A.U. after   14 cycles
 E2(B2PLYPD3) =    -0.2473674629D+00 E(B2PLYPD3) =    -0.19183493723203D+03

 The electronic state is 1-A.
 Alpha  occ. eigenvalues --  -19.72143 -10.70551 -10.64356 -10.63693  -1.17124
 Alpha  occ. eigenvalues --   -0.95166  -0.77259  -0.68398  -0.58911  -0.57013
 Alpha  occ. eigenvalues --   -0.49538  -0.48141  -0.45669  -0.35307  -0.33276
 Alpha virt. eigenvalues --   -0.02252   0.05903   0.07287   0.07788   0.09855
 Alpha virt. eigenvalues --    0.13022   0.14112   0.15077   0.17330   0.19581
 Alpha virt. eigenvalues --    0.20996   0.22153   0.24128   0.26969   0.28644

 Mulliken charges:
               1
     1  C    0.144939
     2  O   -0.373663
     3  C   -0.028004
     4  C   -0.118678
     5  H    0.110169
     6  H    0.098662
     7  H    0.093387
     8  H    0.073188
 Sum of Mulliken charges =   0.00000

 Dipole moment (field-independent basis, Debye):
    X=              3.8270    Y=             -0.7177    Z=              0.0771  Tot=              3.8945
 Quadrupole moment (field-independent basis, Debye-Ang):
   XX=            -27.6825   YY=            -21.6686   ZZ=            -24.7987
   XY=              0.8505   XZ=             -0.2148   YZ=             -0.1832

 Normal termination of Gaussian 09 at Wed Aug 26 11:05:06 2020.
