 Gaussian 09, Revision D.01,
 Gaussian 09:  ES64L-G09RevD.01 24-Apr-2013

 --------------------
 #p B2PLYPD3/Def2QZVP
 --------------------

 --------
 acrolein
 --------
 Symbolic Z-matrix:
 Charge =  0 Multiplicity = 1

                         Standard orientation:
 ---------------------------------------------------------------------
 Center     Atomic      Atomic             Coordinates (Angstroms)
 Number     Number       Type             X           Y           Z
 ---------------------------------------------------------------------
      1          6           0        0.668041    0.334283   -0.019318
      2          8           0        1.777051   -0.105536    0.040390
      3          6           0       -0.548845   -0.465749   -0.050294
      4          6           0       -1.750791    0.157843    0.019709
      5          1           0       -0.461024   -1.542435   -0.072975
      6          1           0       -1.872541    1.246312    0.012375
      7          1           0       -2.688980   -0.402598    0.148510
      8          1           0        0.595710    1.384748   -0.111615
 ---------------------------------------------------------------------

 SCF Done:  E(RB2PLYPD3) =  -191.612449395     A.U. after   13 cycles
 E2(B2PLYPD3) =    -0.2464322704D+00 E(B2PLYPD3) =    -0.19185888166507D+03

 The electronic state is 1-A.
 Alpha  occ. eigenvalues --  -19.72181 -10.70448 -10.66188 -10.64734  -1.20232
 Alpha  occ. eigenvalues --   -0.92533  -0.75311  -0.67624  -0.57221  -0.56020
 Alpha  occ. eigenvalues --   -0.50311  -0.47403  -0.46774  -0.34318  -0.33519
 Alpha virt. eigenvalues --   -0.01753   0.05702   0.07226   0.08379   0.09596
 Alpha virt. eigenvalues --    0.12493   0.14333   0.15368   0.17664   0.19691
 Alpha virt. eigenvalues --    0.19905   0.21357   0.25191   0.26261   0.28832

 Mulliken charges:
               1
     1  C    0.150649
     2  O   -0.344719
     3  C   -0.044839
     4  C   -0.129970
     5  H    0.109718
     6  H    0.088285
     7  H    0.096877
     8  H    0.073998
 Sum of Mulliken charges =   0.00000

 Dipole moment (field-independent basis, Debye):
    X=             -3.4899    Y=              0.7420    Z=             -0.0772  Tot=              3.5687
 Quadrupole moment (field-independent basis, Debye-Ang):
   XX=            -27.3369   YY=            -21.6246   ZZ=            -25.1980
   XY=              0.8566   XZ=             -0.5783   YZ=             -0.0136

 Normal termination of Gaussian 09 at Wed Aug 26 09:55:33 2020.
