 Gaussian 09, Revision D.01,
 Gaussian 09:  ES64L-G09RevD.01 24-Apr-2013

 --------------------
 #p B2PLYPD3/Def2QZVP
 --------------------

 --------
 acrolein
 --------
 Symbolic Z-matrix:
 Charge =  0 Multiplicity = 1

                         Standard orientation:
 ---------------------------------------------------------------------
 Center     Atomic      Atomic             Coordinates (Angstroms)
 Number     Number       Type             X           Y           Z
 ---------------------------------------------------------------------
      1          6           0       -0.673521    0.368236    0.026543
      2          8           0       -1.757042   -0.151659   -0.019776
      3          6           0        0.509644   -0.432576    0.003280
      4          6           0        1.748169    0.108155   -0.028996
      5          1           0        0.522477   -1.390827    0.126336
      6          1           0        1.764250    1.172519    0.125108
      7          1           0        2.749916   -0.379869   -0.065226
      8          1           0       -0.486062    1.548565   -0.032976
 ---------------------------------------------------------------------

 SCF Done:  E(RB2PLYPD3) =  -191.589924801     A.U. after   13 cycles
 E2(B2PLYPD3) =    -0.2480842673D+00 E(B2PLYPD3) =    -0.19183800906872D+03

 The electronic state is 1-A.
 Alpha  occ. eigenvalues --  -19.72941 -10.72234 -10.65859 -10.63006  -1.20326
 Alpha  occ. eigenvalues --   -0.93436  -0.75311  -0.67930  -0.56684  -0.56556
 Alpha  occ. eigenvalues --   -0.50454  -0.47898  -0.46337  -0.34109  -0.33991
 Alpha virt. eigenvalues --   -0.02169   0.05695   0.07249   0.08020   0.09734
 Alpha virt. eigenvalues --    0.12325   0.13928   0.15326   0.18166   0.19535
 Alpha virt. eigenvalues --    0.20136   0.20918   0.25457   0.26042   0.29277

 Mulliken charges:
               1
     1  C    0.158150
     2  O   -0.336413
     3  C   -0.035423
     4  C   -0.121886
     5  H    0.108719
     6  H    0.067744
     7  H    0.101525
     8  H    0.057585
 Sum of Mulliken charges =   0.00000

 Dipole moment (field-independent basis, Debye):
    X=              3.4698    Y=              0.7281    Z=              0.2251  Tot=              3.5525
 Quadrupole moment (field-independent basis, Debye-Ang):
   XX=            -26.7640   YY=            -22.2069   ZZ=            -25.1255
   XY=             -1.3177   XZ=              0.0143   YZ=             -0.0109

 Normal termination of Gaussian 09 at Wed Aug 26 11:40:28 2020.
