 Gaussian 09, Revision D.01,
 Gaussian 09:  ES64L-G09RevD.01 24-Apr-2013

 --------------------
 #p B2PLYPD3/Def2QZVP
 --------------------

 --------
 acrolein
 --------
 Symbolic Z-matrix:
 Charge =  0 Multiplicity = 1

                         Standard orientation:
 ---------------------------------------------------------------------
 Center     Atomic      Atomic             Coordinates (Angstroms)
 Number     Number       Type             X           Y           Z
 ---------------------------------------------------------------------
      1          6           0       -0.688836    0.358521    0.032404
      2          8           0       -1.779997   -0.137019   -0.034893
      3          6           0        0.545125   -0.434791    0.056518
      4          6           0        1.768220    0.135137   -0.033643
      5          1           0        0.502204   -1.461293   -0.016178
      6          1           0        1.792165    1.144504   -0.020653
      7          1           0        2.691520   -0.400643   -0.048197
      8          1           0       -0.492969    1.460391    0.032495
 ---------------------------------------------------------------------

 SCF Done:  E(RB2PLYPD3) =  -191.608595458     A.U. after   13 cycles
 E2(B2PLYPD3) =    -0.2466539961D+00 E(B2PLYPD3) =    -0.19185524945449D+03

 The electronic state is 1-A.
 Alpha  occ. eigenvalues --  -19.73008 -10.71797 -10.64618 -10.63745  -1.20324
 Alpha  occ. eigenvalues --   -0.92963  -0.75918  -0.67879  -0.57145  -0.56597
 Alpha  occ. eigenvalues --   -0.51015  -0.47585  -0.47208  -0.34367  -0.33932
 Alpha virt. eigenvalues --   -0.01898   0.05902   0.07433   0.08204   0.09841
 Alpha virt. eigenvalues --    0.12725   0.13994   0.15388   0.17898   0.19842
 Alpha virt. eigenvalues --    0.20150   0.21586   0.25243   0.26370   0.28912

 Mulliken charges:
               1
     1  C    0.147024
     2  O   -0.338391
     3  C   -0.033308
     4  C   -0.134403
     5  H    0.105975
     6  H    0.079707
     7  H    0.102573
     8  H    0.070824
 Sum of Mulliken charges =   0.00000

 Dipole moment (field-independent basis, Debye):
    X=              3.4087    Y=              0.7957    Z=              0.0420  Tot=              3.5006
 Quadrupole moment (field-independent basis, Debye-Ang):
   XX=            -27.0558   YY=            -21.9412   ZZ=            -25.1111
   XY=             -1.1360   XZ=             -0.3476   YZ=              0.0727

 Normal termination of Gaussian 09 at Wed Aug 26 09:23:29 2020.
