 Gaussian 09, Revision D.01,
 Gaussian 09:  ES64L-G09RevD.01 24-Apr-2013

 --------------------
 #p B2PLYPD3/Def2QZVP
 --------------------

 --------
 acrolein
 --------
 Symbolic Z-matrix:
 Charge =  0 Multiplicity = 1

                         Standard orientation:
 ---------------------------------------------------------------------
 Center     Atomic      Atomic             Coordinates (Angstroms)
 Number     Number       Type             X           Y           Z
 ---------------------------------------------------------------------
      1          6           0        0.668279    0.360250    0.021575
      2          8           0        1.782008   -0.132923   -0.010259
      3          6           0       -0.559621   -0.435557   -0.006431
      4          6           0       -1.751947    0.136484   -0.013669
      5          1           0       -0.428561   -1.529266    0.024197
      6          1           0       -1.816791    1.196482   -0.023335
      7          1           0       -2.677742   -0.436555    0.054823
      8          1           0        0.526763    1.465660    0.017534
 ---------------------------------------------------------------------

 SCF Done:  E(RB2PLYPD3) =  -191.615672981     A.U. after   12 cycles
 E2(B2PLYPD3) =    -0.2473766077D+00 E(B2PLYPD3) =    -0.19186304958851D+03

 The electronic state is 1-A.
 Alpha  occ. eigenvalues --  -19.72846 -10.71744 -10.65170 -10.64357  -1.19108
 Alpha  occ. eigenvalues --   -0.93290  -0.75506  -0.66811  -0.56643  -0.56408
 Alpha  occ. eigenvalues --   -0.50486  -0.46634  -0.46612  -0.34814  -0.33923
 Alpha virt. eigenvalues --   -0.01789   0.05764   0.07042   0.08179   0.09813
 Alpha virt. eigenvalues --    0.12515   0.13975   0.15343   0.17317   0.19868
 Alpha virt. eigenvalues --    0.19944   0.21673   0.25612   0.26385   0.28925

 Mulliken charges:
               1
     1  C    0.154789
     2  O   -0.352097
     3  C   -0.034323
     4  C   -0.130895
     5  H    0.103491
     6  H    0.084110
     7  H    0.103553
     8  H    0.071371
 Sum of Mulliken charges =   0.00000

 Dipole moment (field-independent basis, Debye):
    X=             -3.4850    Y=              0.8088    Z=              0.1035  Tot=              3.5791
 Quadrupole moment (field-independent basis, Debye-Ang):
   XX=            -27.4659   YY=            -21.7367   ZZ=            -25.1981
   XY=              1.0394   XZ=             -0.0761   YZ=             -0.0910

 Normal termination of Gaussian 09 at Wed Aug 26 15:16:39 2020.
