 Gaussian 09, Revision D.01,
 Gaussian 09:  ES64L-G09RevD.01 24-Apr-2013

 --------------------
 #p B2PLYPD3/Def2QZVP
 --------------------

 --------
 acrolein
 --------
 Symbolic Z-matrix:
 Charge =  0 Multiplicity = 1

                         Standard orientation:
 ---------------------------------------------------------------------
 Center     Atomic      Atomic             Coordinates (Angstroms)
 Number     Number       Type             X           Y           Z
 ---------------------------------------------------------------------
      1          6           0       -0.663743   -0.337894   -0.059847
      2          8           0       -1.777669    0.076852    0.070685
      3          6           0        0.545022    0.481547   -0.061374
      4          6           0        1.764074   -0.151739    0.045906
      5          1           0        0.357596    1.673103   -0.158864
      6          1           0        1.869136   -1.295738   -0.081192
      7          1           0        2.684914    0.329975    0.234471
      8          1           0       -0.562412   -1.273639   -0.108000
 ---------------------------------------------------------------------

 SCF Done:  E(RB2PLYPD3) =  -191.577129482     A.U. after   14 cycles
 E2(B2PLYPD3) =    -0.2475641622D+00 E(B2PLYPD3) =    -0.19182469364383D+03

 The electronic state is 1-A.
 Alpha  occ. eigenvalues --  -19.72048 -10.69241 -10.66862 -10.66314  -1.20101
 Alpha  occ. eigenvalues --   -0.91856  -0.76337  -0.68390  -0.56935  -0.55264
 Alpha  occ. eigenvalues --   -0.50598  -0.47261  -0.45449  -0.34004  -0.33528
 Alpha virt. eigenvalues --   -0.02058   0.05508   0.06707   0.08257   0.09419
 Alpha virt. eigenvalues --    0.12349   0.14368   0.15351   0.17102   0.19600
 Alpha virt. eigenvalues --    0.19892   0.21346   0.24753   0.27144   0.29167

 Mulliken charges:
               1
     1  C    0.169264
     2  O   -0.352466
     3  C   -0.042114
     4  C   -0.132572
     5  H    0.098099
     6  H    0.079002
     7  H    0.105829
     8  H    0.074958
 Sum of Mulliken charges =   0.00000

 Dipole moment (field-independent basis, Debye):
    X=              3.5189    Y=             -0.7803    Z=             -0.2726  Tot=              3.6146
 Quadrupole moment (field-independent basis, Debye-Ang):
   XX=            -27.3722   YY=            -21.5479   ZZ=            -25.2664
   XY=              0.5173   XZ=              0.7922   YZ=              0.0378

 Normal termination of Gaussian 09 at Wed Aug 26 12:28:16 2020.
