 Gaussian 09, Revision D.01,
 Gaussian 09:  ES64L-G09RevD.01 24-Apr-2013

 --------------------
 #p B2PLYPD3/Def2QZVP
 --------------------

 --------
 acrolein
 --------
 Symbolic Z-matrix:
 Charge =  0 Multiplicity = 1

                         Standard orientation:
 ---------------------------------------------------------------------
 Center     Atomic      Atomic             Coordinates (Angstroms)
 Number     Number       Type             X           Y           Z
 ---------------------------------------------------------------------
      1          6           0       -0.670175    0.344835    0.030377
      2          8           0       -1.784492   -0.112386   -0.025928
      3          6           0        0.563129   -0.460476    0.005197
      4          6           0        1.752833    0.150806   -0.022609
      5          1           0        0.413400   -1.551499    0.076370
      6          1           0        1.838090    1.226146   -0.021992
      7          1           0        2.696744   -0.402618    0.006852
      8          1           0       -0.547019    1.416073    0.068405
 ---------------------------------------------------------------------

 SCF Done:  E(RB2PLYPD3) =  -191.615825005     A.U. after   12 cycles
 E2(B2PLYPD3) =    -0.2468542836D+00 E(B2PLYPD3) =    -0.19186267928822D+03

 The electronic state is 1-A.
 Alpha  occ. eigenvalues --  -19.72605 -10.71107 -10.65655 -10.64765  -1.19714
 Alpha  occ. eigenvalues --   -0.92754  -0.75306  -0.67167  -0.56772  -0.56146
 Alpha  occ. eigenvalues --   -0.50577  -0.47010  -0.46587  -0.34610  -0.33733
 Alpha virt. eigenvalues --   -0.01644   0.05751   0.07143   0.08190   0.09701
 Alpha virt. eigenvalues --    0.12545   0.14124   0.15321   0.17424   0.19775
 Alpha virt. eigenvalues --    0.20002   0.21512   0.25357   0.26536   0.28894

 Mulliken charges:
               1
     1  C    0.155309
     2  O   -0.348342
     3  C   -0.040690
     4  C   -0.131312
     5  H    0.105375
     6  H    0.086769
     7  H    0.100419
     8  H    0.072471
 Sum of Mulliken charges =   0.00000

 Dipole moment (field-independent basis, Debye):
    X=              3.4596    Y=              0.7715    Z=              0.1728  Tot=              3.5488
 Quadrupole moment (field-independent basis, Debye-Ang):
   XX=            -27.4339   YY=            -21.6804   ZZ=            -25.2273
   XY=             -0.8115   XZ=             -0.1038   YZ=             -0.1181

 Normal termination of Gaussian 09 at Wed Aug 26 12:55:52 2020.
