 Gaussian 09, Revision D.01,
 Gaussian 09:  ES64L-G09RevD.01 24-Apr-2013

 --------------------
 #p B2PLYPD3/Def2QZVP
 --------------------

 --------
 acrolein
 --------
 Symbolic Z-matrix:
 Charge =  0 Multiplicity = 1

                         Standard orientation:
 ---------------------------------------------------------------------
 Center     Atomic      Atomic             Coordinates (Angstroms)
 Number     Number       Type             X           Y           Z
 ---------------------------------------------------------------------
      1          6           0        0.664080    0.362074    0.038562
      2          8           0        1.788690   -0.130864   -0.028531
      3          6           0       -0.557054   -0.454001    0.018058
      4          6           0       -1.749943    0.142998   -0.024265
      5          1           0       -0.435494   -1.517540    0.034454
      6          1           0       -1.782932    1.187561   -0.035663
      7          1           0       -2.678507   -0.446347    0.001314
      8          1           0        0.444910    1.516816    0.034013
 ---------------------------------------------------------------------

 SCF Done:  E(RB2PLYPD3) =  -191.610237595     A.U. after   13 cycles
 E2(B2PLYPD3) =    -0.2488105694D+00 E(B2PLYPD3) =    -0.19185904816406D+03

 The electronic state is 1-A.
 Alpha  occ. eigenvalues --  -19.73146 -10.72622 -10.65329 -10.64341  -1.18577
 Alpha  occ. eigenvalues --   -0.93270  -0.75271  -0.66749  -0.56393  -0.55888
 Alpha  occ. eigenvalues --   -0.50130  -0.47469  -0.46354  -0.34658  -0.33907
 Alpha virt. eigenvalues --   -0.02024   0.05712   0.06919   0.07830   0.09872
 Alpha virt. eigenvalues --    0.12555   0.13566   0.15300   0.17273   0.19907
 Alpha virt. eigenvalues --    0.20106   0.21495   0.25408   0.26354   0.28893

 Mulliken charges:
               1
     1  C    0.157983
     2  O   -0.354171
     3  C   -0.030305
     4  C   -0.132989
     5  H    0.107944
     6  H    0.088210
     7  H    0.103107
     8  H    0.060222
 Sum of Mulliken charges =   0.00000

 Dipole moment (field-independent basis, Debye):
    X=             -3.5401    Y=              0.7270    Z=              0.1188  Tot=              3.6159
 Quadrupole moment (field-independent basis, Debye-Ang):
   XX=            -27.6256   YY=            -21.7387   ZZ=            -25.3027
   XY=              0.9522   XZ=              0.1560   YZ=             -0.0716

 Normal termination of Gaussian 09 at Wed Aug 26 19:50:49 2020.
