 Gaussian 09, Revision D.01,
 Gaussian 09:  ES64L-G09RevD.01 24-Apr-2013

 --------------------
 #p B2PLYPD3/Def2QZVP
 --------------------

 --------
 acrolein
 --------
 Symbolic Z-matrix:
 Charge =  0 Multiplicity = 1

                         Standard orientation:
 ---------------------------------------------------------------------
 Center     Atomic      Atomic             Coordinates (Angstroms)
 Number     Number       Type             X           Y           Z
 ---------------------------------------------------------------------
      1          6           0       -0.677280    0.351193    0.022641
      2          8           0       -1.778162   -0.124581   -0.018922
      3          6           0        0.549301   -0.439911   -0.001152
      4          6           0        1.760629    0.141264   -0.018297
      5          1           0        0.414932   -1.546065    0.071072
      6          1           0        1.807600    1.197002   -0.019786
      7          1           0        2.699042   -0.439494    0.020690
      8          1           0       -0.492173    1.469929    0.060249
 ---------------------------------------------------------------------

 SCF Done:  E(RB2PLYPD3) =  -191.614161857     A.U. after   12 cycles
 E2(B2PLYPD3) =    -0.2473181292D+00 E(B2PLYPD3) =    -0.19186147998652D+03

 The electronic state is 1-A.
 Alpha  occ. eigenvalues --  -19.72935 -10.71696 -10.65607 -10.64668  -1.20283
 Alpha  occ. eigenvalues --   -0.92776  -0.75424  -0.66361  -0.56473  -0.56290
 Alpha  occ. eigenvalues --   -0.50629  -0.47334  -0.46559  -0.34518  -0.33859
 Alpha virt. eigenvalues --   -0.01835   0.05784   0.06947   0.08366   0.09816
 Alpha virt. eigenvalues --    0.12539   0.13859   0.15337   0.17284   0.19863
 Alpha virt. eigenvalues --    0.20004   0.21533   0.25462   0.26448   0.28843

 Mulliken charges:
               1
     1  C    0.156736
     2  O   -0.340450
     3  C   -0.031656
     4  C   -0.136362
     5  H    0.099874
     6  H    0.086527
     7  H    0.106022
     8  H    0.059310
 Sum of Mulliken charges =   0.00000

 Dipole moment (field-independent basis, Debye):
    X=              3.4170    Y=              0.7324    Z=              0.1504  Tot=              3.4978
 Quadrupole moment (field-independent basis, Debye-Ang):
   XX=            -27.2691   YY=            -21.8887   ZZ=            -25.2719
   XY=             -0.9255   XZ=             -0.0251   YZ=             -0.1195

 Normal termination of Gaussian 09 at Wed Aug 26 20:25:53 2020.
