 Gaussian 09, Revision D.01,
 Gaussian 09:  ES64L-G09RevD.01 24-Apr-2013

 --------------------
 #p B2PLYPD3/Def2QZVP
 --------------------

 --------
 acrolein
 --------
 Symbolic Z-matrix:
 Charge =  0 Multiplicity = 1

                         Standard orientation:
 ---------------------------------------------------------------------
 Center     Atomic      Atomic             Coordinates (Angstroms)
 Number     Number       Type             X           Y           Z
 ---------------------------------------------------------------------
      1          6           0       -0.668860    0.334787    0.035497
      2          8           0       -1.787109   -0.104529   -0.033834
      3          6           0        0.571233   -0.479371    0.032595
      4          6           0        1.747695    0.152643   -0.040075
      5          1           0        0.469785   -1.579442    0.008749
      6          1           0        1.849505    1.276298   -0.070521
      7          1           0        2.603378   -0.368400    0.057533
      8          1           0       -0.526206    1.459427    0.106807
 ---------------------------------------------------------------------

 SCF Done:  E(RB2PLYPD3) =  -191.608992246     A.U. after   13 cycles
 E2(B2PLYPD3) =    -0.2471802315D+00 E(B2PLYPD3) =    -0.19185617247705D+03

 The electronic state is 1-A.
 Alpha  occ. eigenvalues --  -19.72752 -10.71748 -10.65143 -10.64931  -1.19888
 Alpha  occ. eigenvalues --   -0.92840  -0.75407  -0.66218  -0.56926  -0.56008
 Alpha  occ. eigenvalues --   -0.50603  -0.47148  -0.46798  -0.34690  -0.33560
 Alpha virt. eigenvalues --   -0.01596   0.05808   0.06991   0.08094   0.09674
 Alpha virt. eigenvalues --    0.12550   0.14131   0.15433   0.17168   0.19428
 Alpha virt. eigenvalues --    0.20026   0.21988   0.25196   0.26335   0.28660

 Mulliken charges:
               1
     1  C    0.156835
     2  O   -0.340532
     3  C   -0.046820
     4  C   -0.122116
     5  H    0.104043
     6  H    0.082132
     7  H    0.103368
     8  H    0.063091
 Sum of Mulliken charges =   0.00000

 Dipole moment (field-independent basis, Debye):
    X=              3.4575    Y=              0.6489    Z=              0.1451  Tot=              3.5209
 Quadrupole moment (field-independent basis, Debye-Ang):
   XX=            -27.5073   YY=            -21.6212   ZZ=            -25.2527
   XY=             -0.7627   XZ=             -0.1360   YZ=             -0.0733

 Normal termination of Gaussian 09 at Wed Aug 26 08:56:45 2020.
