 Gaussian 09, Revision D.01,
 Gaussian 09:  ES64L-G09RevD.01 24-Apr-2013

 --------------------
 #p B2PLYPD3/Def2QZVP
 --------------------

 --------
 acrolein
 --------
 Symbolic Z-matrix:
 Charge =  0 Multiplicity = 1

                         Standard orientation:
 ---------------------------------------------------------------------
 Center     Atomic      Atomic             Coordinates (Angstroms)
 Number     Number       Type             X           Y           Z
 ---------------------------------------------------------------------
      1          6           0       -0.668021   -0.308339   -0.053717
      2          8           0       -1.784616    0.087911    0.032514
      3          6           0        0.568090    0.454743   -0.040151
      4          6           0        1.742717   -0.177449   -0.010589
      5          1           0        0.486859    1.599687    0.048802
      6          1           0        1.793595   -1.142543    0.016409
      7          1           0        2.653448    0.345647    0.188851
      8          1           0       -0.513692   -1.319806    0.112566
 ---------------------------------------------------------------------

 SCF Done:  E(RB2PLYPD3) =  -191.595642939     A.U. after   13 cycles
 E2(B2PLYPD3) =    -0.2455780410D+00 E(B2PLYPD3) =    -0.19184122097987D+03

 The electronic state is 1-A.
 Alpha  occ. eigenvalues --  -19.72507 -10.70214 -10.64964 -10.64164  -1.20737
 Alpha  occ. eigenvalues --   -0.93688  -0.76697  -0.67754  -0.58196  -0.56509
 Alpha  occ. eigenvalues --   -0.50870  -0.47588  -0.46955  -0.34857  -0.33559
 Alpha virt. eigenvalues --   -0.01787   0.05960   0.07051   0.08451   0.09755
 Alpha virt. eigenvalues --    0.13136   0.14602   0.15252   0.17303   0.19500
 Alpha virt. eigenvalues --    0.20358   0.22402   0.24919   0.27010   0.28330

 Mulliken charges:
               1
     1  C    0.152423
     2  O   -0.339132
     3  C   -0.023693
     4  C   -0.130526
     5  H    0.091693
     6  H    0.089432
     7  H    0.097406
     8  H    0.062397
 Sum of Mulliken charges =   0.00000

 Dipole moment (field-independent basis, Debye):
    X=              3.4733    Y=             -0.6977    Z=              0.1191  Tot=              3.5447
 Quadrupole moment (field-independent basis, Debye-Ang):
   XX=            -27.3031   YY=            -21.8835   ZZ=            -24.9016
   XY=              0.6494   XZ=              0.6583   YZ=              0.1201

 Normal termination of Gaussian 09 at Wed Aug 26 14:44:38 2020.
