 Gaussian 09, Revision D.01,
 Gaussian 09:  ES64L-G09RevD.01 24-Apr-2013

 --------------------
 #p B2PLYPD3/Def2QZVP
 --------------------

 --------
 acrolein
 --------
 Symbolic Z-matrix:
 Charge =  0 Multiplicity = 1

                         Standard orientation:
 ---------------------------------------------------------------------
 Center     Atomic      Atomic             Coordinates (Angstroms)
 Number     Number       Type             X           Y           Z
 ---------------------------------------------------------------------
      1          6           0        0.681757    0.363686    0.011063
      2          8           0        1.761518   -0.146275   -0.031216
      3          6           0       -0.533266   -0.411791    0.020391
      4          6           0       -1.737916    0.148035   -0.021346
      5          1           0       -0.528474   -1.468176    0.093408
      6          1           0       -1.736456    1.103814   -0.121531
      7          1           0       -2.799915   -0.442539    0.010569
      8          1           0        0.509245    1.377520    0.206630
 ---------------------------------------------------------------------

 SCF Done:  E(RB2PLYPD3) =  -191.587186763     A.U. after   12 cycles
 E2(B2PLYPD3) =    -0.2461273109D+00 E(B2PLYPD3) =    -0.19183331407382D+03

 The electronic state is 1-A.
 Alpha  occ. eigenvalues --  -19.72739 -10.70773 -10.64977 -10.63292  -1.20584
 Alpha  occ. eigenvalues --   -0.93761  -0.75934  -0.68704  -0.58269  -0.55543
 Alpha  occ. eigenvalues --   -0.50378  -0.47433  -0.46435  -0.34619  -0.34093
 Alpha virt. eigenvalues --   -0.01618   0.05558   0.07148   0.08299   0.09735
 Alpha virt. eigenvalues --    0.12532   0.14262   0.15371   0.17920   0.19299
 Alpha virt. eigenvalues --    0.20388   0.21232   0.25267   0.26783   0.28831

 Mulliken charges:
               1
     1  C    0.135601
     2  O   -0.338742
     3  C   -0.025615
     4  C   -0.143403
     5  H    0.102977
     6  H    0.086808
     7  H    0.096991
     8  H    0.085384
 Sum of Mulliken charges =   0.00000

 Dipole moment (field-independent basis, Debye):
    X=             -3.3380    Y=              0.8985    Z=              0.1384  Tot=              3.4595
 Quadrupole moment (field-independent basis, Debye-Ang):
   XX=            -27.1327   YY=            -21.9302   ZZ=            -24.9859
   XY=              1.3487   XZ=              0.2649   YZ=             -0.1800

 Normal termination of Gaussian 09 at Wed Aug 26 14:31:02 2020.
