 Gaussian 09, Revision D.01,
 Gaussian 09:  ES64L-G09RevD.01 24-Apr-2013

 --------------------
 #p B2PLYPD3/Def2QZVP
 --------------------

 --------
 acrolein
 --------
 Symbolic Z-matrix:
 Charge =  0 Multiplicity = 1

                         Standard orientation:
 ---------------------------------------------------------------------
 Center     Atomic      Atomic             Coordinates (Angstroms)
 Number     Number       Type             X           Y           Z
 ---------------------------------------------------------------------
      1          6           0       -0.667861    0.330902    0.038375
      2          8           0       -1.797068   -0.099578   -0.022299
      3          6           0        0.567523   -0.459913   -0.000409
      4          6           0        1.767128    0.151241   -0.026539
      5          1           0        0.429138   -1.571419    0.024455
      6          1           0        1.878451    1.256812   -0.052807
      7          1           0        2.646019   -0.392267    0.088255
      8          1           0       -0.577810    1.370122    0.049934
 ---------------------------------------------------------------------

 SCF Done:  E(RB2PLYPD3) =  -191.609637243     A.U. after   13 cycles
 E2(B2PLYPD3) =    -0.2470271524D+00 E(B2PLYPD3) =    -0.19185666439505D+03

 The electronic state is 1-A.
 Alpha  occ. eigenvalues --  -19.72445 -10.70656 -10.65709 -10.65160  -1.19367
 Alpha  occ. eigenvalues --   -0.92721  -0.76011  -0.67320  -0.56793  -0.56481
 Alpha  occ. eigenvalues --   -0.50534  -0.46880  -0.46561  -0.34536  -0.33654
 Alpha virt. eigenvalues --   -0.02026   0.05740   0.07177   0.08271   0.09640
 Alpha virt. eigenvalues --    0.12564   0.14272   0.15374   0.17402   0.19484
 Alpha virt. eigenvalues --    0.19944   0.21881   0.25207   0.26486   0.28830

 Mulliken charges:
               1
     1  C    0.157547
     2  O   -0.351859
     3  C   -0.042294
     4  C   -0.128633
     5  H    0.101288
     6  H    0.085740
     7  H    0.105010
     8  H    0.073200
 Sum of Mulliken charges =   0.00000

 Dipole moment (field-independent basis, Debye):
    X=              3.5591    Y=              0.7471    Z=              0.1665  Tot=              3.6405
 Quadrupole moment (field-independent basis, Debye-Ang):
   XX=            -27.4859   YY=            -21.6294   ZZ=            -25.2083
   XY=             -0.7769   XZ=              0.0445   YZ=             -0.1354

 Normal termination of Gaussian 09 at Wed Aug 26 09:50:33 2020.
