 Gaussian 09, Revision D.01,
 Gaussian 09:  ES64L-G09RevD.01 24-Apr-2013

 --------------------
 #p B2PLYPD3/Def2QZVP
 --------------------

 --------
 acrolein
 --------
 Symbolic Z-matrix:
 Charge =  0 Multiplicity = 1

                         Standard orientation:
 ---------------------------------------------------------------------
 Center     Atomic      Atomic             Coordinates (Angstroms)
 Number     Number       Type             X           Y           Z
 ---------------------------------------------------------------------
      1          6           0       -0.660886    0.345044   -0.027022
      2          8           0       -1.805379   -0.137068    0.067595
      3          6           0        0.560335   -0.422701   -0.115299
      4          6           0        1.727107    0.143223    0.034086
      5          1           0        0.557237   -1.425879   -0.110712
      6          1           0        1.774466    1.190258   -0.021959
      7          1           0        2.774118   -0.499260    0.346052
      8          1           0       -0.422124    1.438038   -0.104730
 ---------------------------------------------------------------------

 SCF Done:  E(RB2PLYPD3) =  -191.582687591     A.U. after   14 cycles
 E2(B2PLYPD3) =    -0.2496758921D+00 E(B2PLYPD3) =    -0.19183236348330D+03

 The electronic state is 1-A.
 Alpha  occ. eigenvalues --  -19.73161 -10.72453 -10.66730 -10.63132  -1.17621
 Alpha  occ. eigenvalues --   -0.94708  -0.75280  -0.68402  -0.56488  -0.55247
 Alpha  occ. eigenvalues --   -0.49904  -0.46861  -0.45623  -0.35102  -0.34096
 Alpha virt. eigenvalues --   -0.02304   0.04890   0.06818   0.07939   0.09614
 Alpha virt. eigenvalues --    0.12189   0.13548   0.15167   0.18055   0.19336
 Alpha virt. eigenvalues --    0.20028   0.21064   0.24348   0.26308   0.28479

 Mulliken charges:
               1
     1  C    0.144645
     2  O   -0.363436
     3  C   -0.011741
     4  C   -0.124491
     5  H    0.105764
     6  H    0.085358
     7  H    0.092894
     8  H    0.071008
 Sum of Mulliken charges =   0.00000

 Dipole moment (field-independent basis, Debye):
    X=              3.7025    Y=              0.7758    Z=             -0.0522  Tot=              3.7833
 Quadrupole moment (field-independent basis, Debye-Ang):
   XX=            -27.8187   YY=            -22.0002   ZZ=            -25.0951
   XY=             -1.1592   XZ=              1.0644   YZ=             -0.2051

 Normal termination of Gaussian 09 at Wed Aug 26 11:36:40 2020.
