 Gaussian 09, Revision D.01,
 Gaussian 09:  ES64L-G09RevD.01 24-Apr-2013

 --------------------
 #p B2PLYPD3/Def2QZVP
 --------------------

 --------
 acrolein
 --------
 Symbolic Z-matrix:
 Charge =  0 Multiplicity = 1

                         Standard orientation:
 ---------------------------------------------------------------------
 Center     Atomic      Atomic             Coordinates (Angstroms)
 Number     Number       Type             X           Y           Z
 ---------------------------------------------------------------------
      1          6           0        0.657963    0.310469    0.069952
      2          8           0        1.834763   -0.078122   -0.064636
      3          6           0       -0.575724   -0.495691    0.055464
      4          6           0       -1.743725    0.169258   -0.067235
      5          1           0       -0.517302   -1.547833    0.003729
      6          1           0       -1.929815    1.310267   -0.164197
      7          1           0       -2.682101   -0.420649    0.094188
      8          1           0        0.420034    1.378973    0.234281
 ---------------------------------------------------------------------

 SCF Done:  E(RB2PLYPD3) =  -191.600322332     A.U. after   13 cycles
 E2(B2PLYPD3) =    -0.2503714782D+00 E(B2PLYPD3) =    -0.19185069381039D+03

 The electronic state is 1-A.
 Alpha  occ. eigenvalues --  -19.72950 -10.72089 -10.67341 -10.65088  -1.17263
 Alpha  occ. eigenvalues --   -0.93128  -0.75248  -0.67114  -0.55890  -0.55433
 Alpha  occ. eigenvalues --   -0.50146  -0.46936  -0.45238  -0.34603  -0.33751
 Alpha virt. eigenvalues --   -0.02706   0.05319   0.06875   0.07631   0.09490
 Alpha virt. eigenvalues --    0.12267   0.13833   0.15394   0.17659   0.18283
 Alpha virt. eigenvalues --    0.20076   0.21499   0.24601   0.26617   0.28336

 Mulliken charges:
               1
     1  C    0.155304
     2  O   -0.364376
     3  C   -0.040086
     4  C   -0.115159
     5  H    0.111383
     6  H    0.089407
     7  H    0.091396
     8  H    0.072132
 Sum of Mulliken charges =   0.00000

 Dipole moment (field-independent basis, Debye):
    X=             -3.8446    Y=              0.6219    Z=              0.2516  Tot=              3.9027
 Quadrupole moment (field-independent basis, Debye-Ang):
   XX=            -28.0023   YY=            -21.6228   ZZ=            -25.3992
   XY=              0.3441   XZ=              0.3633   YZ=             -0.1572

 Normal termination of Gaussian 09 at Wed Aug 26 10:33:57 2020.
