 Gaussian 09, Revision D.01,
 Gaussian 09:  ES64L-G09RevD.01 24-Apr-2013

 --------------------
 #p B2PLYPD3/Def2QZVP
 --------------------

 --------
 acrolein
 --------
 Symbolic Z-matrix:
 Charge =  0 Multiplicity = 1

                         Standard orientation:
 ---------------------------------------------------------------------
 Center     Atomic      Atomic             Coordinates (Angstroms)
 Number     Number       Type             X           Y           Z
 ---------------------------------------------------------------------
      1          6           0       -0.687865    0.375099    0.057632
      2          8           0       -1.759661   -0.149371   -0.051207
      3          6           0        0.530613   -0.474855    0.033456
      4          6           0        1.756679    0.143562   -0.050457
      5          1           0        0.520464   -1.484100    0.029972
      6          1           0        1.786315    1.223474   -0.211365
      7          1           0        2.737379   -0.392947    0.151460
      8          1           0       -0.563437    1.585708    0.195802
 ---------------------------------------------------------------------

 SCF Done:  E(RB2PLYPD3) =  -191.594285850     A.U. after   13 cycles
 E2(B2PLYPD3) =    -0.2488653572D+00 E(B2PLYPD3) =    -0.19184315120677D+03

 The electronic state is 1-A.
 Alpha  occ. eigenvalues --  -19.73009 -10.72866 -10.66259 -10.64324  -1.20608
 Alpha  occ. eigenvalues --   -0.91745  -0.73780  -0.66824  -0.56397  -0.55521
 Alpha  occ. eigenvalues --   -0.49854  -0.47659  -0.46985  -0.34008  -0.33245
 Alpha virt. eigenvalues --   -0.01908   0.05663   0.06762   0.07660   0.09736
 Alpha virt. eigenvalues --    0.12070   0.13824   0.15607   0.17292   0.19217
 Alpha virt. eigenvalues --    0.19963   0.21252   0.24833   0.26017   0.29038

 Mulliken charges:
               1
     1  C    0.158666
     2  O   -0.328276
     3  C   -0.062221
     4  C   -0.129039
     5  H    0.118219
     6  H    0.079809
     7  H    0.096919
     8  H    0.065923
 Sum of Mulliken charges =   0.00000

 Dipole moment (field-independent basis, Debye):
    X=              3.2283    Y=              0.7614    Z=              0.2183  Tot=              3.3240
 Quadrupole moment (field-independent basis, Debye-Ang):
   XX=            -27.3181   YY=            -21.7503   ZZ=            -25.4279
   XY=             -1.2487   XZ=             -0.1486   YZ=             -0.2758

 Normal termination of Gaussian 09 at Wed Aug 26 12:03:54 2020.
