 Gaussian 09, Revision D.01,
 Gaussian 09:  ES64L-G09RevD.01 24-Apr-2013

 --------------------
 #p B2PLYPD3/Def2QZVP
 --------------------

 --------
 acrolein
 --------
 Symbolic Z-matrix:
 Charge =  0 Multiplicity = 1

                         Standard orientation:
 ---------------------------------------------------------------------
 Center     Atomic      Atomic             Coordinates (Angstroms)
 Number     Number       Type             X           Y           Z
 ---------------------------------------------------------------------
      1          6           0       -0.681781    0.313004    0.053707
      2          8           0       -1.787757   -0.093899   -0.063879
      3          6           0        0.528880   -0.454633    0.107773
      4          6           0        1.778962    0.155680   -0.035755
      5          1           0        0.397875   -1.505741   -0.075464
      6          1           0        1.924509    1.291833   -0.082623
      7          1           0        2.781227   -0.502284   -0.153566
      8          1           0       -0.557916    1.383075    0.068330
 ---------------------------------------------------------------------

 SCF Done:  E(RB2PLYPD3) =  -191.594323015     A.U. after   13 cycles
 E2(B2PLYPD3) =    -0.2483825975D+00 E(B2PLYPD3) =    -0.19184270561231D+03

 The electronic state is 1-A.
 Alpha  occ. eigenvalues --  -19.72286 -10.70345 -10.68881 -10.65144  -1.20889
 Alpha  occ. eigenvalues --   -0.91826  -0.75016  -0.66979  -0.56511  -0.55324
 Alpha  occ. eigenvalues --   -0.49761  -0.47627  -0.46339  -0.34038  -0.33352
 Alpha virt. eigenvalues --   -0.02670   0.05104   0.07104   0.08612   0.09583
 Alpha virt. eigenvalues --    0.11987   0.13542   0.15374   0.18256   0.18880
 Alpha virt. eigenvalues --    0.19827   0.20817   0.24251   0.26693   0.28613

 Mulliken charges:
               1
     1  C    0.158760
     2  O   -0.340169
     3  C   -0.042634
     4  C   -0.126601
     5  H    0.109227
     6  H    0.093471
     7  H    0.096785
     8  H    0.051160
 Sum of Mulliken charges =   0.00000

 Dipole moment (field-independent basis, Debye):
    X=              3.5699    Y=              0.6738    Z=             -0.0591  Tot=              3.6334
 Quadrupole moment (field-independent basis, Debye-Ang):
   XX=            -27.0830   YY=            -21.9544   ZZ=            -25.4494
   XY=             -0.6553   XZ=             -0.9041   YZ=              0.1549

 Normal termination of Gaussian 09 at Wed Aug 26 10:50:46 2020.
