 Gaussian 09, Revision D.01,
 Gaussian 09:  ES64L-G09RevD.01 24-Apr-2013

 --------------------
 #p B2PLYPD3/Def2QZVP
 --------------------

 --------
 acrolein
 --------
 Symbolic Z-matrix:
 Charge =  0 Multiplicity = 1

                         Standard orientation:
 ---------------------------------------------------------------------
 Center     Atomic      Atomic             Coordinates (Angstroms)
 Number     Number       Type             X           Y           Z
 ---------------------------------------------------------------------
      1          6           0       -0.657586    0.337237   -0.014060
      2          8           0       -1.792756   -0.111356    0.014784
      3          6           0        0.562084   -0.453158   -0.026714
      4          6           0        1.748683    0.146905    0.005166
      5          1           0        0.426689   -1.540370    0.023326
      6          1           0        1.841443    1.249984    0.021367
      7          1           0        2.681255   -0.436489    0.052948
      8          1           0       -0.526425    1.431822   -0.002259
 ---------------------------------------------------------------------

 SCF Done:  E(RB2PLYPD3) =  -191.615035491     A.U. after   13 cycles
 E2(B2PLYPD3) =    -0.2477922315D+00 E(B2PLYPD3) =    -0.19186282772286D+03

 The electronic state is 1-A.
 Alpha  occ. eigenvalues --  -19.72619 -10.71388 -10.66140 -10.64620  -1.18777
 Alpha  occ. eigenvalues --   -0.93313  -0.75491  -0.66773  -0.56456  -0.56212
 Alpha  occ. eigenvalues --   -0.50186  -0.46741  -0.46435  -0.34823  -0.33767
 Alpha virt. eigenvalues --   -0.01971   0.05631   0.06980   0.08251   0.09708
 Alpha virt. eigenvalues --    0.12454   0.13911   0.15281   0.17418   0.19625
 Alpha virt. eigenvalues --    0.19970   0.21494   0.25377   0.26496   0.28845

 Mulliken charges:
               1
     1  C    0.156020
     2  O   -0.357043
     3  C   -0.034603
     4  C   -0.126615
     5  H    0.105383
     6  H    0.087978
     7  H    0.102246
     8  H    0.066633
 Sum of Mulliken charges =   0.00000

 Dipole moment (field-independent basis, Debye):
    X=              3.6184    Y=              0.7198    Z=              0.0358  Tot=              3.6894
 Quadrupole moment (field-independent basis, Debye-Ang):
   XX=            -27.5690   YY=            -21.7004   ZZ=            -25.2549
   XY=             -0.8509   XZ=              0.2522   YZ=             -0.0501

 Normal termination of Gaussian 09 at Wed Aug 26 15:07:34 2020.
