 Gaussian 09, Revision D.01,
 Gaussian 09:  ES64L-G09RevD.01 24-Apr-2013

 --------------------
 #p B2PLYPD3/Def2QZVP
 --------------------

 --------
 acrolein
 --------
 Symbolic Z-matrix:
 Charge =  0 Multiplicity = 1

                         Standard orientation:
 ---------------------------------------------------------------------
 Center     Atomic      Atomic             Coordinates (Angstroms)
 Number     Number       Type             X           Y           Z
 ---------------------------------------------------------------------
      1          6           0       -0.686088    0.355847    0.048971
      2          8           0       -1.769872   -0.129694   -0.034891
      3          6           0        0.547562   -0.428975    0.024059
      4          6           0        1.764098    0.133601   -0.030167
      5          1           0        0.421233   -1.556821    0.026313
      6          1           0        1.824610    1.229017   -0.038460
      7          1           0        2.742100   -0.414818    0.008056
      8          1           0       -0.582401    1.417337    0.026050
 ---------------------------------------------------------------------

 SCF Done:  E(RB2PLYPD3) =  -191.611540572     A.U. after   12 cycles
 E2(B2PLYPD3) =    -0.2465706557D+00 E(B2PLYPD3) =    -0.19185811122727D+03

 The electronic state is 1-A.
 Alpha  occ. eigenvalues --  -19.72645 -10.70882 -10.66024 -10.64797  -1.20798
 Alpha  occ. eigenvalues --   -0.92367  -0.75223  -0.66900  -0.56899  -0.55919
 Alpha  occ. eigenvalues --   -0.50790  -0.47463  -0.45632  -0.34530  -0.33848
 Alpha virt. eigenvalues --   -0.01646   0.05699   0.07092   0.08437   0.09714
 Alpha virt. eigenvalues --    0.12313   0.14256   0.15469   0.17409   0.19625
 Alpha virt. eigenvalues --    0.19835   0.21293   0.25592   0.26485   0.29136

 Mulliken charges:
               1
     1  C    0.157929
     2  O   -0.337597
     3  C   -0.043513
     4  C   -0.130503
     5  H    0.099002
     6  H    0.077376
     7  H    0.104750
     8  H    0.072557
 Sum of Mulliken charges =   0.00000

 Dipole moment (field-independent basis, Debye):
    X=              3.3223    Y=              0.8339    Z=              0.1401  Tot=              3.4282
 Quadrupole moment (field-independent basis, Debye-Ang):
   XX=            -27.0920   YY=            -21.8548   ZZ=            -25.2672
   XY=             -1.1067   XZ=             -0.1856   YZ=             -0.0659

 Normal termination of Gaussian 09 at Wed Aug 26 08:59:20 2020.
