 Gaussian 09, Revision D.01,
 Gaussian 09:  ES64L-G09RevD.01 24-Apr-2013

 --------------------
 #p B2PLYPD3/Def2QZVP
 --------------------

 --------
 acrolein
 --------
 Symbolic Z-matrix:
 Charge =  0 Multiplicity = 1

                         Standard orientation:
 ---------------------------------------------------------------------
 Center     Atomic      Atomic             Coordinates (Angstroms)
 Number     Number       Type             X           Y           Z
 ---------------------------------------------------------------------
      1          6           0       -0.681009    0.354619    0.021537
      2          8           0       -1.781147   -0.129541   -0.022828
      3          6           0        0.561880   -0.439185    0.003084
      4          6           0        1.760982    0.139163   -0.001880
      5          1           0        0.425762   -1.548772    0.070984
      6          1           0        1.816087    1.207468   -0.064858
      7          1           0        2.692181   -0.420447   -0.036795
      8          1           0       -0.535979    1.470495    0.076841
 ---------------------------------------------------------------------

 SCF Done:  E(RB2PLYPD3) =  -191.615537987     A.U. after   12 cycles
 E2(B2PLYPD3) =    -0.2470553487D+00 E(B2PLYPD3) =    -0.19186259333557D+03

 The electronic state is 1-A.
 Alpha  occ. eigenvalues --  -19.72944 -10.71791 -10.65296 -10.64694  -1.20120
 Alpha  occ. eigenvalues --   -0.92786  -0.75233  -0.66350  -0.56539  -0.56353
 Alpha  occ. eigenvalues --   -0.50779  -0.47144  -0.46313  -0.34721  -0.33846
 Alpha virt. eigenvalues --   -0.01614   0.05813   0.07011   0.08230   0.09776
 Alpha virt. eigenvalues --    0.12502   0.13977   0.15305   0.17280   0.19703
 Alpha virt. eigenvalues --    0.20052   0.21622   0.25386   0.26458   0.28863

 Mulliken charges:
               1
     1  C    0.157375
     2  O   -0.340741
     3  C   -0.039128
     4  C   -0.130975
     5  H    0.100429
     6  H    0.082592
     7  H    0.104960
     8  H    0.065488
 Sum of Mulliken charges =   0.00000

 Dipole moment (field-independent basis, Debye):
    X=              3.3810    Y=              0.7707    Z=              0.0743  Tot=              3.4685
 Quadrupole moment (field-independent basis, Debye-Ang):
   XX=            -27.2961   YY=            -21.8456   ZZ=            -25.2485
   XY=             -1.0017   XZ=             -0.2697   YZ=             -0.1348

 Normal termination of Gaussian 09 at Wed Aug 26 19:55:06 2020.
