 Gaussian 09, Revision D.01,
 Gaussian 09:  ES64L-G09RevD.01 24-Apr-2013

 --------------------
 #p B2PLYPD3/Def2QZVP
 --------------------

 --------
 acrolein
 --------
 Symbolic Z-matrix:
 Charge =  0 Multiplicity = 1

                         Standard orientation:
 ---------------------------------------------------------------------
 Center     Atomic      Atomic             Coordinates (Angstroms)
 Number     Number       Type             X           Y           Z
 ---------------------------------------------------------------------
      1          6           0        0.668780    0.337534    0.001376
      2          8           0        1.795437   -0.112628    0.010997
      3          6           0       -0.562164   -0.456582   -0.029618
      4          6           0       -1.759025    0.145620    0.008213
      5          1           0       -0.449128   -1.506210   -0.001039
      6          1           0       -1.817527    1.229803   -0.014701
      7          1           0       -2.669925   -0.418875    0.071971
      8          1           0        0.487538    1.436868   -0.024033
 ---------------------------------------------------------------------

 SCF Done:  E(RB2PLYPD3) =  -191.616097679     A.U. after   12 cycles
 E2(B2PLYPD3) =    -0.2473818448D+00 E(B2PLYPD3) =    -0.19186347952375D+03

 The electronic state is 1-A.
 Alpha  occ. eigenvalues --  -19.72843 -10.71621 -10.65678 -10.64253  -1.19334
 Alpha  occ. eigenvalues --   -0.93132  -0.75629  -0.67193  -0.56650  -0.56254
 Alpha  occ. eigenvalues --   -0.50580  -0.47450  -0.46696  -0.34639  -0.33809
 Alpha virt. eigenvalues --   -0.01959   0.05753   0.07232   0.08195   0.09750
 Alpha virt. eigenvalues --    0.12625   0.13879   0.15324   0.17603   0.19795
 Alpha virt. eigenvalues --    0.19955   0.21557   0.25308   0.26492   0.28798

 Mulliken charges:
               1
     1  C    0.156414
     2  O   -0.350404
     3  C   -0.034830
     4  C   -0.131727
     5  H    0.105947
     6  H    0.086685
     7  H    0.104250
     8  H    0.063666
 Sum of Mulliken charges =   0.00000

 Dipole moment (field-independent basis, Debye):
    X=             -3.5596    Y=              0.6922    Z=              0.0217  Tot=              3.6263
 Quadrupole moment (field-independent basis, Debye-Ang):
   XX=            -27.4530   YY=            -21.8042   ZZ=            -25.2040
   XY=              0.8659   XZ=             -0.2237   YZ=             -0.0850

 Normal termination of Gaussian 09 at Wed Aug 26 18:42:58 2020.
