 Gaussian 09, Revision D.01,
 Gaussian 09:  ES64L-G09RevD.01 24-Apr-2013

 --------------------
 #p B2PLYPD3/Def2QZVP
 --------------------

 --------
 acrolein
 --------
 Symbolic Z-matrix:
 Charge =  0 Multiplicity = 1

                         Standard orientation:
 ---------------------------------------------------------------------
 Center     Atomic      Atomic             Coordinates (Angstroms)
 Number     Number       Type             X           Y           Z
 ---------------------------------------------------------------------
      1          6           0        0.669906    0.347975    0.011578
      2          8           0        1.784476   -0.124672   -0.009962
      3          6           0       -0.554723   -0.442377    0.008232
      4          6           0       -1.740794    0.142519   -0.015232
      5          1           0       -0.443533   -1.493981    0.002862
      6          1           0       -1.815214    1.186226   -0.030053
      7          1           0       -2.752905   -0.428819    0.039532
      8          1           0        0.489508    1.445251    0.039887
 ---------------------------------------------------------------------

 SCF Done:  E(RB2PLYPD3) =  -191.611536799     A.U. after   12 cycles
 E2(B2PLYPD3) =    -0.2471089049D+00 E(B2PLYPD3) =    -0.19185864570359D+03

 The electronic state is 1-A.
 Alpha  occ. eigenvalues --  -19.72872 -10.71587 -10.65782 -10.63903  -1.19563
 Alpha  occ. eigenvalues --   -0.93469  -0.75272  -0.67487  -0.56894  -0.55903
 Alpha  occ. eigenvalues --   -0.50506  -0.46940  -0.46656  -0.34893  -0.33901
 Alpha virt. eigenvalues --   -0.01740   0.05605   0.07168   0.08291   0.09747
 Alpha virt. eigenvalues --    0.12466   0.13941   0.15340   0.17654   0.19803
 Alpha virt. eigenvalues --    0.20073   0.21226   0.25658   0.26355   0.28803

 Mulliken charges:
               1
     1  C    0.151541
     2  O   -0.349448
     3  C   -0.029485
     4  C   -0.129876
     5  H    0.108327
     6  H    0.086164
     7  H    0.095044
     8  H    0.067732
 Sum of Mulliken charges =   0.00000

 Dipole moment (field-independent basis, Debye):
    X=             -3.4918    Y=              0.7671    Z=              0.0590  Tot=              3.5756
 Quadrupole moment (field-independent basis, Debye-Ang):
   XX=            -27.3530   YY=            -21.8827   ZZ=            -25.1686
   XY=              0.8804   XZ=             -0.0072   YZ=             -0.0412

 Normal termination of Gaussian 09 at Wed Aug 26 15:29:07 2020.
