 Gaussian 09, Revision D.01,
 Gaussian 09:  ES64L-G09RevD.01 24-Apr-2013

 --------------------
 #p B2PLYPD3/Def2QZVP
 --------------------

 --------
 acrolein
 --------
 Symbolic Z-matrix:
 Charge =  0 Multiplicity = 1

                         Standard orientation:
 ---------------------------------------------------------------------
 Center     Atomic      Atomic             Coordinates (Angstroms)
 Number     Number       Type             X           Y           Z
 ---------------------------------------------------------------------
      1          6           0        0.655608    0.343078    0.038359
      2          8           0        1.796370   -0.110206   -0.032025
      3          6           0       -0.577475   -0.463551    0.026517
      4          6           0       -1.745134    0.142509   -0.033548
      5          1           0       -0.451370   -1.608569    0.039018
      6          1           0       -1.844077    1.290784   -0.013064
      7          1           0       -2.587341   -0.395378   -0.007010
      8          1           0        0.513835    1.462596    0.049292
 ---------------------------------------------------------------------

 SCF Done:  E(RB2PLYPD3) =  -191.603482987     A.U. after   12 cycles
 E2(B2PLYPD3) =    -0.2483811998D+00 E(B2PLYPD3) =    -0.19185186418687D+03

 The electronic state is 1-A.
 Alpha  occ. eigenvalues --  -19.72828 -10.72034 -10.65231 -10.65089  -1.18344
 Alpha  occ. eigenvalues --   -0.93463  -0.75788  -0.65761  -0.57134  -0.55658
 Alpha  occ. eigenvalues --   -0.50316  -0.46288  -0.46097  -0.35046  -0.33795
 Alpha virt. eigenvalues --   -0.01791   0.05650   0.06701   0.07998   0.09644
 Alpha virt. eigenvalues --    0.12428   0.14136   0.15264   0.16839   0.19573
 Alpha virt. eigenvalues --    0.19978   0.22085   0.25318   0.26317   0.28751

 Mulliken charges:
               1
     1  C    0.160150
     2  O   -0.355384
     3  C   -0.038859
     4  C   -0.120940
     5  H    0.097959
     6  H    0.081704
     7  H    0.107236
     8  H    0.068134
 Sum of Mulliken charges =   0.00000

 Dipole moment (field-independent basis, Debye):
    X=             -3.5966    Y=              0.6996    Z=              0.1485  Tot=              3.6670
 Quadrupole moment (field-independent basis, Debye-Ang):
   XX=            -27.7510   YY=            -21.5440   ZZ=            -25.2946
   XY=              0.8518   XZ=              0.1661   YZ=             -0.0341

 Normal termination of Gaussian 09 at Wed Aug 26 10:17:12 2020.
