 Gaussian 09, Revision D.01,
 Gaussian 09:  ES64L-G09RevD.01 24-Apr-2013

 --------------------
 #p B2PLYPD3/Def2QZVP
 --------------------

 --------
 acrolein
 --------
 Symbolic Z-matrix:
 Charge =  0 Multiplicity = 1

                         Standard orientation:
 ---------------------------------------------------------------------
 Center     Atomic      Atomic             Coordinates (Angstroms)
 Number     Number       Type             X           Y           Z
 ---------------------------------------------------------------------
      1          6           0       -0.661063    0.360141   -0.004466
      2          8           0       -1.790008   -0.155308    0.048460
      3          6           0        0.547138   -0.397116   -0.095357
      4          6           0        1.752772    0.091267    0.019473
      5          1           0        0.497269   -1.457740   -0.070497
      6          1           0        1.802459    1.193566    0.066994
      7          1           0        2.608618   -0.455647    0.244243
      8          1           0       -0.421365    1.636534   -0.146317
 ---------------------------------------------------------------------

 SCF Done:  E(RB2PLYPD3) =  -191.586050032     A.U. after   13 cycles
 E2(B2PLYPD3) =    -0.2508187660D+00 E(B2PLYPD3) =    -0.19183686879752D+03

 The electronic state is 1-A.
 Alpha  occ. eigenvalues --  -19.73806 -10.73984 -10.65248 -10.63821  -1.18339
 Alpha  occ. eigenvalues --   -0.94553  -0.76387  -0.65555  -0.57929  -0.54995
 Alpha  occ. eigenvalues --   -0.50481  -0.46822  -0.45503  -0.35317  -0.33996
 Alpha virt. eigenvalues --   -0.02749   0.05530   0.06389   0.08164   0.09816
 Alpha virt. eigenvalues --    0.12351   0.13370   0.15152   0.17240   0.19093
 Alpha virt. eigenvalues --    0.19897   0.21885   0.24991   0.26064   0.28261

 Mulliken charges:
               1
     1  C    0.167485
     2  O   -0.348295
     3  C   -0.017385
     4  C   -0.102892
     5  H    0.096335
     6  H    0.066951
     7  H    0.107831
     8  H    0.029970
 Sum of Mulliken charges =   0.00000

 Dipole moment (field-independent basis, Debye):
    X=              3.6639    Y=              0.5517    Z=              0.0661  Tot=              3.7058
 Quadrupole moment (field-independent basis, Debye-Ang):
   XX=            -27.2580   YY=            -22.3899   ZZ=            -25.1792
   XY=             -1.2090   XZ=              0.9031   YZ=             -0.1115

 Normal termination of Gaussian 09 at Wed Aug 26 10:59:15 2020.
