 Gaussian 09, Revision D.01,
 Gaussian 09:  ES64L-G09RevD.01 24-Apr-2013

 --------------------
 #p B2PLYPD3/Def2QZVP
 --------------------

 --------
 acrolein
 --------
 Symbolic Z-matrix:
 Charge =  0 Multiplicity = 1

                         Standard orientation:
 ---------------------------------------------------------------------
 Center     Atomic      Atomic             Coordinates (Angstroms)
 Number     Number       Type             X           Y           Z
 ---------------------------------------------------------------------
      1          6           0       -0.670143    0.347986   -0.041986
      2          8           0       -1.783156   -0.141348    0.060266
      3          6           0        0.534777   -0.386519   -0.061833
      4          6           0        1.777414    0.106969    0.012148
      5          1           0        0.444615   -1.488543   -0.138180
      6          1           0        1.792923    1.110837    0.040416
      7          1           0        2.689699   -0.400415    0.260272
      8          1           0       -0.514282    1.498289   -0.094608
 ---------------------------------------------------------------------

 SCF Done:  E(RB2PLYPD3) =  -191.600110959     A.U. after   13 cycles
 E2(B2PLYPD3) =    -0.2484728722D+00 E(B2PLYPD3) =    -0.19184858383144D+03

 The electronic state is 1-A.
 Alpha  occ. eigenvalues --  -19.73071 -10.72050 -10.65056 -10.64445  -1.19209
 Alpha  occ. eigenvalues --   -0.93947  -0.77274  -0.66410  -0.57346  -0.56705
 Alpha  occ. eigenvalues --   -0.51201  -0.47295  -0.45399  -0.34672  -0.34054
 Alpha virt. eigenvalues --   -0.02887   0.05772   0.07004   0.08696   0.09841
 Alpha virt. eigenvalues --    0.12510   0.14108   0.15214   0.17285   0.18970
 Alpha virt. eigenvalues --    0.20241   0.22127   0.25387   0.26164   0.28889

 Mulliken charges:
               1
     1  C    0.147442
     2  O   -0.347899
     3  C   -0.008462
     4  C   -0.120714
     5  H    0.093742
     6  H    0.075062
     7  H    0.109091
     8  H    0.051738
 Sum of Mulliken charges =   0.00000

 Dipole moment (field-independent basis, Debye):
    X=              3.6399    Y=              0.7533    Z=             -0.0553  Tot=              3.7174
 Quadrupole moment (field-independent basis, Debye-Ang):
   XX=            -26.8831   YY=            -22.3394   ZZ=            -25.0430
   XY=             -1.1341   XZ=              0.9595   YZ=              0.0279

 Normal termination of Gaussian 09 at Wed Aug 26 14:50:35 2020.
