 Gaussian 09, Revision D.01,
 Gaussian 09:  ES64L-G09RevD.01 24-Apr-2013

 --------------------
 #p B2PLYPD3/Def2QZVP
 --------------------

 --------
 acrolein
 --------
 Symbolic Z-matrix:
 Charge =  0 Multiplicity = 1

                         Standard orientation:
 ---------------------------------------------------------------------
 Center     Atomic      Atomic             Coordinates (Angstroms)
 Number     Number       Type             X           Y           Z
 ---------------------------------------------------------------------
      1          6           0       -0.663137   -0.340338    0.010489
      2          8           0       -1.801006    0.098295   -0.031252
      3          6           0        0.566854    0.453297    0.078176
      4          6           0        1.746898   -0.155625   -0.044457
      5          1           0        0.368590    1.683431   -0.014069
      6          1           0        1.850172   -1.159582    0.061232
      7          1           0        2.696574    0.400058   -0.110122
      8          1           0       -0.410981   -1.454269    0.047719
 ---------------------------------------------------------------------

 SCF Done:  E(RB2PLYPD3) =  -191.593782728     A.U. after   13 cycles
 E2(B2PLYPD3) =    -0.2492725833D+00 E(B2PLYPD3) =    -0.19184305531162D+03

 The electronic state is 1-A.
 Alpha  occ. eigenvalues --  -19.73152 -10.72216 -10.66168 -10.65427  -1.19043
 Alpha  occ. eigenvalues --   -0.93311  -0.75965  -0.65536  -0.56823  -0.55810
 Alpha  occ. eigenvalues --   -0.50267  -0.46664  -0.45350  -0.34925  -0.33850
 Alpha virt. eigenvalues --   -0.02176   0.05733   0.06209   0.07887   0.09706
 Alpha virt. eigenvalues --    0.12689   0.13767   0.15067   0.16312   0.19876
 Alpha virt. eigenvalues --    0.20274   0.22147   0.24452   0.26345   0.28161

 Mulliken charges:
               1
     1  C    0.165230
     2  O   -0.349217
     3  C   -0.028915
     4  C   -0.121984
     5  H    0.089685
     6  H    0.090662
     7  H    0.100513
     8  H    0.054026
 Sum of Mulliken charges =   0.00000

 Dipole moment (field-independent basis, Debye):
    X=              3.6189    Y=             -0.7295    Z=              0.0424  Tot=              3.6920
 Quadrupole moment (field-independent basis, Debye-Ang):
   XX=            -27.4010   YY=            -21.9577   ZZ=            -25.3576
   XY=              0.3716   XZ=             -0.3323   YZ=             -0.2238

 Normal termination of Gaussian 09 at Wed Aug 26 13:54:05 2020.
