 Gaussian 09, Revision D.01,
 Gaussian 09:  ES64L-G09RevD.01 24-Apr-2013

 --------------------
 #p B2PLYPD3/Def2QZVP
 --------------------

 --------
 acrolein
 --------
 Symbolic Z-matrix:
 Charge =  0 Multiplicity = 1

                         Standard orientation:
 ---------------------------------------------------------------------
 Center     Atomic      Atomic             Coordinates (Angstroms)
 Number     Number       Type             X           Y           Z
 ---------------------------------------------------------------------
      1          6           0        0.666371    0.342579    0.025953
      2          8           0        1.802580   -0.115112   -0.024416
      3          6           0       -0.570972   -0.463828    0.007316
      4          6           0       -1.748602    0.150127   -0.023718
      5          1           0       -0.459115   -1.522950    0.077411
      6          1           0       -1.822001    1.243481   -0.018771
      7          1           0       -2.710954   -0.418175    0.004082
      8          1           0        0.490646    1.445271    0.075305
 ---------------------------------------------------------------------

 SCF Done:  E(RB2PLYPD3) =  -191.614248251     A.U. after   12 cycles
 E2(B2PLYPD3) =    -0.2481573940D+00 E(B2PLYPD3) =    -0.19186240564460D+03

 The electronic state is 1-A.
 Alpha  occ. eigenvalues --  -19.72934 -10.71993 -10.66015 -10.64457  -1.18617
 Alpha  occ. eigenvalues --   -0.93169  -0.75046  -0.67065  -0.56179  -0.56098
 Alpha  occ. eigenvalues --   -0.50411  -0.46910  -0.46202  -0.34836  -0.33863
 Alpha virt. eigenvalues --   -0.01859   0.05623   0.07029   0.07953   0.09680
 Alpha virt. eigenvalues --    0.12478   0.13879   0.15259   0.17546   0.19669
 Alpha virt. eigenvalues --    0.20007   0.21296   0.25290   0.26511   0.28836

 Mulliken charges:
               1
     1  C    0.155546
     2  O   -0.354965
     3  C   -0.036426
     4  C   -0.126633
     5  H    0.108103
     6  H    0.085553
     7  H    0.098680
     8  H    0.070141
 Sum of Mulliken charges =   0.00000

 Dipole moment (field-independent basis, Debye):
    X=             -3.5770    Y=              0.7313    Z=              0.1690  Tot=              3.6549
 Quadrupole moment (field-independent basis, Debye-Ang):
   XX=            -27.6446   YY=            -21.7221   ZZ=            -25.2862
   XY=              0.8497   XZ=              0.0880   YZ=             -0.1045

 Normal termination of Gaussian 09 at Wed Aug 26 15:35:12 2020.
