 Gaussian 09, Revision D.01,
 Gaussian 09:  ES64L-G09RevD.01 24-Apr-2013

 --------------------
 #p B2PLYPD3/Def2QZVP
 --------------------

 --------
 acrolein
 --------
 Symbolic Z-matrix:
 Charge =  0 Multiplicity = 1

                         Standard orientation:
 ---------------------------------------------------------------------
 Center     Atomic      Atomic             Coordinates (Angstroms)
 Number     Number       Type             X           Y           Z
 ---------------------------------------------------------------------
      1          6           0        0.662949    0.342339    0.021750
      2          8           0        1.793598   -0.111864   -0.017712
      3          6           0       -0.567902   -0.460800    0.010576
      4          6           0       -1.747197    0.151858   -0.013898
      5          1           0       -0.445266   -1.541081    0.040604
      6          1           0       -1.815690    1.198325    0.009685
      7          1           0       -2.662888   -0.396292   -0.032685
      8          1           0        0.487962    1.433581    0.013527
 ---------------------------------------------------------------------

 SCF Done:  E(RB2PLYPD3) =  -191.615996863     A.U. after   12 cycles
 E2(B2PLYPD3) =    -0.2472564768D+00 E(B2PLYPD3) =    -0.19186325334022D+03

 The electronic state is 1-A.
 Alpha  occ. eigenvalues --  -19.72802 -10.71617 -10.65001 -10.64483  -1.18951
 Alpha  occ. eigenvalues --   -0.93379  -0.75745  -0.67206  -0.56660  -0.56587
 Alpha  occ. eigenvalues --   -0.50489  -0.47399  -0.46466  -0.34784  -0.33819
 Alpha virt. eigenvalues --   -0.01801   0.05807   0.07154   0.08080   0.09758
 Alpha virt. eigenvalues --    0.12748   0.14061   0.15287   0.17327   0.19975
 Alpha virt. eigenvalues --    0.20104   0.21705   0.25417   0.26517   0.28754

 Mulliken charges:
               1
     1  C    0.153646
     2  O   -0.353918
     3  C   -0.031475
     4  C   -0.131508
     5  H    0.104625
     6  H    0.087858
     7  H    0.101363
     8  H    0.069408
 Sum of Mulliken charges =   0.00000

 Dipole moment (field-independent basis, Debye):
    X=             -3.5702    Y=              0.7343    Z=              0.0855  Tot=              3.6460
 Quadrupole moment (field-independent basis, Debye-Ang):
   XX=            -27.5273   YY=            -21.7090   ZZ=            -25.1632
   XY=              0.7926   XZ=              0.1242   YZ=             -0.0213

 Normal termination of Gaussian 09 at Wed Aug 26 15:20:58 2020.
