 Gaussian 09, Revision D.01,
 Gaussian 09:  ES64L-G09RevD.01 24-Apr-2013

 --------------------
 #p B2PLYPD3/Def2QZVP
 --------------------

 --------
 acrolein
 --------
 Symbolic Z-matrix:
 Charge =  0 Multiplicity = 1

                         Standard orientation:
 ---------------------------------------------------------------------
 Center     Atomic      Atomic             Coordinates (Angstroms)
 Number     Number       Type             X           Y           Z
 ---------------------------------------------------------------------
      1          6           0       -0.669046    0.350503    0.012682
      2          8           0       -1.777467   -0.124113   -0.002343
      3          6           0        0.521403   -0.429127    0.003412
      4          6           0        1.756102    0.127114   -0.011181
      5          1           0        0.449019   -1.505769   -0.045510
      6          1           0        1.832552    1.184352   -0.034746
      7          1           0        2.761058   -0.421750    0.074742
      8          1           0       -0.473649    1.445135   -0.005215
 ---------------------------------------------------------------------

 SCF Done:  E(RB2PLYPD3) =  -191.609639039     A.U. after   13 cycles
 E2(B2PLYPD3) =    -0.2477812721D+00 E(B2PLYPD3) =    -0.19185742031155D+03

 The electronic state is 1-A.
 Alpha  occ. eigenvalues --  -19.72701 -10.71259 -10.66433 -10.64278  -1.19835
 Alpha  occ. eigenvalues --   -0.93092  -0.75901  -0.67128  -0.56955  -0.55901
 Alpha  occ. eigenvalues --   -0.50291  -0.47296  -0.46350  -0.34398  -0.33934
 Alpha virt. eigenvalues --   -0.02378   0.05565   0.07117   0.08543   0.09706
 Alpha virt. eigenvalues --    0.12413   0.14092   0.15369   0.17641   0.19762
 Alpha virt. eigenvalues --    0.19906   0.21248   0.25649   0.26249   0.28915

 Mulliken charges:
               1
     1  C    0.148560
     2  O   -0.347123
     3  C   -0.024234
     4  C   -0.130329
     5  H    0.105414
     6  H    0.080048
     7  H    0.101223
     8  H    0.066441
 Sum of Mulliken charges =   0.00000

 Dipole moment (field-independent basis, Debye):
    X=              3.5902    Y=              0.7588    Z=              0.0118  Tot=              3.6695
 Quadrupole moment (field-independent basis, Debye-Ang):
   XX=            -27.0263   YY=            -22.0097   ZZ=            -25.2303
   XY=             -0.9354   XZ=              0.1055   YZ=             -0.0147

 Normal termination of Gaussian 09 at Wed Aug 26 08:46:54 2020.
