 Gaussian 09, Revision D.01,
 Gaussian 09:  ES64L-G09RevD.01 24-Apr-2013

 --------------------
 #p B2PLYPD3/Def2QZVP
 --------------------

 --------
 acrolein
 --------
 Symbolic Z-matrix:
 Charge =  0 Multiplicity = 1

                         Standard orientation:
 ---------------------------------------------------------------------
 Center     Atomic      Atomic             Coordinates (Angstroms)
 Number     Number       Type             X           Y           Z
 ---------------------------------------------------------------------
      1          6           0       -0.661222    0.359712   -0.076556
      2          8           0       -1.784902   -0.143646    0.077615
      3          6           0        0.571957   -0.442578   -0.094962
      4          6           0        1.722675    0.155133    0.009842
      5          1           0        0.508329   -1.538306   -0.023177
      6          1           0        1.731453    1.147658    0.110003
      7          1           0        2.790934   -0.389863    0.297591
      8          1           0       -0.551961    1.496075   -0.035286
 ---------------------------------------------------------------------

 SCF Done:  E(RB2PLYPD3) =  -191.589832569     A.U. after   12 cycles
 E2(B2PLYPD3) =    -0.2492410125D+00 E(B2PLYPD3) =    -0.19183907358106D+03

 The electronic state is 1-A.
 Alpha  occ. eigenvalues --  -19.73020 -10.72668 -10.65457 -10.64542  -1.17934
 Alpha  occ. eigenvalues --   -0.94113  -0.74697  -0.67281  -0.57063  -0.55179
 Alpha  occ. eigenvalues --   -0.49754  -0.46141  -0.45712  -0.35229  -0.34051
 Alpha virt. eigenvalues --   -0.01850   0.05295   0.06649   0.07620   0.09707
 Alpha virt. eigenvalues --    0.12169   0.14037   0.15241   0.17313   0.19122
 Alpha virt. eigenvalues --    0.20477   0.21451   0.24708   0.26151   0.28526

 Mulliken charges:
               1
     1  C    0.147163
     2  O   -0.359293
     3  C   -0.028266
     4  C   -0.111995
     5  H    0.109267
     6  H    0.082974
     7  H    0.084424
     8  H    0.075727
 Sum of Mulliken charges =   0.00000

 Dipole moment (field-independent basis, Debye):
    X=              3.4722    Y=              0.8733    Z=              0.0453  Tot=              3.5807
 Quadrupole moment (field-independent basis, Debye-Ang):
   XX=            -27.8142   YY=            -21.7838   ZZ=            -25.1921
   XY=             -1.1860   XZ=              1.2269   YZ=             -0.0292

 Normal termination of Gaussian 09 at Wed Aug 26 14:49:39 2020.
