 Gaussian 09, Revision D.01,
 Gaussian 09:  ES64L-G09RevD.01 24-Apr-2013

 --------------------
 #p B2PLYPD3/Def2QZVP
 --------------------

 --------
 acrolein
 --------
 Symbolic Z-matrix:
 Charge =  0 Multiplicity = 1

                         Standard orientation:
 ---------------------------------------------------------------------
 Center     Atomic      Atomic             Coordinates (Angstroms)
 Number     Number       Type             X           Y           Z
 ---------------------------------------------------------------------
      1          6           0       -0.676354    0.326757    0.014308
      2          8           0       -1.792541   -0.105071   -0.035939
      3          6           0        0.554610   -0.470446    0.059535
      4          6           0        1.757994    0.151079   -0.042469
      5          1           0        0.448582   -1.480387    0.058324
      6          1           0        1.833205    1.266057    0.048859
      7          1           0        2.753205   -0.412851   -0.100218
      8          1           0       -0.512163    1.423408    0.092308
 ---------------------------------------------------------------------

 SCF Done:  E(RB2PLYPD3) =  -191.607987623     A.U. after   13 cycles
 E2(B2PLYPD3) =    -0.2474282588D+00 E(B2PLYPD3) =    -0.19185541588210D+03

 The electronic state is 1-A.
 Alpha  occ. eigenvalues --  -19.72719 -10.71349 -10.67049 -10.64213  -1.20239
 Alpha  occ. eigenvalues --   -0.92586  -0.74817  -0.67565  -0.56212  -0.56078
 Alpha  occ. eigenvalues --   -0.50625  -0.47320  -0.46855  -0.34406  -0.33641
 Alpha virt. eigenvalues --   -0.01946   0.05538   0.07257   0.08274   0.09620
 Alpha virt. eigenvalues --    0.12326   0.13884   0.15340   0.17941   0.19603
 Alpha virt. eigenvalues --    0.19922   0.20979   0.24882   0.26361   0.28774

 Mulliken charges:
               1
     1  C    0.157813
     2  O   -0.342401
     3  C   -0.043052
     4  C   -0.126144
     5  H    0.111766
     6  H    0.085571
     7  H    0.096468
     8  H    0.059980
 Sum of Mulliken charges =   0.00000

 Dipole moment (field-independent basis, Debye):
    X=              3.4973    Y=              0.6472    Z=              0.1260  Tot=              3.5589
 Quadrupole moment (field-independent basis, Debye-Ang):
   XX=            -27.2740   YY=            -21.9021   ZZ=            -25.2905
   XY=             -0.7916   XZ=             -0.3358   YZ=              0.0962

 Normal termination of Gaussian 09 at Wed Aug 26 21:02:21 2020.
