 Gaussian 09, Revision D.01,
 Gaussian 09:  ES64L-G09RevD.01 24-Apr-2013

 --------------------
 #p B2PLYPD3/Def2QZVP
 --------------------

 --------
 acrolein
 --------
 Symbolic Z-matrix:
 Charge =  0 Multiplicity = 1

                         Standard orientation:
 ---------------------------------------------------------------------
 Center     Atomic      Atomic             Coordinates (Angstroms)
 Number     Number       Type             X           Y           Z
 ---------------------------------------------------------------------
      1          6           0       -0.659884   -0.350860    0.060282
      2          8           0       -1.810727    0.108721   -0.051967
      3          6           0        0.577601    0.445147    0.032296
      4          6           0        1.774857   -0.152894   -0.046342
      5          1           0        0.387901    1.673045    0.070184
      6          1           0        1.818913   -1.153598   -0.081871
      7          1           0        2.688579    0.348631    0.022717
      8          1           0       -0.565022   -1.386197    0.127294
 ---------------------------------------------------------------------

 SCF Done:  E(RB2PLYPD3) =  -191.591555191     A.U. after   13 cycles
 E2(B2PLYPD3) =    -0.2490990751D+00 E(B2PLYPD3) =    -0.19184065426577D+03

 The electronic state is 1-A.
 Alpha  occ. eigenvalues --  -19.72769 -10.71455 -10.66404 -10.64710  -1.17509
 Alpha  occ. eigenvalues --   -0.93170  -0.76767  -0.67044  -0.57336  -0.56540
 Alpha  occ. eigenvalues --   -0.50314  -0.45849  -0.45371  -0.34628  -0.34028
 Alpha virt. eigenvalues --   -0.02493   0.05795   0.06544   0.07891   0.09590
 Alpha virt. eigenvalues --    0.12661   0.14293   0.15320   0.16539   0.19768
 Alpha virt. eigenvalues --    0.20092   0.22039   0.25089   0.26446   0.29218

 Mulliken charges:
               1
     1  C    0.153689
     2  O   -0.365824
     3  C   -0.033142
     4  C   -0.122932
     5  H    0.092026
     6  H    0.085031
     7  H    0.106107
     8  H    0.085044
 Sum of Mulliken charges =   0.00000

 Dipole moment (field-independent basis, Debye):
    X=              3.6790    Y=             -0.9010    Z=              0.2418  Tot=              3.7955
 Quadrupole moment (field-independent basis, Debye-Ang):
   XX=            -27.5541   YY=            -21.6347   ZZ=            -25.2956
   XY=              0.7523   XZ=             -0.3071   YZ=              0.1264

 Normal termination of Gaussian 09 at Wed Aug 26 14:40:45 2020.
