 Gaussian 09, Revision D.01,
 Gaussian 09:  ES64L-G09RevD.01 24-Apr-2013

 --------------------
 #p B2PLYPD3/Def2QZVP
 --------------------

 --------
 acrolein
 --------
 Symbolic Z-matrix:
 Charge =  0 Multiplicity = 1

                         Standard orientation:
 ---------------------------------------------------------------------
 Center     Atomic      Atomic             Coordinates (Angstroms)
 Number     Number       Type             X           Y           Z
 ---------------------------------------------------------------------
      1          6           0       -0.661140    0.344545   -0.015310
      2          8           0       -1.797066   -0.109397    0.020073
      3          6           0        0.570626   -0.457531   -0.022112
      4          6           0        1.749800    0.142566    0.007344
      5          1           0        0.457114   -1.560604   -0.040773
      6          1           0        1.873303    1.246971   -0.003389
      7          1           0        2.585021   -0.408699    0.091929
      8          1           0       -0.494628    1.420024   -0.027885
 ---------------------------------------------------------------------

 SCF Done:  E(RB2PLYPD3) =  -191.610637032     A.U. after   13 cycles
 E2(B2PLYPD3) =    -0.2473741093D+00 E(B2PLYPD3) =    -0.19185801114123D+03

 The electronic state is 1-A.
 Alpha  occ. eigenvalues --  -19.72753 -10.71495 -10.64878 -10.64625  -1.18626
 Alpha  occ. eigenvalues --   -0.93465  -0.76190  -0.66845  -0.57076  -0.56315
 Alpha  occ. eigenvalues --   -0.50550  -0.47030  -0.46245  -0.34863  -0.33839
 Alpha virt. eigenvalues --   -0.01817   0.05768   0.07081   0.08106   0.09680
 Alpha virt. eigenvalues --    0.12673   0.14156   0.15290   0.17266   0.19699
 Alpha virt. eigenvalues --    0.19981   0.22132   0.25392   0.26567   0.28488

 Mulliken charges:
               1
     1  C    0.156906
     2  O   -0.356666
     3  C   -0.037257
     4  C   -0.127899
     5  H    0.100961
     6  H    0.084341
     7  H    0.104620
     8  H    0.074996
 Sum of Mulliken charges =   0.00000

 Dipole moment (field-independent basis, Debye):
    X=              3.6049    Y=              0.7402    Z=             -0.0318  Tot=              3.6802
 Quadrupole moment (field-independent basis, Debye-Ang):
   XX=            -27.6560   YY=            -21.5849   ZZ=            -25.1551
   XY=             -0.7903   XZ=              0.2997   YZ=             -0.0175

 Normal termination of Gaussian 09 at Wed Aug 26 15:24:43 2020.
