 Gaussian 09, Revision D.01,
 Gaussian 09:  ES64L-G09RevD.01 24-Apr-2013

 --------------------
 #p B2PLYPD3/Def2QZVP
 --------------------

 --------
 acrolein
 --------
 Symbolic Z-matrix:
 Charge =  0 Multiplicity = 1

                         Standard orientation:
 ---------------------------------------------------------------------
 Center     Atomic      Atomic             Coordinates (Angstroms)
 Number     Number       Type             X           Y           Z
 ---------------------------------------------------------------------
      1          6           0        0.669476    0.347420   -0.047246
      2          8           0        1.771313   -0.140600    0.066610
      3          6           0       -0.535635   -0.434097   -0.070140
      4          6           0       -1.742281    0.114599    0.014616
      5          1           0       -0.500566   -1.450455   -0.172151
      6          1           0       -1.782287    1.213329   -0.037135
      7          1           0       -2.727657   -0.388447    0.348902
      8          1           0        0.490644    1.582846   -0.055872
 ---------------------------------------------------------------------

 SCF Done:  E(RB2PLYPD3) =  -191.592844873     A.U. after   13 cycles
 E2(B2PLYPD3) =    -0.2491168377D+00 E(B2PLYPD3) =    -0.19184196171038D+03

 The electronic state is 1-A.
 Alpha  occ. eigenvalues --  -19.73222 -10.72894 -10.66441 -10.63782  -1.19918
 Alpha  occ. eigenvalues --   -0.93678  -0.74952  -0.66477  -0.56356  -0.55871
 Alpha  occ. eigenvalues --   -0.50103  -0.47798  -0.45945  -0.34643  -0.33760
 Alpha virt. eigenvalues --   -0.02214   0.05513   0.06782   0.08126   0.09690
 Alpha virt. eigenvalues --    0.12043   0.13720   0.15079   0.17644   0.19020
 Alpha virt. eigenvalues --    0.19984   0.21416   0.24988   0.26266   0.28896

 Mulliken charges:
               1
     1  C    0.158237
     2  O   -0.338017
     3  C   -0.023695
     4  C   -0.116279
     5  H    0.107865
     6  H    0.071441
     7  H    0.102875
     8  H    0.037572
 Sum of Mulliken charges =   0.00000

 Dipole moment (field-independent basis, Debye):
    X=             -3.4993    Y=              0.5992    Z=             -0.0878  Tot=              3.5513
 Quadrupole moment (field-independent basis, Debye-Ang):
   XX=            -27.0792   YY=            -22.3249   ZZ=            -25.1516
   XY=              1.0805   XZ=             -1.0404   YZ=             -0.0113

 Normal termination of Gaussian 09 at Wed Aug 26 11:12:29 2020.
