 Gaussian 09, Revision D.01,
 Gaussian 09:  ES64L-G09RevD.01 24-Apr-2013

 --------------------
 #p B2PLYPD3/Def2QZVP
 --------------------

 --------
 acrolein
 --------
 Symbolic Z-matrix:
 Charge =  0 Multiplicity = 1

                         Standard orientation:
 ---------------------------------------------------------------------
 Center     Atomic      Atomic             Coordinates (Angstroms)
 Number     Number       Type             X           Y           Z
 ---------------------------------------------------------------------
      1          6           0       -0.635590    0.293371   -0.019094
      2          8           0       -1.807005   -0.081556    0.032362
      3          6           0        0.621622   -0.468781   -0.088114
      4          6           0        1.730089    0.171478    0.009303
      5          1           0        0.414174   -1.538167    0.112159
      6          1           0        1.771471    1.246799    0.058333
      7          1           0        2.518311   -0.371053    0.183933
      8          1           0       -0.544641    1.338455   -0.025885
 ---------------------------------------------------------------------

 SCF Done:  E(RB2PLYPD3) =  -191.591707846     A.U. after   13 cycles
 E2(B2PLYPD3) =    -0.2468345935D+00 E(B2PLYPD3) =    -0.19183854243952D+03

 The electronic state is 1-A.
 Alpha  occ. eigenvalues --  -19.72481 -10.70737 -10.64373 -10.63943  -1.18013
 Alpha  occ. eigenvalues --   -0.95180  -0.76765  -0.67368  -0.58133  -0.56898
 Alpha  occ. eigenvalues --   -0.50475  -0.47280  -0.45921  -0.35825  -0.33309
 Alpha virt. eigenvalues --   -0.01632   0.05926   0.07088   0.08118   0.09742
 Alpha virt. eigenvalues --    0.13088   0.13546   0.15173   0.17510   0.19764
 Alpha virt. eigenvalues --    0.19830   0.22462   0.24637   0.26924   0.28583

 Mulliken charges:
               1
     1  C    0.153754
     2  O   -0.364049
     3  C   -0.030665
     4  C   -0.110918
     5  H    0.096913
     6  H    0.092192
     7  H    0.103835
     8  H    0.058938
 Sum of Mulliken charges =   0.00000

 Dipole moment (field-independent basis, Debye):
    X=              3.7106    Y=              0.6532    Z=              0.2023  Tot=              3.7731
 Quadrupole moment (field-independent basis, Debye-Ang):
   XX=            -27.9739   YY=            -21.7259   ZZ=            -24.8252
   XY=             -0.5961   XZ=              0.7581   YZ=             -0.2326

 Normal termination of Gaussian 09 at Wed Aug 26 11:31:19 2020.
