 Gaussian 09, Revision D.01,
 Gaussian 09:  ES64L-G09RevD.01 24-Apr-2013

 --------------------
 #p B2PLYPD3/Def2QZVP
 --------------------

 --------
 acrolein
 --------
 Symbolic Z-matrix:
 Charge =  0 Multiplicity = 1

                         Standard orientation:
 ---------------------------------------------------------------------
 Center     Atomic      Atomic             Coordinates (Angstroms)
 Number     Number       Type             X           Y           Z
 ---------------------------------------------------------------------
      1          6           0        0.676081    0.356743    0.010168
      2          8           0        1.780949   -0.130536   -0.006329
      3          6           0       -0.556314   -0.443823   -0.011200
      4          6           0       -1.750028    0.144331   -0.006926
      5          1           0       -0.474498   -1.520486    0.051632
      6          1           0       -1.801669    1.170895   -0.006397
      7          1           0       -2.686230   -0.412709    0.023435
      8          1           0        0.496374    1.463082    0.029710
 ---------------------------------------------------------------------

 SCF Done:  E(RB2PLYPD3) =  -191.614712839     A.U. after   12 cycles
 E2(B2PLYPD3) =    -0.2468409048D+00 E(B2PLYPD3) =    -0.19186155374407D+03

 The electronic state is 1-A.
 Alpha  occ. eigenvalues --  -19.72924 -10.71801 -10.64782 -10.64169  -1.19790
 Alpha  occ. eigenvalues --   -0.93180  -0.75482  -0.67185  -0.56870  -0.56410
 Alpha  occ. eigenvalues --   -0.50622  -0.47263  -0.46842  -0.34664  -0.33919
 Alpha virt. eigenvalues --   -0.01642   0.05839   0.07130   0.08181   0.09801
 Alpha virt. eigenvalues --    0.12685   0.14033   0.15336   0.17473   0.19922
 Alpha virt. eigenvalues --    0.20151   0.21618   0.25543   0.26390   0.28823

 Mulliken charges:
               1
     1  C    0.150255
     2  O   -0.343967
     3  C   -0.031865
     4  C   -0.133945
     5  H    0.103640
     6  H    0.084294
     7  H    0.100963
     8  H    0.070625
 Sum of Mulliken charges =   0.00000

 Dipole moment (field-independent basis, Debye):
    X=             -3.4382    Y=              0.7877    Z=              0.0983  Tot=              3.5287
 Quadrupole moment (field-independent basis, Debye-Ang):
   XX=            -27.3396   YY=            -21.7928   ZZ=            -25.1566
   XY=              1.0134   XZ=             -0.0554   YZ=             -0.0895

 Normal termination of Gaussian 09 at Wed Aug 26 19:31:05 2020.
