 Gaussian 09, Revision D.01,
 Gaussian 09:  ES64L-G09RevD.01 24-Apr-2013

 --------------------
 #p B2PLYPD3/Def2QZVP
 --------------------

 --------
 acrolein
 --------
 Symbolic Z-matrix:
 Charge =  0 Multiplicity = 1

                         Standard orientation:
 ---------------------------------------------------------------------
 Center     Atomic      Atomic             Coordinates (Angstroms)
 Number     Number       Type             X           Y           Z
 ---------------------------------------------------------------------
      1          6           0        0.661566    0.344843    0.011978
      2          8           0        1.798844   -0.112508   -0.020747
      3          6           0       -0.570042   -0.463519    0.011492
      4          6           0       -1.748112    0.147010   -0.006356
      5          1           0       -0.458971   -1.578418    0.050342
      6          1           0       -1.847933    1.245146   -0.076959
      7          1           0       -2.626327   -0.408839   -0.019690
      8          1           0        0.482009    1.472167    0.109597
 ---------------------------------------------------------------------

 SCF Done:  E(RB2PLYPD3) =  -191.611840505     A.U. after   13 cycles
 E2(B2PLYPD3) =    -0.2483206565D+00 E(B2PLYPD3) =    -0.19186016116152D+03

 The electronic state is 1-A.
 Alpha  occ. eigenvalues --  -19.72942 -10.72214 -10.65273 -10.64944  -1.18594
 Alpha  occ. eigenvalues --   -0.93253  -0.75559  -0.66076  -0.56734  -0.55923
 Alpha  occ. eigenvalues --   -0.50305  -0.46850  -0.46243  -0.34870  -0.33804
 Alpha virt. eigenvalues --   -0.01870   0.05738   0.06814   0.07931   0.09688
 Alpha virt. eigenvalues --    0.12609   0.13999   0.15247   0.17051   0.19605
 Alpha virt. eigenvalues --    0.20138   0.21814   0.25179   0.26501   0.28554

 Mulliken charges:
               1
     1  C    0.159214
     2  O   -0.353163
     3  C   -0.037741
     4  C   -0.125081
     5  H    0.102123
     6  H    0.085336
     7  H    0.103659
     8  H    0.065653
 Sum of Mulliken charges =   0.00000

 Dipole moment (field-independent basis, Debye):
    X=             -3.5985    Y=              0.6939    Z=              0.0588  Tot=              3.6652
 Quadrupole moment (field-independent basis, Debye-Ang):
   XX=            -27.6521   YY=            -21.6514   ZZ=            -25.2861
   XY=              0.7915   XZ=              0.2524   YZ=             -0.1077

 Normal termination of Gaussian 09 at Wed Aug 26 16:36:39 2020.
