 Gaussian 09, Revision D.01,
 Gaussian 09:  ES64L-G09RevD.01 24-Apr-2013

 --------------------
 #p B2PLYPD3/Def2QZVP
 --------------------

 --------
 acrolein
 --------
 Symbolic Z-matrix:
 Charge =  0 Multiplicity = 1

                         Standard orientation:
 ---------------------------------------------------------------------
 Center     Atomic      Atomic             Coordinates (Angstroms)
 Number     Number       Type             X           Y           Z
 ---------------------------------------------------------------------
      1          6           0       -0.675411    0.360357   -0.017372
      2          8           0       -1.790359   -0.129834    0.025312
      3          6           0        0.561112   -0.453780   -0.030751
      4          6           0        1.755433    0.140495    0.006582
      5          1           0        0.475890   -1.506065   -0.046331
      6          1           0        1.851296    1.218764    0.003642
      7          1           0        2.664299   -0.425515    0.121944
      8          1           0       -0.515415    1.469053   -0.032503
 ---------------------------------------------------------------------

 SCF Done:  E(RB2PLYPD3) =  -191.615556161     A.U. after   12 cycles
 E2(B2PLYPD3) =    -0.2475273903D+00 E(B2PLYPD3) =    -0.19186308355115D+03

 The electronic state is 1-A.
 Alpha  occ. eigenvalues --  -19.72903 -10.72001 -10.65320 -10.64248  -1.19091
 Alpha  occ. eigenvalues --   -0.92915  -0.75228  -0.67234  -0.56489  -0.56332
 Alpha  occ. eigenvalues --   -0.50473  -0.47283  -0.46446  -0.34588  -0.33879
 Alpha virt. eigenvalues --   -0.01753   0.05740   0.07220   0.07922   0.09718
 Alpha virt. eigenvalues --    0.12527   0.13978   0.15363   0.17621   0.19796
 Alpha virt. eigenvalues --    0.19867   0.21612   0.25348   0.26372   0.28701

 Mulliken charges:
               1
     1  C    0.154328
     2  O   -0.350244
     3  C   -0.043304
     4  C   -0.129197
     5  H    0.109833
     6  H    0.082845
     7  H    0.099475
     8  H    0.076263
 Sum of Mulliken charges =   0.00000

 Dipole moment (field-independent basis, Debye):
    X=              3.4830    Y=              0.7931    Z=             -0.0187  Tot=              3.5722
 Quadrupole moment (field-independent basis, Debye-Ang):
   XX=            -27.5401   YY=            -21.6580   ZZ=            -25.2279
   XY=             -0.9993   XZ=              0.4112   YZ=             -0.0260

 Normal termination of Gaussian 09 at Wed Aug 26 14:57:57 2020.
