 Gaussian 09, Revision D.01,
 Gaussian 09:  ES64L-G09RevD.01 24-Apr-2013

 --------------------
 #p B2PLYPD3/Def2QZVP
 --------------------

 --------
 acrolein
 --------
 Symbolic Z-matrix:
 Charge =  0 Multiplicity = 1

                         Standard orientation:
 ---------------------------------------------------------------------
 Center     Atomic      Atomic             Coordinates (Angstroms)
 Number     Number       Type             X           Y           Z
 ---------------------------------------------------------------------
      1          6           0        0.698201    0.360956   -0.062998
      2          8           0        1.790057   -0.104554    0.045309
      3          6           0       -0.591127   -0.470889   -0.063024
      4          6           0       -1.778951    0.129153    0.046671
      5          1           0       -0.365444   -1.598255   -0.003353
      6          1           0       -1.909743    1.313640   -0.081291
      7          1           0       -2.527982   -0.362032    0.121201
      8          1           0        0.513973    1.367757    0.077070
 ---------------------------------------------------------------------

 SCF Done:  E(RB2PLYPD3) =  -191.567168778     A.U. after   13 cycles
 E2(B2PLYPD3) =    -0.2466446626D+00 E(B2PLYPD3) =    -0.19181381344072D+03

 The electronic state is 1-A.
 Alpha  occ. eigenvalues --  -19.73110 -10.71066 -10.65308 -10.64279  -1.20812
 Alpha  occ. eigenvalues --   -0.92333  -0.76477  -0.67116  -0.57956  -0.55067
 Alpha  occ. eigenvalues --   -0.51984  -0.47148  -0.45887  -0.34620  -0.33628
 Alpha virt. eigenvalues --   -0.01179   0.05682   0.07397   0.07498   0.09597
 Alpha virt. eigenvalues --    0.12440   0.14245   0.15389   0.17230   0.19277
 Alpha virt. eigenvalues --    0.19962   0.22841   0.24245   0.27245   0.28122

 Mulliken charges:
               1
     1  C    0.178229
     2  O   -0.337447
     3  C   -0.066430
     4  C   -0.155729
     5  H    0.097576
     6  H    0.077095
     7  H    0.126983
     8  H    0.079722
 Sum of Mulliken charges =   0.00000

 Dipole moment (field-independent basis, Debye):
    X=             -3.1701    Y=              0.7843    Z=             -0.0998  Tot=              3.2672
 Quadrupole moment (field-independent basis, Debye-Ang):
   XX=            -27.5256   YY=            -21.5965   ZZ=            -25.1666
   XY=              0.6691   XZ=             -0.4004   YZ=             -0.1968

 Normal termination of Gaussian 09 at Wed Aug 26 11:32:18 2020.
