 Gaussian 09, Revision D.01,
 Gaussian 09:  ES64L-G09RevD.01 24-Apr-2013

 --------------------
 #p B2PLYPD3/Def2QZVP
 --------------------

 --------
 acrolein
 --------
 Symbolic Z-matrix:
 Charge =  0 Multiplicity = 1

                         Standard orientation:
 ---------------------------------------------------------------------
 Center     Atomic      Atomic             Coordinates (Angstroms)
 Number     Number       Type             X           Y           Z
 ---------------------------------------------------------------------
      1          6           0       -0.673630    0.342096    0.019076
      2          8           0       -1.779901   -0.126533   -0.019773
      3          6           0        0.544756   -0.432658    0.033242
      4          6           0        1.754258    0.142040   -0.019937
      5          1           0        0.465808   -1.512023   -0.020419
      6          1           0        1.813211    1.170911   -0.022079
      7          1           0        2.719665   -0.428349   -0.015609
      8          1           0       -0.511774    1.472855    0.022004
 ---------------------------------------------------------------------

 SCF Done:  E(RB2PLYPD3) =  -191.612467210     A.U. after   12 cycles
 E2(B2PLYPD3) =    -0.2471107533D+00 E(B2PLYPD3) =    -0.19185957796328D+03

 The electronic state is 1-A.
 Alpha  occ. eigenvalues --  -19.72828 -10.71661 -10.65533 -10.64279  -1.20105
 Alpha  occ. eigenvalues --   -0.93241  -0.75721  -0.66813  -0.56916  -0.56259
 Alpha  occ. eigenvalues --   -0.50416  -0.47288  -0.46913  -0.34644  -0.33837
 Alpha virt. eigenvalues --   -0.01983   0.05749   0.07041   0.08518   0.09792
 Alpha virt. eigenvalues --    0.12535   0.13945   0.15339   0.17502   0.19866
 Alpha virt. eigenvalues --    0.20150   0.21410   0.25518   0.26219   0.28878

 Mulliken charges:
               1
     1  C    0.150270
     2  O   -0.341683
     3  C   -0.026251
     4  C   -0.130799
     5  H    0.102652
     6  H    0.086466
     7  H    0.101952
     8  H    0.057392
 Sum of Mulliken charges =   0.00000

 Dipole moment (field-independent basis, Debye):
    X=              3.5084    Y=              0.7164    Z=              0.0180  Tot=              3.5809
 Quadrupole moment (field-independent basis, Debye-Ang):
   XX=            -27.1083   YY=            -21.9793   ZZ=            -25.1934
   XY=             -0.9907   XZ=             -0.1848   YZ=              0.0370

 Normal termination of Gaussian 09 at Wed Aug 26 19:06:48 2020.
