 Gaussian 09, Revision D.01,
 Gaussian 09:  ES64L-G09RevD.01 24-Apr-2013

 --------------------
 #p B2PLYPD3/Def2QZVP
 --------------------

 --------
 acrolein
 --------
 Symbolic Z-matrix:
 Charge =  0 Multiplicity = 1

                         Standard orientation:
 ---------------------------------------------------------------------
 Center     Atomic      Atomic             Coordinates (Angstroms)
 Number     Number       Type             X           Y           Z
 ---------------------------------------------------------------------
      1          6           0       -0.644175    0.316348   -0.058913
      2          8           0       -1.812143   -0.098208    0.065676
      3          6           0        0.597496   -0.487680   -0.102953
      4          6           0        1.745316    0.188028    0.024951
      5          1           0        0.474177   -1.631538    0.046431
      6          1           0        1.729524    1.217151    0.107152
      7          1           0        2.571102   -0.406769    0.227515
      8          1           0       -0.469479    1.506648   -0.085020
 ---------------------------------------------------------------------

 SCF Done:  E(RB2PLYPD3) =  -191.594915039     A.U. after   13 cycles
 E2(B2PLYPD3) =    -0.2505429375D+00 E(B2PLYPD3) =    -0.19184545797686D+03

 The electronic state is 1-A.
 Alpha  occ. eigenvalues --  -19.73024 -10.73029 -10.65921 -10.65065  -1.17417
 Alpha  occ. eigenvalues --   -0.93795  -0.75583  -0.65659  -0.57065  -0.55420
 Alpha  occ. eigenvalues --   -0.49367  -0.47637  -0.45706  -0.34904  -0.33569
 Alpha virt. eigenvalues --   -0.02319   0.05777   0.06293   0.07458   0.09729
 Alpha virt. eigenvalues --    0.12804   0.13486   0.15113   0.16672   0.19594
 Alpha virt. eigenvalues --    0.20252   0.21838   0.24083   0.26368   0.28408

 Mulliken charges:
               1
     1  C    0.156650
     2  O   -0.360650
     3  C   -0.029686
     4  C   -0.110839
     5  H    0.100413
     6  H    0.094843
     7  H    0.103392
     8  H    0.045879
 Sum of Mulliken charges =   0.00000

 Dipole moment (field-independent basis, Debye):
    X=              3.7179    Y=              0.5635    Z=              0.1024  Tot=              3.7618
 Quadrupole moment (field-independent basis, Debye-Ang):
   XX=            -28.1854   YY=            -21.6237   ZZ=            -25.3427
   XY=             -0.7677   XZ=              1.0647   YZ=             -0.1425

 Normal termination of Gaussian 09 at Wed Aug 26 14:56:56 2020.
