 Gaussian 09, Revision D.01,
 Gaussian 09:  ES64L-G09RevD.01 24-Apr-2013

 --------------------
 #p B2PLYPD3/Def2QZVP
 --------------------

 --------
 acrolein
 --------
 Symbolic Z-matrix:
 Charge =  0 Multiplicity = 1

                         Standard orientation:
 ---------------------------------------------------------------------
 Center     Atomic      Atomic             Coordinates (Angstroms)
 Number     Number       Type             X           Y           Z
 ---------------------------------------------------------------------
      1          6           0       -0.675863    0.351283    0.037302
      2          8           0       -1.780765   -0.142899   -0.017437
      3          6           0        0.527949   -0.408411   -0.009196
      4          6           0        1.773078    0.122372   -0.031011
      5          1           0        0.388703   -1.436213    0.060175
      6          1           0        1.837106    1.189172    0.017559
      7          1           0        2.783577   -0.525231    0.074889
      8          1           0       -0.514251    1.524000    0.004302
 ---------------------------------------------------------------------

 SCF Done:  E(RB2PLYPD3) =  -191.598353397     A.U. after   13 cycles
 E2(B2PLYPD3) =    -0.2490066012D+00 E(B2PLYPD3) =    -0.19184735999786D+03

 The electronic state is 1-A.
 Alpha  occ. eigenvalues --  -19.73048 -10.72063 -10.67194 -10.64012  -1.19745
 Alpha  occ. eigenvalues --   -0.93078  -0.75596  -0.66582  -0.56230  -0.55719
 Alpha  occ. eigenvalues --   -0.49948  -0.47229  -0.46510  -0.34461  -0.33904
 Alpha virt. eigenvalues --   -0.02657   0.05309   0.06964   0.08460   0.09867
 Alpha virt. eigenvalues --    0.11983   0.13476   0.15339   0.17881   0.19600
 Alpha virt. eigenvalues --    0.19804   0.21005   0.25511   0.26059   0.28891

 Mulliken charges:
               1
     1  C    0.160530
     2  O   -0.346000
     3  C   -0.025878
     4  C   -0.129082
     5  H    0.106567
     6  H    0.087574
     7  H    0.102183
     8  H    0.044108
 Sum of Mulliken charges =   0.00000

 Dipole moment (field-independent basis, Debye):
    X=              3.5337    Y=              0.6902    Z=              0.2143  Tot=              3.6068
 Quadrupole moment (field-independent basis, Debye-Ang):
   XX=            -27.0702   YY=            -22.1619   ZZ=            -25.3442
   XY=             -1.1008   XZ=              0.1931   YZ=             -0.1225

 Normal termination of Gaussian 09 at Wed Aug 26 12:54:24 2020.
