 Gaussian 09, Revision D.01,
 Gaussian 09:  ES64L-G09RevD.01 24-Apr-2013

 --------------------
 #p B2PLYPD3/Def2QZVP
 --------------------

 --------
 acrolein
 --------
 Symbolic Z-matrix:
 Charge =  0 Multiplicity = 1

                         Standard orientation:
 ---------------------------------------------------------------------
 Center     Atomic      Atomic             Coordinates (Angstroms)
 Number     Number       Type             X           Y           Z
 ---------------------------------------------------------------------
      1          6           0        0.668591    0.346825    0.029776
      2          8           0        1.792711   -0.117167   -0.018308
      3          6           0       -0.558185   -0.443616   -0.001463
      4          6           0       -1.752871    0.136957   -0.013450
      5          1           0       -0.435691   -1.512073    0.032348
      6          1           0       -1.856289    1.228827   -0.048709
      7          1           0       -2.704198   -0.425438    0.036430
      8          1           0        0.509279    1.405027    0.037225
 ---------------------------------------------------------------------

 SCF Done:  E(RB2PLYPD3) =  -191.615261512     A.U. after   13 cycles
 E2(B2PLYPD3) =    -0.2472111031D+00 E(B2PLYPD3) =    -0.19186247261496D+03

 The electronic state is 1-A.
 Alpha  occ. eigenvalues --  -19.72745 -10.71191 -10.65913 -10.64241  -1.19090
 Alpha  occ. eigenvalues --   -0.93209  -0.75672  -0.67468  -0.56739  -0.56182
 Alpha  occ. eigenvalues --   -0.50631  -0.46597  -0.46538  -0.34775  -0.33931
 Alpha virt. eigenvalues --   -0.01914   0.05637   0.07248   0.08235   0.09690
 Alpha virt. eigenvalues --    0.12518   0.14080   0.15332   0.17651   0.19609
 Alpha virt. eigenvalues --    0.19967   0.21470   0.25499   0.26593   0.28784

 Mulliken charges:
               1
     1  C    0.156067
     2  O   -0.354860
     3  C   -0.035786
     4  C   -0.129379
     5  H    0.105798
     6  H    0.082117
     7  H    0.100555
     8  H    0.075489
 Sum of Mulliken charges =   0.00000

 Dipole moment (field-independent basis, Debye):
    X=             -3.5587    Y=              0.7844    Z=              0.1091  Tot=              3.6457
 Quadrupole moment (field-independent basis, Debye-Ang):
   XX=            -27.4271   YY=            -21.7769   ZZ=            -25.1820
   XY=              0.8700   XZ=              0.0487   YZ=             -0.1136

 Normal termination of Gaussian 09 at Wed Aug 26 18:46:37 2020.
