 Gaussian 09, Revision D.01,
 Gaussian 09:  ES64L-G09RevD.01 24-Apr-2013

 --------------------
 #p B2PLYPD3/Def2QZVP
 --------------------

 --------
 acrolein
 --------
 Symbolic Z-matrix:
 Charge =  0 Multiplicity = 1

                         Standard orientation:
 ---------------------------------------------------------------------
 Center     Atomic      Atomic             Coordinates (Angstroms)
 Number     Number       Type             X           Y           Z
 ---------------------------------------------------------------------
      1          6           0       -0.657991    0.324050    0.005078
      2          8           0       -1.802898   -0.091212   -0.020492
      3          6           0        0.550642   -0.466546    0.038224
      4          6           0        1.765003    0.141081   -0.033321
      5          1           0        0.401283   -1.544125    0.046055
      6          1           0        1.878424    1.316198    0.061347
      7          1           0        2.691775   -0.428177   -0.057846
      8          1           0       -0.494218    1.394289    0.054493
 ---------------------------------------------------------------------

 SCF Done:  E(RB2PLYPD3) =  -191.607043682     A.U. after   13 cycles
 E2(B2PLYPD3) =    -0.2486818299D+00 E(B2PLYPD3) =    -0.19185572551203D+03

 The electronic state is 1-A.
 Alpha  occ. eigenvalues --  -19.72551 -10.71034 -10.67445 -10.65032  -1.18868
 Alpha  occ. eigenvalues --   -0.92773  -0.75702  -0.66789  -0.56470  -0.55520
 Alpha  occ. eigenvalues --   -0.50291  -0.46759  -0.46220  -0.34429  -0.33741
 Alpha virt. eigenvalues --   -0.02479   0.05361   0.07010   0.08305   0.09598
 Alpha virt. eigenvalues --    0.12276   0.13903   0.15263   0.17538   0.19218
 Alpha virt. eigenvalues --    0.19998   0.21366   0.24921   0.26663   0.28702

 Mulliken charges:
               1
     1  C    0.162967
     2  O   -0.357835
     3  C   -0.037912
     4  C   -0.125475
     5  H    0.105412
     6  H    0.083953
     7  H    0.105727
     8  H    0.063163
 Sum of Mulliken charges =   0.00000

 Dipole moment (field-independent basis, Debye):
    X=              3.7073    Y=              0.6338    Z=              0.1086  Tot=              3.7626
 Quadrupole moment (field-independent basis, Debye-Ang):
   XX=            -27.4986   YY=            -21.7576   ZZ=            -25.3703
   XY=             -0.6688   XZ=             -0.1410   YZ=              0.0932

 Normal termination of Gaussian 09 at Wed Aug 26 08:40:19 2020.
