 Gaussian 09, Revision D.01,
 Gaussian 09:  ES64L-G09RevD.01 24-Apr-2013

 --------------------
 #p B2PLYPD3/Def2QZVP
 --------------------

 --------
 acrolein
 --------
 Symbolic Z-matrix:
 Charge =  0 Multiplicity = 1

                         Standard orientation:
 ---------------------------------------------------------------------
 Center     Atomic      Atomic             Coordinates (Angstroms)
 Number     Number       Type             X           Y           Z
 ---------------------------------------------------------------------
      1          6           0       -0.663799    0.348239   -0.008810
      2          8           0       -1.794787   -0.114449    0.021100
      3          6           0        0.573150   -0.463770   -0.034590
      4          6           0        1.746420    0.148763    0.012013
      5          1           0        0.445147   -1.538628   -0.020749
      6          1           0        1.834354    1.209757    0.012185
      7          1           0        2.620184   -0.405995    0.084361
      8          1           0       -0.476009    1.451063   -0.056278
 ---------------------------------------------------------------------

 SCF Done:  E(RB2PLYPD3) =  -191.614553560     A.U. after   12 cycles
 E2(B2PLYPD3) =    -0.2474080056D+00 E(B2PLYPD3) =    -0.19186196156582D+03

 The electronic state is 1-A.
 Alpha  occ. eigenvalues --  -19.72905 -10.71904 -10.64714 -10.64410  -1.18796
 Alpha  occ. eigenvalues --   -0.93407  -0.75714  -0.67020  -0.56849  -0.56363
 Alpha  occ. eigenvalues --   -0.50552  -0.47478  -0.46358  -0.34854  -0.33786
 Alpha virt. eigenvalues --   -0.01703   0.05821   0.07157   0.07953   0.09767
 Alpha virt. eigenvalues --    0.12762   0.13969   0.15300   0.17297   0.19885
 Alpha virt. eigenvalues --    0.20038   0.21900   0.25352   0.26530   0.28538

 Mulliken charges:
               1
     1  C    0.156725
     2  O   -0.354382
     3  C   -0.036978
     4  C   -0.129204
     5  H    0.105817
     6  H    0.087242
     7  H    0.101286
     8  H    0.069493
 Sum of Mulliken charges =   0.00000

 Dipole moment (field-independent basis, Debye):
    X=              3.5539    Y=              0.7317    Z=             -0.0097  Tot=              3.6285
 Quadrupole moment (field-independent basis, Debye-Ang):
   XX=            -27.6314   YY=            -21.6470   ZZ=            -25.1610
   XY=             -0.7710   XZ=              0.3292   YZ=             -0.0435

 Normal termination of Gaussian 09 at Wed Aug 26 12:05:18 2020.
