 Gaussian 09, Revision D.01,
 Gaussian 09:  ES64L-G09RevD.01 24-Apr-2013

 --------------------
 #p B2PLYPD3/Def2QZVP
 --------------------

 --------
 acrolein
 --------
 Symbolic Z-matrix:
 Charge =  0 Multiplicity = 1

                         Standard orientation:
 ---------------------------------------------------------------------
 Center     Atomic      Atomic             Coordinates (Angstroms)
 Number     Number       Type             X           Y           Z
 ---------------------------------------------------------------------
      1          6           0       -0.692640    0.380258   -0.050553
      2          8           0       -1.781274   -0.168954    0.061506
      3          6           0        0.542798   -0.435115   -0.063517
      4          6           0        1.745998    0.117859    0.037662
      5          1           0        0.530812   -1.309090   -0.034171
      6          1           0        1.840541    1.164571    0.266145
      7          1           0        2.775638   -0.481263   -0.036571
      8          1           0       -0.473733    1.599400   -0.228999
 ---------------------------------------------------------------------

 SCF Done:  E(RB2PLYPD3) =  -191.549602270     A.U. after   13 cycles
 E2(B2PLYPD3) =    -0.2493475602D+00 E(B2PLYPD3) =    -0.19179894982973D+03

 The electronic state is 1-A.
 Alpha  occ. eigenvalues --  -19.73638 -10.73677 -10.66147 -10.62209  -1.19330
 Alpha  occ. eigenvalues --   -0.93767  -0.74284  -0.69067  -0.56160  -0.55604
 Alpha  occ. eigenvalues --   -0.50437  -0.47434  -0.46368  -0.34617  -0.33913
 Alpha virt. eigenvalues --   -0.01991   0.05361   0.06869   0.07703   0.09700
 Alpha virt. eigenvalues --    0.12012   0.13109   0.15480   0.17966   0.18941
 Alpha virt. eigenvalues --    0.20278   0.20827   0.24726   0.26250   0.28810

 Mulliken charges:
               1
     1  C    0.168960
     2  O   -0.341861
     3  C   -0.093503
     4  C   -0.104969
     5  H    0.147597
     6  H    0.077642
     7  H    0.086389
     8  H    0.059745
 Sum of Mulliken charges =   0.00000

 Dipole moment (field-independent basis, Debye):
    X=              3.3732    Y=              0.7911    Z=             -0.0958  Tot=              3.4661
 Quadrupole moment (field-independent basis, Debye-Ang):
   XX=            -27.2363   YY=            -22.0958   ZZ=            -25.1839
   XY=             -1.1964   XZ=              0.5679   YZ=              0.2387

 Normal termination of Gaussian 09 at Wed Aug 26 13:32:21 2020.
