 Gaussian 09, Revision D.01,
 Gaussian 09:  ES64L-G09RevD.01 24-Apr-2013

 --------------------
 #p B2PLYPD3/Def2QZVP
 --------------------

 --------
 acrolein
 --------
 Symbolic Z-matrix:
 Charge =  0 Multiplicity = 1

                         Standard orientation:
 ---------------------------------------------------------------------
 Center     Atomic      Atomic             Coordinates (Angstroms)
 Number     Number       Type             X           Y           Z
 ---------------------------------------------------------------------
      1          6           0       -0.665770    0.349751   -0.017656
      2          8           0       -1.786315   -0.130897    0.019340
      3          6           0        0.558626   -0.437787   -0.022049
      4          6           0        1.747140    0.142788   -0.000217
      5          1           0        0.454657   -1.488199   -0.018764
      6          1           0        1.801649    1.188675    0.020822
      7          1           0        2.718187   -0.442431    0.091420
      8          1           0       -0.523944    1.460620   -0.008664
 ---------------------------------------------------------------------

 SCF Done:  E(RB2PLYPD3) =  -191.612946227     A.U. after   12 cycles
 E2(B2PLYPD3) =    -0.2474282798D+00 E(B2PLYPD3) =    -0.19186037450683D+03

 The electronic state is 1-A.
 Alpha  occ. eigenvalues --  -19.72815 -10.71741 -10.65574 -10.63941  -1.19000
 Alpha  occ. eigenvalues --   -0.93572  -0.75399  -0.67395  -0.56828  -0.56091
 Alpha  occ. eigenvalues --   -0.50288  -0.47024  -0.46615  -0.34861  -0.33910
 Alpha virt. eigenvalues --   -0.01875   0.05664   0.07120   0.08233   0.09788
 Alpha virt. eigenvalues --    0.12466   0.13879   0.15319   0.17632   0.19834
 Alpha virt. eigenvalues --    0.20030   0.21367   0.25576   0.26288   0.28968

 Mulliken charges:
               1
     1  C    0.150406
     2  O   -0.353793
     3  C   -0.029647
     4  C   -0.129219
     5  H    0.108157
     6  H    0.086622
     7  H    0.098881
     8  H    0.068593
 Sum of Mulliken charges =   0.00000

 Dipole moment (field-independent basis, Debye):
    X=              3.5354    Y=              0.7727    Z=              0.0142  Tot=              3.6188
 Quadrupole moment (field-independent basis, Debye-Ang):
   XX=            -27.4555   YY=            -21.8096   ZZ=            -25.1682
   XY=             -1.0561   XZ=              0.3449   YZ=             -0.0110

 Normal termination of Gaussian 09 at Wed Aug 26 19:02:22 2020.
