 Gaussian 09, Revision D.01,
 Gaussian 09:  ES64L-G09RevD.01 24-Apr-2013

 --------------------
 #p B2PLYPD3/Def2QZVP
 --------------------

 --------
 acrolein
 --------
 Symbolic Z-matrix:
 Charge =  0 Multiplicity = 1

                         Standard orientation:
 ---------------------------------------------------------------------
 Center     Atomic      Atomic             Coordinates (Angstroms)
 Number     Number       Type             X           Y           Z
 ---------------------------------------------------------------------
      1          6           0        0.680008    0.347402   -0.031115
      2          8           0        1.777591   -0.128121    0.024355
      3          6           0       -0.556162   -0.448510   -0.008708
      4          6           0       -1.754825    0.139349    0.003598
      5          1           0       -0.463714   -1.475130   -0.027781
      6          1           0       -1.833395    1.211956    0.086042
      7          1           0       -2.654056   -0.431003    0.014903
      8          1           0        0.516307    1.489699   -0.050653
 ---------------------------------------------------------------------

 SCF Done:  E(RB2PLYPD3) =  -191.614250694     A.U. after   12 cycles
 E2(B2PLYPD3) =    -0.2465211167D+00 E(B2PLYPD3) =    -0.19186077181111D+03

 The electronic state is 1-A.
 Alpha  occ. eigenvalues --  -19.72934 -10.71863 -10.65133 -10.63788  -1.20439
 Alpha  occ. eigenvalues --   -0.93034  -0.75314  -0.67038  -0.56814  -0.56394
 Alpha  occ. eigenvalues --   -0.50765  -0.47558  -0.47281  -0.34644  -0.33722
 Alpha virt. eigenvalues --   -0.01587   0.05844   0.07287   0.08286   0.09802
 Alpha virt. eigenvalues --    0.12596   0.13872   0.15390   0.17694   0.19750
 Alpha virt. eigenvalues --    0.20012   0.21600   0.25458   0.26351   0.28736

 Mulliken charges:
               1
     1  C    0.157367
     2  O   -0.337827
     3  C   -0.041452
     4  C   -0.130358
     5  H    0.108043
     6  H    0.084924
     7  H    0.101086
     8  H    0.058218
 Sum of Mulliken charges =   0.00000

 Dipole moment (field-independent basis, Debye):
    X=             -3.3856    Y=              0.6854    Z=             -0.0429  Tot=              3.4546
 Quadrupole moment (field-independent basis, Debye-Ang):
   XX=            -27.2564   YY=            -21.8568   ZZ=            -25.1529
   XY=              0.9829   XZ=             -0.2701   YZ=              0.1227

 Normal termination of Gaussian 09 at Wed Aug 26 15:23:29 2020.
