 Gaussian 09, Revision D.01,
 Gaussian 09:  ES64L-G09RevD.01 24-Apr-2013

 --------------------
 #p B2PLYPD3/Def2QZVP
 --------------------

 --------
 acrolein
 --------
 Symbolic Z-matrix:
 Charge =  0 Multiplicity = 1

                         Standard orientation:
 ---------------------------------------------------------------------
 Center     Atomic      Atomic             Coordinates (Angstroms)
 Number     Number       Type             X           Y           Z
 ---------------------------------------------------------------------
      1          6           0        0.679268    0.374063    0.084632
      2          8           0        1.797656   -0.148776   -0.078578
      3          6           0       -0.551262   -0.421122    0.038874
      4          6           0       -1.748918    0.112642   -0.047992
      5          1           0       -0.421926   -1.460271    0.205702
      6          1           0       -1.805735    1.172799   -0.112610
      7          1           0       -2.857010   -0.438480   -0.078571
      8          1           0        0.428894    1.522668    0.161024
 ---------------------------------------------------------------------

 SCF Done:  E(RB2PLYPD3) =  -191.590500241     A.U. after   13 cycles
 E2(B2PLYPD3) =    -0.2504607826D+00 E(B2PLYPD3) =    -0.19184096102371D+03

 The electronic state is 1-A.
 Alpha  occ. eigenvalues --  -19.73660 -10.73271 -10.66546 -10.64069  -1.18052
 Alpha  occ. eigenvalues --   -0.93476  -0.74980  -0.66755  -0.56074  -0.55141
 Alpha  occ. eigenvalues --   -0.50398  -0.46284  -0.45078  -0.34978  -0.34288
 Alpha virt. eigenvalues --   -0.02283   0.05154   0.06715   0.07802   0.09633
 Alpha virt. eigenvalues --    0.11931   0.13490   0.15008   0.17776   0.19548
 Alpha virt. eigenvalues --    0.20032   0.20708   0.25177   0.26157   0.29082

 Mulliken charges:
               1
     1  C    0.158480
     2  O   -0.354795
     3  C   -0.022671
     4  C   -0.124993
     5  H    0.106662
     6  H    0.075189
     7  H    0.096321
     8  H    0.065806
 Sum of Mulliken charges =   0.00000

 Dipole moment (field-independent basis, Debye):
    X=             -3.5309    Y=              0.8555    Z=              0.3451  Tot=              3.6495
 Quadrupole moment (field-independent basis, Debye-Ang):
   XX=            -27.2903   YY=            -22.1732   ZZ=            -25.3561
   XY=              0.9317   XZ=              0.5982   YZ=             -0.2635

 Normal termination of Gaussian 09 at Wed Aug 26 14:01:01 2020.
