 Gaussian 09, Revision D.01,
 Gaussian 09:  ES64L-G09RevD.01 24-Apr-2013

 --------------------
 #p B2PLYPD3/Def2QZVP
 --------------------

 --------
 acrolein
 --------
 Symbolic Z-matrix:
 Charge =  0 Multiplicity = 1

                         Standard orientation:
 ---------------------------------------------------------------------
 Center     Atomic      Atomic             Coordinates (Angstroms)
 Number     Number       Type             X           Y           Z
 ---------------------------------------------------------------------
      1          6           0        0.677420    0.349627   -0.017524
      2          8           0        1.793419   -0.118118    0.022317
      3          6           0       -0.562970   -0.458329   -0.014821
      4          6           0       -1.755293    0.149493    0.004026
      5          1           0       -0.435470   -1.541949   -0.060238
      6          1           0       -1.849469    1.216804    0.023344
      7          1           0       -2.711369   -0.428127    0.079133
      8          1           0        0.494017    1.453471   -0.050865
 ---------------------------------------------------------------------

 SCF Done:  E(RB2PLYPD3) =  -191.615104039     A.U. after   12 cycles
 E2(B2PLYPD3) =    -0.2476222630D+00 E(B2PLYPD3) =    -0.19186272630201D+03

 The electronic state is 1-A.
 Alpha  occ. eigenvalues --  -19.72951 -10.71846 -10.65830 -10.64713  -1.19573
 Alpha  occ. eigenvalues --   -0.92699  -0.75052  -0.66822  -0.56456  -0.55936
 Alpha  occ. eigenvalues --   -0.50484  -0.47009  -0.46580  -0.34638  -0.33801
 Alpha virt. eigenvalues --   -0.01740   0.05683   0.07082   0.08036   0.09707
 Alpha virt. eigenvalues --    0.12493   0.13908   0.15315   0.17442   0.19817
 Alpha virt. eigenvalues --    0.19927   0.21428   0.25347   0.26469   0.28600

 Mulliken charges:
               1
     1  C    0.157368
     2  O   -0.346795
     3  C   -0.039426
     4  C   -0.131660
     5  H    0.106544
     6  H    0.087200
     7  H    0.098516
     8  H    0.068255
 Sum of Mulliken charges =   0.00000

 Dipole moment (field-independent basis, Debye):
    X=             -3.4635    Y=              0.7514    Z=             -0.0520  Tot=              3.5445
 Quadrupole moment (field-independent basis, Debye-Ang):
   XX=            -27.4885   YY=            -21.7520   ZZ=            -25.2982
   XY=              0.7914   XZ=             -0.3139   YZ=              0.0490

 Normal termination of Gaussian 09 at Wed Aug 26 15:47:39 2020.
