 Gaussian 09, Revision D.01,
 Gaussian 09:  ES64L-G09RevD.01 24-Apr-2013

 --------------------
 #p B2PLYPD3/Def2QZVP
 --------------------

 --------
 acrolein
 --------
 Symbolic Z-matrix:
 Charge =  0 Multiplicity = 1

                         Standard orientation:
 ---------------------------------------------------------------------
 Center     Atomic      Atomic             Coordinates (Angstroms)
 Number     Number       Type             X           Y           Z
 ---------------------------------------------------------------------
      1          6           0       -0.665958    0.332021    0.045162
      2          8           0       -1.791646   -0.100510   -0.041067
      3          6           0        0.562232   -0.481474    0.032050
      4          6           0        1.744681    0.164907   -0.025930
      5          1           0        0.455741   -1.586158    0.014861
      6          1           0        1.889653    1.256054   -0.109635
      7          1           0        2.684848   -0.403184    0.005676
      8          1           0       -0.542801    1.444646    0.109940
 ---------------------------------------------------------------------

 SCF Done:  E(RB2PLYPD3) =  -191.612726327     A.U. after   12 cycles
 E2(B2PLYPD3) =    -0.2478239343D+00 E(B2PLYPD3) =    -0.19186055026167D+03

 The electronic state is 1-A.
 Alpha  occ. eigenvalues --  -19.72557 -10.71536 -10.66231 -10.65276  -1.19446
 Alpha  occ. eigenvalues --   -0.92539  -0.74945  -0.66457  -0.56507  -0.55859
 Alpha  occ. eigenvalues --   -0.50120  -0.46928  -0.46550  -0.34507  -0.33535
 Alpha virt. eigenvalues --   -0.01811   0.05660   0.06910   0.08043   0.09602
 Alpha virt. eigenvalues --    0.12422   0.14143   0.15380   0.17249   0.19510
 Alpha virt. eigenvalues --    0.20108   0.21404   0.25113   0.26221   0.28558

 Mulliken charges:
               1
     1  C    0.154132
     2  O   -0.347000
     3  C   -0.043653
     4  C   -0.125765
     5  H    0.108093
     6  H    0.091746
     7  H    0.095563
     8  H    0.066884
 Sum of Mulliken charges =   0.00000

 Dipole moment (field-independent basis, Debye):
    X=              3.5448    Y=              0.6834    Z=              0.1007  Tot=              3.6115
 Quadrupole moment (field-independent basis, Debye-Ang):
   XX=            -27.5354   YY=            -21.5802   ZZ=            -25.3595
   XY=             -0.6515   XZ=             -0.3712   YZ=             -0.1158

 Normal termination of Gaussian 09 at Wed Aug 26 08:35:31 2020.
