 Gaussian 09, Revision D.01,
 Gaussian 09:  ES64L-G09RevD.01 24-Apr-2013

 --------------------
 #p B2PLYPD3/Def2QZVP
 --------------------

 --------
 acrolein
 --------
 Symbolic Z-matrix:
 Charge =  0 Multiplicity = 1

                         Standard orientation:
 ---------------------------------------------------------------------
 Center     Atomic      Atomic             Coordinates (Angstroms)
 Number     Number       Type             X           Y           Z
 ---------------------------------------------------------------------
      1          6           0        0.666653    0.339502   -0.008910
      2          8           0        1.787947   -0.106628    0.012077
      3          6           0       -0.568797   -0.452435   -0.012068
      4          6           0       -1.752260    0.150719   -0.003291
      5          1           0       -0.395472   -1.579720   -0.025649
      6          1           0       -1.831100    1.215994    0.002131
      7          1           0       -2.664382   -0.409322    0.080675
      8          1           0        0.513807    1.399356   -0.008161
 ---------------------------------------------------------------------

 SCF Done:  E(RB2PLYPD3) =  -191.613966147     A.U. after   12 cycles
 E2(B2PLYPD3) =    -0.2467843562D+00 E(B2PLYPD3) =    -0.19186075050334D+03

 The electronic state is 1-A.
 Alpha  occ. eigenvalues --  -19.72681 -10.71002 -10.65288 -10.64890  -1.19638
 Alpha  occ. eigenvalues --   -0.93145  -0.75782  -0.66910  -0.56854  -0.56352
 Alpha  occ. eigenvalues --   -0.50680  -0.46892  -0.46512  -0.34831  -0.33760
 Alpha virt. eigenvalues --   -0.01689   0.05798   0.07052   0.08330   0.09742
 Alpha virt. eigenvalues --    0.12679   0.14064   0.15321   0.17164   0.19866
 Alpha virt. eigenvalues --    0.19926   0.21807   0.25478   0.26670   0.28634

 Mulliken charges:
               1
     1  C    0.158690
     2  O   -0.350526
     3  C   -0.034039
     4  C   -0.132809
     5  H    0.098523
     6  H    0.087496
     7  H    0.104311
     8  H    0.068356
 Sum of Mulliken charges =   0.00000

 Dipole moment (field-independent basis, Debye):
    X=             -3.4939    Y=              0.7555    Z=              0.0093  Tot=              3.5746
 Quadrupole moment (field-independent basis, Debye-Ang):
   XX=            -27.4798   YY=            -21.7274   ZZ=            -25.1742
   XY=              0.7263   XZ=             -0.2545   YZ=             -0.0101

 Normal termination of Gaussian 09 at Wed Aug 26 18:39:06 2020.
