 Gaussian 09, Revision D.01,
 Gaussian 09:  ES64L-G09RevD.01 24-Apr-2013

 --------------------
 #p B2PLYPD3/Def2QZVP
 --------------------

 --------
 acrolein
 --------
 Symbolic Z-matrix:
 Charge =  0 Multiplicity = 1

                         Standard orientation:
 ---------------------------------------------------------------------
 Center     Atomic      Atomic             Coordinates (Angstroms)
 Number     Number       Type             X           Y           Z
 ---------------------------------------------------------------------
      1          6           0        0.665417    0.350389    0.017080
      2          8           0        1.793279   -0.116094   -0.021075
      3          6           0       -0.567636   -0.466127    0.034281
      4          6           0       -1.744716    0.152078   -0.025854
      5          1           0       -0.461110   -1.546777    0.000740
      6          1           0       -1.830300    1.245078    0.000470
      7          1           0       -2.663873   -0.424757   -0.023594
      8          1           0        0.490661    1.437168    0.037937
 ---------------------------------------------------------------------

 SCF Done:  E(RB2PLYPD3) =  -191.615749506     A.U. after   12 cycles
 E2(B2PLYPD3) =    -0.2477419969D+00 E(B2PLYPD3) =    -0.19186349150260D+03

 The electronic state is 1-A.
 Alpha  occ. eigenvalues --  -19.72807 -10.71725 -10.65603 -10.64545  -1.18838
 Alpha  occ. eigenvalues --   -0.93054  -0.75171  -0.67049  -0.56317  -0.56198
 Alpha  occ. eigenvalues --   -0.50345  -0.47000  -0.46381  -0.34735  -0.33834
 Alpha virt. eigenvalues --   -0.01708   0.05704   0.07060   0.07891   0.09717
 Alpha virt. eigenvalues --    0.12583   0.13917   0.15295   0.17457   0.19722
 Alpha virt. eigenvalues --    0.19984   0.21539   0.25272   0.26533   0.28657

 Mulliken charges:
               1
     1  C    0.155456
     2  O   -0.353901
     3  C   -0.040624
     4  C   -0.128523
     5  H    0.107143
     6  H    0.085761
     7  H    0.099684
     8  H    0.075004
 Sum of Mulliken charges =   0.00000

 Dipole moment (field-independent basis, Debye):
    X=             -3.5345    Y=              0.7569    Z=              0.0599  Tot=              3.6151
 Quadrupole moment (field-independent basis, Debye-Ang):
   XX=            -27.7115   YY=            -21.5742   ZZ=            -25.2673
   XY=              0.8738   XZ=              0.1623   YZ=              0.0505

 Normal termination of Gaussian 09 at Wed Aug 26 15:47:08 2020.
