 Gaussian 09, Revision D.01,
 Gaussian 09:  ES64L-G09RevD.01 24-Apr-2013

 --------------------
 #p B2PLYPD3/Def2QZVP
 --------------------

 --------
 acrolein
 --------
 Symbolic Z-matrix:
 Charge =  0 Multiplicity = 1

                         Standard orientation:
 ---------------------------------------------------------------------
 Center     Atomic      Atomic             Coordinates (Angstroms)
 Number     Number       Type             X           Y           Z
 ---------------------------------------------------------------------
      1          6           0       -0.676270    0.356111    0.008773
      2          8           0       -1.775498   -0.132150   -0.021432
      3          6           0        0.553539   -0.449896    0.029336
      4          6           0        1.748391    0.140215   -0.015385
      5          1           0        0.450285   -1.498253    0.040485
      6          1           0        1.815513    1.218725   -0.012423
      7          1           0        2.713990   -0.427340   -0.060672
      8          1           0       -0.529768    1.485487    0.067721
 ---------------------------------------------------------------------

 SCF Done:  E(RB2PLYPD3) =  -191.614816189     A.U. after   13 cycles
 E2(B2PLYPD3) =    -0.2470433532D+00 E(B2PLYPD3) =    -0.19186185954220D+03

 The electronic state is 1-A.
 Alpha  occ. eigenvalues --  -19.72850 -10.71842 -10.65717 -10.64062  -1.20064
 Alpha  occ. eigenvalues --   -0.92886  -0.74817  -0.66982  -0.56464  -0.56202
 Alpha  occ. eigenvalues --   -0.50527  -0.47168  -0.46823  -0.34645  -0.33787
 Alpha virt. eigenvalues --   -0.01544   0.05716   0.07134   0.08179   0.09760
 Alpha virt. eigenvalues --    0.12388   0.13916   0.15389   0.17627   0.19767
 Alpha virt. eigenvalues --    0.19979   0.21261   0.25554   0.26233   0.28920

 Mulliken charges:
               1
     1  C    0.155016
     2  O   -0.342235
     3  C   -0.042451
     4  C   -0.129199
     5  H    0.110280
     6  H    0.083672
     7  H    0.098803
     8  H    0.066114
 Sum of Mulliken charges =   0.00000

 Dipole moment (field-independent basis, Debye):
    X=              3.3933    Y=              0.7507    Z=              0.0501  Tot=              3.4757
 Quadrupole moment (field-independent basis, Debye-Ang):
   XX=            -27.3222   YY=            -21.7970   ZZ=            -25.2427
   XY=             -1.0250   XZ=             -0.2614   YZ=              0.0038

 Normal termination of Gaussian 09 at Wed Aug 26 16:06:44 2020.
