 Gaussian 09, Revision D.01,
 Gaussian 09:  ES64L-G09RevD.01 24-Apr-2013

 --------------------
 #p B2PLYPD3/Def2QZVP
 --------------------

 --------
 acrolein
 --------
 Symbolic Z-matrix:
 Charge =  0 Multiplicity = 1

                         Standard orientation:
 ---------------------------------------------------------------------
 Center     Atomic      Atomic             Coordinates (Angstroms)
 Number     Number       Type             X           Y           Z
 ---------------------------------------------------------------------
      1          6           0       -0.668564    0.333414    0.030522
      2          8           0       -1.795720   -0.106587   -0.036198
      3          6           0        0.562129   -0.474475    0.020610
      4          6           0        1.750361    0.143344   -0.010495
      5          1           0        0.493177   -1.514536    0.037783
      6          1           0        1.940495    1.333632   -0.146505
      7          1           0        2.619252   -0.434759   -0.001935
      8          1           0       -0.550715    1.454655    0.156422
 ---------------------------------------------------------------------

 SCF Done:  E(RB2PLYPD3) =  -191.602825975     A.U. after   13 cycles
 E2(B2PLYPD3) =    -0.2478702131D+00 E(B2PLYPD3) =    -0.19185069618845D+03

 The electronic state is 1-A.
 Alpha  occ. eigenvalues --  -19.72646 -10.71734 -10.66468 -10.64477  -1.19332
 Alpha  occ. eigenvalues --   -0.92907  -0.75098  -0.66564  -0.56689  -0.55804
 Alpha  occ. eigenvalues --   -0.50375  -0.46616  -0.46462  -0.34677  -0.33597
 Alpha virt. eigenvalues --   -0.01784   0.05435   0.07096   0.07988   0.09484
 Alpha virt. eigenvalues --    0.12232   0.14037   0.15349   0.17691   0.18907
 Alpha virt. eigenvalues --    0.20071   0.21613   0.24930   0.26362   0.28488

 Mulliken charges:
               1
     1  C    0.158156
     2  O   -0.346622
     3  C   -0.056233
     4  C   -0.119594
     5  H    0.110753
     6  H    0.084235
     7  H    0.100074
     8  H    0.069230
 Sum of Mulliken charges =   0.00000

 Dipole moment (field-independent basis, Debye):
    X=              3.5569    Y=              0.6293    Z=              0.0788  Tot=              3.6130
 Quadrupole moment (field-independent basis, Debye-Ang):
   XX=            -27.5517   YY=            -21.6032   ZZ=            -25.3108
   XY=             -0.8423   XZ=             -0.4189   YZ=             -0.1800

 Normal termination of Gaussian 09 at Wed Aug 26 22:07:28 2020.
