 Gaussian 09, Revision D.01,
 Gaussian 09:  ES64L-G09RevD.01 24-Apr-2013

 --------------------
 #p B2PLYPD3/Def2QZVP
 --------------------

 --------
 acrolein
 --------
 Symbolic Z-matrix:
 Charge =  0 Multiplicity = 1

                         Standard orientation:
 ---------------------------------------------------------------------
 Center     Atomic      Atomic             Coordinates (Angstroms)
 Number     Number       Type             X           Y           Z
 ---------------------------------------------------------------------
      1          6           0        0.676431    0.363105    0.018098
      2          8           0        1.786542   -0.137442   -0.018621
      3          6           0       -0.564414   -0.439277    0.002964
      4          6           0       -1.747698    0.135666   -0.017912
      5          1           0       -0.482717   -1.473891    0.075338
      6          1           0       -1.815167    1.185564   -0.018995
      7          1           0       -2.672110   -0.429631    0.006154
      8          1           0        0.491741    1.460531    0.067573
 ---------------------------------------------------------------------

 SCF Done:  E(RB2PLYPD3) =  -191.614442007     A.U. after   12 cycles
 E2(B2PLYPD3) =    -0.2468982446D+00 E(B2PLYPD3) =    -0.19186134025136D+03

 The electronic state is 1-A.
 Alpha  occ. eigenvalues --  -19.73046 -10.71986 -10.64682 -10.63581  -1.19200
 Alpha  occ. eigenvalues --   -0.93489  -0.75420  -0.67644  -0.56774  -0.56482
 Alpha  occ. eigenvalues --   -0.50786  -0.47278  -0.46505  -0.34887  -0.33987
 Alpha virt. eigenvalues --   -0.01582   0.05802   0.07261   0.08090   0.09796
 Alpha virt. eigenvalues --    0.12657   0.13920   0.15332   0.17758   0.19836
 Alpha virt. eigenvalues --    0.20042   0.21569   0.25606   0.26506   0.28780

 Mulliken charges:
               1
     1  C    0.151199
     2  O   -0.349342
     3  C   -0.035078
     4  C   -0.130960
     5  H    0.107329
     6  H    0.081011
     7  H    0.099312
     8  H    0.076529
 Sum of Mulliken charges =   0.00000

 Dipole moment (field-independent basis, Debye):
    X=             -3.4502    Y=              0.8176    Z=              0.1443  Tot=              3.5487
 Quadrupole moment (field-independent basis, Debye-Ang):
   XX=            -27.4634   YY=            -21.7645   ZZ=            -25.1012
   XY=              1.0757   XZ=              0.0526   YZ=             -0.0986

 Normal termination of Gaussian 09 at Wed Aug 26 16:30:25 2020.
