 Gaussian 09, Revision D.01,
 Gaussian 09:  ES64L-G09RevD.01 24-Apr-2013

 --------------------
 #p B2PLYPD3/Def2QZVP
 --------------------

 --------
 acrolein
 --------
 Symbolic Z-matrix:
 Charge =  0 Multiplicity = 1

                         Standard orientation:
 ---------------------------------------------------------------------
 Center     Atomic      Atomic             Coordinates (Angstroms)
 Number     Number       Type             X           Y           Z
 ---------------------------------------------------------------------
      1          6           0        0.665673    0.343363    0.008209
      2          8           0        1.787693   -0.115525   -0.003130
      3          6           0       -0.567615   -0.460881   -0.009179
      4          6           0       -1.746638    0.154795   -0.005027
      5          1           0       -0.468186   -1.548729    0.015667
      6          1           0       -1.803336    1.241114   -0.026312
      7          1           0       -2.690639   -0.397763    0.046766
      8          1           0        0.552097    1.405915    0.024897
 ---------------------------------------------------------------------

 SCF Done:  E(RB2PLYPD3) =  -191.616021886     A.U. after   12 cycles
 E2(B2PLYPD3) =    -0.2469067461D+00 E(B2PLYPD3) =    -0.19186292863243D+03

 The electronic state is 1-A.
 Alpha  occ. eigenvalues --  -19.72557 -10.71131 -10.65594 -10.64538  -1.19286
 Alpha  occ. eigenvalues --   -0.93058  -0.75222  -0.67391  -0.56815  -0.56212
 Alpha  occ. eigenvalues --   -0.50388  -0.46866  -0.46606  -0.34726  -0.33791
 Alpha virt. eigenvalues --   -0.01606   0.05737   0.07123   0.08125   0.09690
 Alpha virt. eigenvalues --    0.12562   0.14181   0.15326   0.17466   0.19768
 Alpha virt. eigenvalues --    0.20007   0.21439   0.25422   0.26422   0.29037

 Mulliken charges:
               1
     1  C    0.151376
     2  O   -0.351320
     3  C   -0.038841
     4  C   -0.129842
     5  H    0.105401
     6  H    0.084958
     7  H    0.100951
     8  H    0.077317
 Sum of Mulliken charges =   0.00000

 Dipole moment (field-independent basis, Debye):
    X=             -3.5053    Y=              0.7767    Z=              0.0591  Tot=              3.5908
 Quadrupole moment (field-independent basis, Debye-Ang):
   XX=            -27.5619   YY=            -21.6123   ZZ=            -25.2043
   XY=              0.9929   XZ=             -0.0728   YZ=             -0.0759

 Normal termination of Gaussian 09 at Wed Aug 26 15:20:02 2020.
