 Gaussian 09, Revision D.01,
 Gaussian 09:  ES64L-G09RevD.01 24-Apr-2013

 --------------------
 #p B2PLYPD3/Def2QZVP
 --------------------

 --------
 acrolein
 --------
 Symbolic Z-matrix:
 Charge =  0 Multiplicity = 1

                         Standard orientation:
 ---------------------------------------------------------------------
 Center     Atomic      Atomic             Coordinates (Angstroms)
 Number     Number       Type             X           Y           Z
 ---------------------------------------------------------------------
      1          6           0        0.670216    0.348726    0.020853
      2          8           0        1.796701   -0.118402   -0.021068
      3          6           0       -0.577843   -0.459112    0.013868
      4          6           0       -1.749366    0.149956   -0.021320
      5          1           0       -0.444108   -1.541313    0.029537
      6          1           0       -1.837005    1.237322   -0.051433
      7          1           0       -2.661514   -0.426219    0.029730
      8          1           0        0.510973    1.440003    0.080301
 ---------------------------------------------------------------------

 SCF Done:  E(RB2PLYPD3) =  -191.615986671     A.U. after   12 cycles
 E2(B2PLYPD3) =    -0.2474511852D+00 E(B2PLYPD3) =    -0.19186343785666D+03

 The electronic state is 1-A.
 Alpha  occ. eigenvalues --  -19.72904 -10.71798 -10.65327 -10.64506  -1.18943
 Alpha  occ. eigenvalues --   -0.93144  -0.75182  -0.66906  -0.56387  -0.56302
 Alpha  occ. eigenvalues --   -0.50572  -0.46869  -0.46383  -0.34913  -0.33799
 Alpha virt. eigenvalues --   -0.01603   0.05740   0.07086   0.07990   0.09731
 Alpha virt. eigenvalues --    0.12566   0.13919   0.15336   0.17375   0.19547
 Alpha virt. eigenvalues --    0.20063   0.21669   0.25404   0.26565   0.28642

 Mulliken charges:
               1
     1  C    0.157389
     2  O   -0.352765
     3  C   -0.041534
     4  C   -0.129293
     5  H    0.105677
     6  H    0.086530
     7  H    0.101142
     8  H    0.072854
 Sum of Mulliken charges =   0.00000

 Dipole moment (field-independent basis, Debye):
    X=             -3.4968    Y=              0.7608    Z=              0.1075  Tot=              3.5803
 Quadrupole moment (field-independent basis, Debye-Ang):
   XX=            -27.6803   YY=            -21.6321   ZZ=            -25.2321
   XY=              0.8635   XZ=              0.0960   YZ=             -0.0835

 Normal termination of Gaussian 09 at Wed Aug 26 19:00:57 2020.
