 Gaussian 09, Revision D.01,
 Gaussian 09:  ES64L-G09RevD.01 24-Apr-2013

 --------------------
 #p B2PLYPD3/Def2QZVP
 --------------------

 --------
 acrolein
 --------
 Symbolic Z-matrix:
 Charge =  0 Multiplicity = 1

                         Standard orientation:
 ---------------------------------------------------------------------
 Center     Atomic      Atomic             Coordinates (Angstroms)
 Number     Number       Type             X           Y           Z
 ---------------------------------------------------------------------
      1          6           0        0.676602    0.347875   -0.029085
      2          8           0        1.777307   -0.115509    0.024262
      3          6           0       -0.571914   -0.471978   -0.027336
      4          6           0       -1.749291    0.157472    0.023301
      5          1           0       -0.434887   -1.549280   -0.036610
      6          1           0       -1.837902    1.214885   -0.057678
      7          1           0       -2.625946   -0.391510    0.079479
      8          1           0        0.547892    1.449765    0.019431
 ---------------------------------------------------------------------

 SCF Done:  E(RB2PLYPD3) =  -191.614712015     A.U. after   12 cycles
 E2(B2PLYPD3) =    -0.2461509042D+00 E(B2PLYPD3) =    -0.19186086291897D+03

 The electronic state is 1-A.
 Alpha  occ. eigenvalues --  -19.72678 -10.71395 -10.64662 -10.64536  -1.20375
 Alpha  occ. eigenvalues --   -0.92710  -0.75204  -0.66984  -0.56799  -0.56586
 Alpha  occ. eigenvalues --   -0.50741  -0.47676  -0.47029  -0.34565  -0.33534
 Alpha virt. eigenvalues --   -0.01257   0.05927   0.07270   0.08000   0.09768
 Alpha virt. eigenvalues --    0.12708   0.14159   0.15379   0.17324   0.19818
 Alpha virt. eigenvalues --    0.20189   0.21883   0.25149   0.26522   0.28571

 Mulliken charges:
               1
     1  C    0.155751
     2  O   -0.339361
     3  C   -0.048778
     4  C   -0.132776
     5  H    0.107102
     6  H    0.089671
     7  H    0.100355
     8  H    0.068036
 Sum of Mulliken charges =   0.00000

 Dipole moment (field-independent basis, Debye):
    X=             -3.3485    Y=              0.7298    Z=             -0.0931  Tot=              3.4283
 Quadrupole moment (field-independent basis, Debye-Ang):
   XX=            -27.4387   YY=            -21.6067   ZZ=            -25.1587
   XY=              0.8274   XZ=             -0.1932   YZ=             -0.0623

 Normal termination of Gaussian 09 at Wed Aug 26 08:34:56 2020.
