 Gaussian 09, Revision D.01,
 Gaussian 09:  ES64L-G09RevD.01 24-Apr-2013

 --------------------
 #p B2PLYPD3/Def2QZVP
 --------------------

 --------
 acrolein
 --------
 Symbolic Z-matrix:
 Charge =  0 Multiplicity = 1

                         Standard orientation:
 ---------------------------------------------------------------------
 Center     Atomic      Atomic             Coordinates (Angstroms)
 Number     Number       Type             X           Y           Z
 ---------------------------------------------------------------------
      1          6           0       -0.674038   -0.327902   -0.049013
      2          8           0       -1.788426    0.089361    0.034729
      3          6           0        0.603257    0.495681   -0.041719
      4          6           0        1.740549   -0.179138   -0.013629
      5          1           0        0.409109    1.617171    0.046138
      6          1           0        1.798069   -1.306644    0.062674
      7          1           0        2.653801    0.362428    0.185208
      8          1           0       -0.572177   -1.319687    0.054311
 ---------------------------------------------------------------------

 SCF Done:  E(RB2PLYPD3) =  -191.598631660     A.U. after   12 cycles
 E2(B2PLYPD3) =    -0.2463731609D+00 E(B2PLYPD3) =    -0.19184500482064D+03

 The electronic state is 1-A.
 Alpha  occ. eigenvalues --  -19.72512 -10.70252 -10.65580 -10.65263  -1.20441
 Alpha  occ. eigenvalues --   -0.92564  -0.74747  -0.67593  -0.56432  -0.56010
 Alpha  occ. eigenvalues --   -0.50976  -0.46909  -0.46205  -0.34957  -0.33362
 Alpha virt. eigenvalues --   -0.00974   0.05748   0.06991   0.07886   0.09641
 Alpha virt. eigenvalues --    0.12704   0.14120   0.15276   0.17363   0.19377
 Alpha virt. eigenvalues --    0.19809   0.21746   0.24786   0.27130   0.28543

 Mulliken charges:
               1
     1  C    0.169732
     2  O   -0.343400
     3  C   -0.059597
     4  C   -0.123403
     5  H    0.104777
     6  H    0.083297
     7  H    0.096631
     8  H    0.071963
 Sum of Mulliken charges =   0.00000

 Dipole moment (field-independent basis, Debye):
    X=              3.2714    Y=             -0.7334    Z=              0.1412  Tot=              3.3556
 Quadrupole moment (field-independent basis, Debye-Ang):
   XX=            -27.9162   YY=            -21.4559   ZZ=            -25.1612
   XY=              0.6578   XZ=              0.7369   YZ=              0.0735

 Normal termination of Gaussian 09 at Wed Aug 26 12:09:16 2020.
