 Gaussian 09, Revision D.01,
 Gaussian 09:  ES64L-G09RevD.01 24-Apr-2013

 --------------------
 #p B2PLYPD3/Def2QZVP
 --------------------

 --------
 acrolein
 --------
 Symbolic Z-matrix:
 Charge =  0 Multiplicity = 1

                         Standard orientation:
 ---------------------------------------------------------------------
 Center     Atomic      Atomic             Coordinates (Angstroms)
 Number     Number       Type             X           Y           Z
 ---------------------------------------------------------------------
      1          6           0       -0.676752    0.345858    0.009031
      2          8           0       -1.794942   -0.111033   -0.014508
      3          6           0        0.561410   -0.461753    0.016667
      4          6           0        1.757660    0.144983   -0.003554
      5          1           0        0.421529   -1.559039    0.002137
      6          1           0        1.895167    1.251551   -0.056646
      7          1           0        2.701148   -0.421746   -0.020087
      8          1           0       -0.512223    1.442973    0.057794
 ---------------------------------------------------------------------

 SCF Done:  E(RB2PLYPD3) =  -191.614608477     A.U. after   12 cycles
 E2(B2PLYPD3) =    -0.2476458619D+00 E(B2PLYPD3) =    -0.19186225433887D+03

 The electronic state is 1-A.
 Alpha  occ. eigenvalues --  -19.72835 -10.71625 -10.66213 -10.64982  -1.19660
 Alpha  occ. eigenvalues --   -0.92494  -0.75069  -0.66533  -0.56516  -0.55756
 Alpha  occ. eigenvalues --   -0.50541  -0.46797  -0.46405  -0.34609  -0.33762
 Alpha virt. eigenvalues --   -0.01765   0.05624   0.07074   0.08100   0.09630
 Alpha virt. eigenvalues --    0.12410   0.14017   0.15370   0.17368   0.19529
 Alpha virt. eigenvalues --    0.20012   0.21439   0.25295   0.26484   0.28493

 Mulliken charges:
               1
     1  C    0.161117
     2  O   -0.346729
     3  C   -0.045625
     4  C   -0.127629
     5  H    0.105840
     6  H    0.085074
     7  H    0.099436
     8  H    0.068516
 Sum of Mulliken charges =   0.00000

 Dipole moment (field-independent basis, Debye):
    X=              3.4887    Y=              0.7330    Z=             -0.0028  Tot=              3.5649
 Quadrupole moment (field-independent basis, Debye-Ang):
   XX=            -27.4224   YY=            -21.7322   ZZ=            -25.3421
   XY=             -0.7035   XZ=             -0.2218   YZ=             -0.0330

 Normal termination of Gaussian 09 at Wed Aug 26 09:14:30 2020.
