 Gaussian 09, Revision D.01,
 Gaussian 09:  ES64L-G09RevD.01 24-Apr-2013

 --------------------
 #p B2PLYPD3/Def2QZVP
 --------------------

 --------
 acrolein
 --------
 Symbolic Z-matrix:
 Charge =  0 Multiplicity = 1

                         Standard orientation:
 ---------------------------------------------------------------------
 Center     Atomic      Atomic             Coordinates (Angstroms)
 Number     Number       Type             X           Y           Z
 ---------------------------------------------------------------------
      1          6           0        0.677599    0.345371   -0.027023
      2          8           0        1.787015   -0.123297    0.021822
      3          6           0       -0.541673   -0.441758   -0.022016
      4          6           0       -1.766812    0.136087    0.015979
      5          1           0       -0.450122   -1.504082   -0.022349
      6          1           0       -1.835173    1.218166   -0.012985
      7          1           0       -2.735594   -0.430263    0.051855
      8          1           0        0.510088    1.464354    0.007263
 ---------------------------------------------------------------------

 SCF Done:  E(RB2PLYPD3) =  -191.613724438     A.U. after   13 cycles
 E2(B2PLYPD3) =    -0.2477435502D+00 E(B2PLYPD3) =    -0.19186146798816D+03

 The electronic state is 1-A.
 Alpha  occ. eigenvalues --  -19.72840 -10.71681 -10.66376 -10.64454  -1.19908
 Alpha  occ. eigenvalues --   -0.92676  -0.75402  -0.66843  -0.56445  -0.56136
 Alpha  occ. eigenvalues --   -0.50413  -0.47095  -0.46816  -0.34366  -0.33886
 Alpha virt. eigenvalues --   -0.02141   0.05640   0.07146   0.08329   0.09716
 Alpha virt. eigenvalues --    0.12384   0.13956   0.15389   0.17649   0.19747
 Alpha virt. eigenvalues --    0.19977   0.21198   0.25346   0.26305   0.28922

 Mulliken charges:
               1
     1  C    0.155439
     2  O   -0.344072
     3  C   -0.034525
     4  C   -0.131911
     5  H    0.106494
     6  H    0.083668
     7  H    0.103216
     8  H    0.061689
 Sum of Mulliken charges =   0.00000

 Dipole moment (field-independent basis, Debye):
    X=             -3.5193    Y=              0.7163    Z=             -0.0605  Tot=              3.5920
 Quadrupole moment (field-independent basis, Debye-Ang):
   XX=            -27.1605   YY=            -21.9334   ZZ=            -25.3058
   XY=              0.9740   XZ=             -0.2021   YZ=             -0.0182

 Normal termination of Gaussian 09 at Wed Aug 26 15:41:53 2020.
