 Gaussian 09, Revision D.01,
 Gaussian 09:  ES64L-G09RevD.01 24-Apr-2013

 --------------------
 #p B2PLYPD3/Def2QZVP
 --------------------

 --------
 acrolein
 --------
 Symbolic Z-matrix:
 Charge =  0 Multiplicity = 1

                         Standard orientation:
 ---------------------------------------------------------------------
 Center     Atomic      Atomic             Coordinates (Angstroms)
 Number     Number       Type             X           Y           Z
 ---------------------------------------------------------------------
      1          6           0       -0.697729    0.390136    0.028927
      2          8           0       -1.771763   -0.160862   -0.023747
      3          6           0        0.555059   -0.415167   -0.027610
      4          6           0        1.777060    0.140392   -0.032544
      5          1           0        0.406485   -1.510055    0.197826
      6          1           0        1.725368    1.008212    0.032526
      7          1           0        2.741437   -0.410368    0.049653
      8          1           0       -0.505525    1.506939    0.097334
 ---------------------------------------------------------------------

 SCF Done:  E(RB2PLYPD3) =  -191.561538166     A.U. after   13 cycles
 E2(B2PLYPD3) =    -0.2476590237D+00 E(B2PLYPD3) =    -0.19180919718976D+03

 The electronic state is 1-A.
 Alpha  occ. eigenvalues --  -19.73393 -10.72444 -10.64641 -10.63244  -1.20129
 Alpha  occ. eigenvalues --   -0.93484  -0.76128  -0.67282  -0.57653  -0.56215
 Alpha  occ. eigenvalues --   -0.51115  -0.47753  -0.45890  -0.34380  -0.34003
 Alpha virt. eigenvalues --   -0.01824   0.05900   0.06835   0.07906   0.09933
 Alpha virt. eigenvalues --    0.12541   0.13751   0.15057   0.17384   0.19643
 Alpha virt. eigenvalues --    0.20439   0.22648   0.25180   0.26344   0.29219

 Mulliken charges:
               1
     1  C    0.145609
     2  O   -0.336458
     3  C   -0.022659
     4  C   -0.186657
     5  H    0.096308
     6  H    0.119648
     7  H    0.110155
     8  H    0.074053
 Sum of Mulliken charges =   0.00000

 Dipole moment (field-independent basis, Debye):
    X=              3.2401    Y=              0.9578    Z=              0.3664  Tot=              3.3985
 Quadrupole moment (field-independent basis, Debye-Ang):
   XX=            -27.0841   YY=            -22.0110   ZZ=            -25.0956
   XY=             -1.2398   XZ=              0.1897   YZ=             -0.2262

 Normal termination of Gaussian 09 at Wed Aug 26 14:18:11 2020.
