 Gaussian 09, Revision D.01,
 Gaussian 09:  ES64L-G09RevD.01 24-Apr-2013

 --------------------
 #p B2PLYPD3/Def2QZVP
 --------------------

 --------
 acrolein
 --------
 Symbolic Z-matrix:
 Charge =  0 Multiplicity = 1

                         Standard orientation:
 ---------------------------------------------------------------------
 Center     Atomic      Atomic             Coordinates (Angstroms)
 Number     Number       Type             X           Y           Z
 ---------------------------------------------------------------------
      1          6           0        0.668468    0.346164   -0.018095
      2          8           0        1.782302   -0.114258    0.040255
      3          6           0       -0.567152   -0.466981   -0.052363
      4          6           0       -1.742261    0.153192    0.012427
      5          1           0       -0.481397   -1.557578   -0.065884
      6          1           0       -1.811586    1.226117    0.032284
      7          1           0       -2.651882   -0.365907    0.174213
      8          1           0        0.532118    1.417183   -0.114465
 ---------------------------------------------------------------------

 SCF Done:  E(RB2PLYPD3) =  -191.615434607     A.U. after   12 cycles
 E2(B2PLYPD3) =    -0.2466293110D+00 E(B2PLYPD3) =    -0.19186206391813D+03

 The electronic state is 1-A.
 Alpha  occ. eigenvalues --  -19.72645 -10.71329 -10.64981 -10.64545  -1.19663
 Alpha  occ. eigenvalues --   -0.93032  -0.75340  -0.67292  -0.56774  -0.56530
 Alpha  occ. eigenvalues --   -0.50635  -0.47267  -0.46567  -0.34708  -0.33712
 Alpha virt. eigenvalues --   -0.01486   0.05841   0.07162   0.08015   0.09685
 Alpha virt. eigenvalues --    0.12705   0.14343   0.15337   0.17398   0.19645
 Alpha virt. eigenvalues --    0.20059   0.21722   0.25231   0.26397   0.28725

 Mulliken charges:
               1
     1  C    0.151384
     2  O   -0.346374
     3  C   -0.041995
     4  C   -0.126076
     5  H    0.105679
     6  H    0.080618
     7  H    0.098861
     8  H    0.077904
 Sum of Mulliken charges =   0.00000

 Dipole moment (field-independent basis, Debye):
    X=             -3.4505    Y=              0.7635    Z=             -0.0288  Tot=              3.5340
 Quadrupole moment (field-independent basis, Debye-Ang):
   XX=            -27.5194   YY=            -21.6363   ZZ=            -25.1310
   XY=              0.9028   XZ=             -0.6673   YZ=             -0.0208

 Normal termination of Gaussian 09 at Wed Aug 26 09:05:28 2020.
