 Gaussian 09, Revision D.01,
 Gaussian 09:  ES64L-G09RevD.01 24-Apr-2013

 --------------------
 #p B2PLYPD3/Def2QZVP
 --------------------

 --------
 acrolein
 --------
 Symbolic Z-matrix:
 Charge =  0 Multiplicity = 1

                         Standard orientation:
 ---------------------------------------------------------------------
 Center     Atomic      Atomic             Coordinates (Angstroms)
 Number     Number       Type             X           Y           Z
 ---------------------------------------------------------------------
      1          6           0       -0.653183    0.353884   -0.102908
      2          8           0       -1.796791   -0.141293    0.075088
      3          6           0        0.541547   -0.454341   -0.035832
      4          6           0        1.736657    0.137773    0.031184
      5          1           0        0.601799   -1.370747   -0.072062
      6          1           0        1.833789    1.194899    0.226815
      7          1           0        2.709323   -0.435326    0.011650
      8          1           0       -0.520704    1.517616   -0.121774
 ---------------------------------------------------------------------

 SCF Done:  E(RB2PLYPD3) =  -191.576706155     A.U. after   13 cycles
 E2(B2PLYPD3) =    -0.2500802268D+00 E(B2PLYPD3) =    -0.19182678638135D+03

 The electronic state is 1-A.
 Alpha  occ. eigenvalues --  -19.72894 -10.72895 -10.66023 -10.62977  -1.16839
 Alpha  occ. eigenvalues --   -0.94272  -0.75295  -0.69265  -0.56935  -0.55830
 Alpha  occ. eigenvalues --   -0.49391  -0.47780  -0.45510  -0.34567  -0.33914
 Alpha virt. eigenvalues --   -0.02710   0.05512   0.07176   0.07411   0.09591
 Alpha virt. eigenvalues --    0.12325   0.13856   0.15275   0.18163   0.19363
 Alpha virt. eigenvalues --    0.20161   0.20858   0.24960   0.25966   0.29051

 Mulliken charges:
               1
     1  C    0.162393
     2  O   -0.367560
     3  C   -0.049996
     4  C   -0.107617
     5  H    0.120082
     6  H    0.079849
     7  H    0.086022
     8  H    0.076827
 Sum of Mulliken charges =   0.00000

 Dipole moment (field-independent basis, Debye):
    X=              3.7494    Y=              0.8158    Z=             -0.1990  Tot=              3.8423
 Quadrupole moment (field-independent basis, Debye-Ang):
   XX=            -27.6021   YY=            -21.7402   ZZ=            -25.1601
   XY=             -1.2787   XZ=              0.6506   YZ=              0.2878

 Normal termination of Gaussian 09 at Wed Aug 26 12:10:02 2020.
