 Gaussian 09, Revision D.01,
 Gaussian 09:  ES64L-G09RevD.01 24-Apr-2013

 --------------------
 #p B2PLYPD3/Def2QZVP
 --------------------

 --------
 acrolein
 --------
 Symbolic Z-matrix:
 Charge =  0 Multiplicity = 1

                         Standard orientation:
 ---------------------------------------------------------------------
 Center     Atomic      Atomic             Coordinates (Angstroms)
 Number     Number       Type             X           Y           Z
 ---------------------------------------------------------------------
      1          6           0        0.671901    0.358965    0.009346
      2          8           0        1.780534   -0.130862   -0.007567
      3          6           0       -0.557674   -0.432421   -0.006073
      4          6           0       -1.752428    0.139211   -0.011676
      5          1           0       -0.425307   -1.533974    0.061359
      6          1           0       -1.801524    1.173719    0.028225
      7          1           0       -2.690439   -0.434527    0.002118
      8          1           0        0.502198    1.447144    0.019250
 ---------------------------------------------------------------------

 SCF Done:  E(RB2PLYPD3) =  -191.614293998     A.U. after   12 cycles
 E2(B2PLYPD3) =    -0.2470339404D+00 E(B2PLYPD3) =    -0.19186132793819D+03

 The electronic state is 1-A.
 Alpha  occ. eigenvalues --  -19.72888 -10.71559 -10.65001 -10.64339  -1.19500
 Alpha  occ. eigenvalues --   -0.93316  -0.75681  -0.66988  -0.56853  -0.56358
 Alpha  occ. eigenvalues --   -0.50659  -0.47025  -0.46420  -0.34777  -0.33966
 Alpha virt. eigenvalues --   -0.01742   0.05793   0.07050   0.08273   0.09831
 Alpha virt. eigenvalues --    0.12617   0.13946   0.15328   0.17337   0.19903
 Alpha virt. eigenvalues --    0.20097   0.21652   0.25659   0.26461   0.28866

 Mulliken charges:
               1
     1  C    0.153489
     2  O   -0.349271
     3  C   -0.029984
     4  C   -0.134608
     5  H    0.100565
     6  H    0.084561
     7  H    0.104155
     8  H    0.071093
 Sum of Mulliken charges =   0.00000

 Dipole moment (field-independent basis, Debye):
    X=             -3.4595    Y=              0.8142    Z=              0.1153  Tot=              3.5559
 Quadrupole moment (field-independent basis, Debye-Ang):
   XX=            -27.3862   YY=            -21.8066   ZZ=            -25.1616
   XY=              1.0051   XZ=             -0.0514   YZ=             -0.0497

 Normal termination of Gaussian 09 at Wed Aug 26 18:42:45 2020.
