 Gaussian 09, Revision D.01,
 Gaussian 09:  ES64L-G09RevD.01 24-Apr-2013

 --------------------
 #p B2PLYPD3/Def2QZVP
 --------------------

 --------
 acrolein
 --------
 Symbolic Z-matrix:
 Charge =  0 Multiplicity = 1

                         Standard orientation:
 ---------------------------------------------------------------------
 Center     Atomic      Atomic             Coordinates (Angstroms)
 Number     Number       Type             X           Y           Z
 ---------------------------------------------------------------------
      1          6           0       -0.652824    0.332480   -0.009986
      2          8           0       -1.797484   -0.111290    0.031412
      3          6           0        0.572326   -0.459919   -0.050646
      4          6           0        1.739578    0.152866    0.010086
      5          1           0        0.460450   -1.499336   -0.043454
      6          1           0        1.834188    1.234461    0.020547
      7          1           0        2.638659   -0.438204    0.159410
      8          1           0       -0.507904    1.440838   -0.084523
 ---------------------------------------------------------------------

 SCF Done:  E(RB2PLYPD3) =  -191.613365022     A.U. after   12 cycles
 E2(B2PLYPD3) =    -0.2477269525D+00 E(B2PLYPD3) =    -0.19186109197468D+03

 The electronic state is 1-A.
 Alpha  occ. eigenvalues --  -19.72703 -10.71704 -10.65585 -10.64049  -1.18334
 Alpha  occ. eigenvalues --   -0.93844  -0.75563  -0.67330  -0.56599  -0.56371
 Alpha  occ. eigenvalues --   -0.50226  -0.47521  -0.46191  -0.34991  -0.33678
 Alpha virt. eigenvalues --   -0.01928   0.05701   0.07111   0.08072   0.09728
 Alpha virt. eigenvalues --    0.12597   0.13849   0.15244   0.17607   0.19731
 Alpha virt. eigenvalues --    0.19832   0.21701   0.25239   0.26428   0.28637

 Mulliken charges:
               1
     1  C    0.153815
     2  O   -0.360066
     3  C   -0.034225
     4  C   -0.122860
     5  H    0.109505
     6  H    0.090230
     7  H    0.098174
     8  H    0.065428
 Sum of Mulliken charges =   0.00000

 Dipole moment (field-independent basis, Debye):
    X=              3.6528    Y=              0.6874    Z=              0.0047  Tot=              3.7170
 Quadrupole moment (field-independent basis, Debye-Ang):
   XX=            -27.7446   YY=            -21.6776   ZZ=            -25.1336
   XY=             -0.8304   XZ=              0.5685   YZ=             -0.0617

 Normal termination of Gaussian 09 at Wed Aug 26 21:19:58 2020.
