 Gaussian 09, Revision D.01,
 Gaussian 09:  ES64L-G09RevD.01 24-Apr-2013

 --------------------
 #p B2PLYPD3/Def2QZVP
 --------------------

 --------
 acrolein
 --------
 Symbolic Z-matrix:
 Charge =  0 Multiplicity = 1

                         Standard orientation:
 ---------------------------------------------------------------------
 Center     Atomic      Atomic             Coordinates (Angstroms)
 Number     Number       Type             X           Y           Z
 ---------------------------------------------------------------------
      1          6           0       -0.674492    0.346570    0.023283
      2          8           0       -1.780515   -0.120728   -0.015045
      3          6           0        0.570167   -0.452554    0.009320
      4          6           0        1.751291    0.150375   -0.016327
      5          1           0        0.445249   -1.537405    0.001818
      6          1           0        1.819113    1.227030   -0.027710
      7          1           0        2.639598   -0.424246    0.030026
      8          1           0       -0.541641    1.434102    0.018567
 ---------------------------------------------------------------------

 SCF Done:  E(RB2PLYPD3) =  -191.616999615     A.U. after   12 cycles
 E2(B2PLYPD3) =    -0.2462877835D+00 E(B2PLYPD3) =    -0.19186328739828D+03

 The electronic state is 1-A.
 Alpha  occ. eigenvalues --  -19.72725 -10.71303 -10.64941 -10.64333  -1.20045
 Alpha  occ. eigenvalues --   -0.93036  -0.75325  -0.66995  -0.56812  -0.56489
 Alpha  occ. eigenvalues --   -0.50714  -0.47152  -0.46966  -0.34790  -0.33695
 Alpha virt. eigenvalues --   -0.01412   0.05865   0.07179   0.08255   0.09789
 Alpha virt. eigenvalues --    0.12638   0.14020   0.15388   0.17422   0.19783
 Alpha virt. eigenvalues --    0.19949   0.21807   0.25575   0.26454   0.28765

 Mulliken charges:
               1
     1  C    0.155232
     2  O   -0.343744
     3  C   -0.040996
     4  C   -0.133543
     5  H    0.103180
     6  H    0.086833
     7  H    0.103665
     8  H    0.069373
 Sum of Mulliken charges =   0.00000

 Dipole moment (field-independent basis, Debye):
    X=              3.3910    Y=              0.7525    Z=              0.0708  Tot=              3.4742
 Quadrupole moment (field-independent basis, Debye-Ang):
   XX=            -27.4958   YY=            -21.6608   ZZ=            -25.1548
   XY=             -0.9668   XZ=             -0.0355   YZ=             -0.0444

 Normal termination of Gaussian 09 at Wed Aug 26 16:16:48 2020.
