 Gaussian 09, Revision D.01,
 Gaussian 09:  ES64L-G09RevD.01 24-Apr-2013

 --------------------
 #p B2PLYPD3/Def2QZVP
 --------------------

 --------
 acrolein
 --------
 Symbolic Z-matrix:
 Charge =  0 Multiplicity = 1

                         Standard orientation:
 ---------------------------------------------------------------------
 Center     Atomic      Atomic             Coordinates (Angstroms)
 Number     Number       Type             X           Y           Z
 ---------------------------------------------------------------------
      1          6           0        0.659328    0.335320    0.025970
      2          8           0        1.794253   -0.106423   -0.031429
      3          6           0       -0.591638   -0.471172    0.055714
      4          6           0       -1.726359    0.151975   -0.037771
      5          1           0       -0.483843   -1.506722   -0.012852
      6          1           0       -1.903427    1.284211    0.006763
      7          1           0       -2.583022   -0.400712   -0.052349
      8          1           0        0.568282    1.377868    0.046385
 ---------------------------------------------------------------------

 SCF Done:  E(RB2PLYPD3) =  -191.604984567     A.U. after   12 cycles
 E2(B2PLYPD3) =    -0.2462087356D+00 E(B2PLYPD3) =    -0.19185119330214D+03

 The electronic state is 1-A.
 Alpha  occ. eigenvalues --  -19.72464 -10.70891 -10.64818 -10.63839  -1.18758
 Alpha  occ. eigenvalues --   -0.93925  -0.75594  -0.67936  -0.57159  -0.56645
 Alpha  occ. eigenvalues --   -0.50758  -0.46771  -0.46254  -0.35364  -0.33568
 Alpha virt. eigenvalues --   -0.01189   0.05723   0.07344   0.08013   0.09602
 Alpha virt. eigenvalues --    0.12648   0.14062   0.15331   0.17775   0.19408
 Alpha virt. eigenvalues --    0.19992   0.22004   0.25217   0.26622   0.28340

 Mulliken charges:
               1
     1  C    0.154489
     2  O   -0.356989
     3  C   -0.052534
     4  C   -0.115397
     5  H    0.110525
     6  H    0.083821
     7  H    0.095024
     8  H    0.081061
 Sum of Mulliken charges =   0.00000

 Dipole moment (field-independent basis, Debye):
    X=             -3.5648    Y=              0.7458    Z=              0.0673  Tot=              3.6426
 Quadrupole moment (field-independent basis, Debye-Ang):
   XX=            -27.6930   YY=            -21.4807   ZZ=            -25.0150
   XY=              0.8135   XZ=              0.2827   YZ=              0.1041

 Normal termination of Gaussian 09 at Wed Aug 26 09:43:28 2020.
