 Gaussian 09, Revision D.01,
 Gaussian 09:  ES64L-G09RevD.01 24-Apr-2013

 --------------------
 #p B2PLYPD3/Def2QZVP
 --------------------

 --------
 acrolein
 --------
 Symbolic Z-matrix:
 Charge =  0 Multiplicity = 1

                         Standard orientation:
 ---------------------------------------------------------------------
 Center     Atomic      Atomic             Coordinates (Angstroms)
 Number     Number       Type             X           Y           Z
 ---------------------------------------------------------------------
      1          6           0        0.662741    0.351033    0.033773
      2          8           0        1.784155   -0.131625   -0.025581
      3          6           0       -0.557596   -0.435865    0.018799
      4          6           0       -1.744063    0.147174   -0.021310
      5          1           0       -0.483725   -1.497572    0.023933
      6          1           0       -1.774538    1.179271   -0.031438
      7          1           0       -2.713978   -0.431827   -0.004137
      8          1           0        0.532507    1.429079    0.028719
 ---------------------------------------------------------------------

 SCF Done:  E(RB2PLYPD3) =  -191.612380303     A.U. after   12 cycles
 E2(B2PLYPD3) =    -0.2471872867D+00 E(B2PLYPD3) =    -0.19185956758997D+03

 The electronic state is 1-A.
 Alpha  occ. eigenvalues --  -19.72688 -10.71406 -10.65269 -10.63899  -1.18790
 Alpha  occ. eigenvalues --   -0.93712  -0.75622  -0.67805  -0.57274  -0.56039
 Alpha  occ. eigenvalues --   -0.50213  -0.47103  -0.46513  -0.34816  -0.33970
 Alpha virt. eigenvalues --   -0.01879   0.05709   0.07126   0.08224   0.09786
 Alpha virt. eigenvalues --    0.12575   0.14024   0.15325   0.17633   0.19903
 Alpha virt. eigenvalues --    0.20123   0.21345   0.25663   0.26263   0.29179

 Mulliken charges:
               1
     1  C    0.144365
     2  O   -0.355891
     3  C   -0.025744
     4  C   -0.132358
     5  H    0.105872
     6  H    0.085841
     7  H    0.100604
     8  H    0.077311
 Sum of Mulliken charges =   0.00000

 Dipole moment (field-independent basis, Debye):
    X=             -3.5560    Y=              0.8144    Z=              0.0977  Tot=              3.6493
 Quadrupole moment (field-independent basis, Debye-Ang):
   XX=            -27.4822   YY=            -21.7348   ZZ=            -25.1251
   XY=              1.1747   XZ=              0.1592   YZ=             -0.0480

 Normal termination of Gaussian 09 at Wed Aug 26 15:28:55 2020.
