 Gaussian 09, Revision D.01,
 Gaussian 09:  ES64L-G09RevD.01 24-Apr-2013

 --------------------
 #p B2PLYPD3/Def2QZVP
 --------------------

 --------
 acrolein
 --------
 Symbolic Z-matrix:
 Charge =  0 Multiplicity = 1

                         Standard orientation:
 ---------------------------------------------------------------------
 Center     Atomic      Atomic             Coordinates (Angstroms)
 Number     Number       Type             X           Y           Z
 ---------------------------------------------------------------------
      1          6           0        0.685126    0.358238   -0.073721
      2          8           0        1.760803   -0.141068    0.068074
      3          6           0       -0.549491   -0.433442   -0.029903
      4          6           0       -1.748566    0.137428    0.012650
      5          1           0       -0.549039   -1.434858   -0.087787
      6          1           0       -1.897739    1.144804    0.272148
      7          1           0       -2.566042   -0.404012    0.013529
      8          1           0        0.603977    1.449262   -0.196631
 ---------------------------------------------------------------------

 SCF Done:  E(RB2PLYPD3) =  -191.600144742     A.U. after   14 cycles
 E2(B2PLYPD3) =    -0.2451014712D+00 E(B2PLYPD3) =    -0.19184524621271D+03

 The electronic state is 1-A.
 Alpha  occ. eigenvalues --  -19.72600 -10.71264 -10.63399 -10.63203  -1.20531
 Alpha  occ. eigenvalues --   -0.93439  -0.76245  -0.68148  -0.57962  -0.57138
 Alpha  occ. eigenvalues --   -0.50978  -0.47964  -0.47153  -0.34483  -0.33767
 Alpha virt. eigenvalues --   -0.01499   0.06047   0.07618   0.08080   0.09776
 Alpha virt. eigenvalues --    0.13016   0.14330   0.15402   0.17871   0.19512
 Alpha virt. eigenvalues --    0.20393   0.22150   0.24694   0.26357   0.28293

 Mulliken charges:
               1
     1  C    0.149646
     2  O   -0.335878
     3  C   -0.053075
     4  C   -0.119472
     5  H    0.106522
     6  H    0.076708
     7  H    0.090704
     8  H    0.084844
 Sum of Mulliken charges =   0.00000

 Dipole moment (field-independent basis, Debye):
    X=             -3.3003    Y=              0.8017    Z=             -0.1348  Tot=              3.3989
 Quadrupole moment (field-independent basis, Debye-Ang):
   XX=            -27.1505   YY=            -21.7314   ZZ=            -24.8310
   XY=              1.2513   XZ=             -0.7683   YZ=              0.3325

 Normal termination of Gaussian 09 at Wed Aug 26 13:48:36 2020.
