 Gaussian 09, Revision D.01,
 Gaussian 09:  ES64L-G09RevD.01 24-Apr-2013

 --------------------
 #p B2PLYPD3/Def2QZVP
 --------------------

 --------
 acrolein
 --------
 Symbolic Z-matrix:
 Charge =  0 Multiplicity = 1

                         Standard orientation:
 ---------------------------------------------------------------------
 Center     Atomic      Atomic             Coordinates (Angstroms)
 Number     Number       Type             X           Y           Z
 ---------------------------------------------------------------------
      1          6           0        0.662019    0.357720    0.023010
      2          8           0        1.781395   -0.138449   -0.021236
      3          6           0       -0.540779   -0.430791   -0.007053
      4          6           0       -1.744338    0.128112   -0.026666
      5          1           0       -0.460043   -1.466848    0.126298
      6          1           0       -1.822923    1.213925    0.005144
      7          1           0       -2.732483   -0.468320    0.023149
      8          1           0        0.502876    1.498593    0.079553
 ---------------------------------------------------------------------

 SCF Done:  E(RB2PLYPD3) =  -191.608050024     A.U. after   13 cycles
 E2(B2PLYPD3) =    -0.2484674653D+00 E(B2PLYPD3) =    -0.19185651748981D+03

 The electronic state is 1-A.
 Alpha  occ. eigenvalues --  -19.72884 -10.72075 -10.66313 -10.63833  -1.18775
 Alpha  occ. eigenvalues --   -0.93562  -0.75262  -0.66943  -0.56376  -0.55994
 Alpha  occ. eigenvalues --   -0.50100  -0.47014  -0.46050  -0.34755  -0.33990
 Alpha virt. eigenvalues --   -0.02132   0.05519   0.06876   0.08213   0.09747
 Alpha virt. eigenvalues --    0.12256   0.13711   0.15200   0.17842   0.19714
 Alpha virt. eigenvalues --    0.19892   0.21146   0.25421   0.26333   0.29097

 Mulliken charges:
               1
     1  C    0.151752
     2  O   -0.353700
     3  C   -0.029259
     4  C   -0.122355
     5  H    0.109315
     6  H    0.081083
     7  H    0.097535
     8  H    0.065630
 Sum of Mulliken charges =   0.00000

 Dipole moment (field-independent basis, Debye):
    X=             -3.5801    Y=              0.7672    Z=              0.2388  Tot=              3.6692
 Quadrupole moment (field-independent basis, Debye-Ang):
   XX=            -27.4014   YY=            -21.8855   ZZ=            -25.2452
   XY=              1.1131   XZ=             -0.0508   YZ=             -0.1518

 Normal termination of Gaussian 09 at Wed Aug 26 08:43:33 2020.
