 Gaussian 09, Revision D.01,
 Gaussian 09:  ES64L-G09RevD.01 24-Apr-2013

 --------------------
 #p B2PLYPD3/Def2QZVP
 --------------------

 --------
 acrolein
 --------
 Symbolic Z-matrix:
 Charge =  0 Multiplicity = 1

                         Standard orientation:
 ---------------------------------------------------------------------
 Center     Atomic      Atomic             Coordinates (Angstroms)
 Number     Number       Type             X           Y           Z
 ---------------------------------------------------------------------
      1          6           0        0.657249    0.395368    0.063617
      2          8           0        1.774225   -0.158124   -0.064190
      3          6           0       -0.570246   -0.416036    0.109453
      4          6           0       -1.735692    0.106748   -0.069643
      5          1           0       -0.372874   -1.510376   -0.011044
      6          1           0       -1.822236    1.155830    0.000432
      7          1           0       -2.661672   -0.405425   -0.111802
      8          1           0        0.555122    1.508480    0.015382
 ---------------------------------------------------------------------

 SCF Done:  E(RB2PLYPD3) =  -191.604820244     A.U. after   13 cycles
 E2(B2PLYPD3) =    -0.2487519645D+00 E(B2PLYPD3) =    -0.19185357220878D+03

 The electronic state is 1-A.
 Alpha  occ. eigenvalues --  -19.72993 -10.72452 -10.64349 -10.64177  -1.17239
 Alpha  occ. eigenvalues --   -0.94033  -0.75788  -0.66840  -0.57122  -0.56433
 Alpha  occ. eigenvalues --   -0.50313  -0.45807  -0.45450  -0.35298  -0.34107
 Alpha virt. eigenvalues --   -0.01899   0.05744   0.07096   0.07520   0.09897
 Alpha virt. eigenvalues --    0.12352   0.13758   0.15210   0.17310   0.19641
 Alpha virt. eigenvalues --    0.20265   0.21938   0.24334   0.26807   0.29099

 Mulliken charges:
               1
     1  C    0.158972
     2  O   -0.368783
     3  C   -0.042650
     4  C   -0.109275
     5  H    0.108694
     6  H    0.071660
     7  H    0.098920
     8  H    0.082461
 Sum of Mulliken charges =   0.00000

 Dipole moment (field-independent basis, Debye):
    X=             -3.5425    Y=              0.9891    Z=              0.1102  Tot=              3.6797
 Quadrupole moment (field-independent basis, Debye-Ang):
   XX=            -27.4531   YY=            -21.7313   ZZ=            -25.1345
   XY=              1.1461   XZ=              0.5762   YZ=              0.1644

 Normal termination of Gaussian 09 at Wed Aug 26 11:20:57 2020.
