 Gaussian 09, Revision D.01,
 Gaussian 09:  ES64L-G09RevD.01 24-Apr-2013

 --------------------
 #p B2PLYPD3/Def2QZVP
 --------------------

 --------
 acrolein
 --------
 Symbolic Z-matrix:
 Charge =  0 Multiplicity = 1

                         Standard orientation:
 ---------------------------------------------------------------------
 Center     Atomic      Atomic             Coordinates (Angstroms)
 Number     Number       Type             X           Y           Z
 ---------------------------------------------------------------------
      1          6           0        0.681330    0.362036    0.018183
      2          8           0        1.786388   -0.134535   -0.018427
      3          6           0       -0.561375   -0.445940    0.032719
      4          6           0       -1.753623    0.136649   -0.021939
      5          1           0       -0.471983   -1.495088   -0.014440
      6          1           0       -1.811921    1.204180    0.002140
      7          1           0       -2.701962   -0.416621   -0.022642
      8          1           0        0.496770    1.467343    0.008588
 ---------------------------------------------------------------------

 SCF Done:  E(RB2PLYPD3) =  -191.615396648     A.U. after   12 cycles
 E2(B2PLYPD3) =    -0.2471804742D+00 E(B2PLYPD3) =    -0.19186257712219D+03

 The electronic state is 1-A.
 Alpha  occ. eigenvalues --  -19.73052 -10.72028 -10.65223 -10.63977  -1.19593
 Alpha  occ. eigenvalues --   -0.92998  -0.75098  -0.67296  -0.56442  -0.56376
 Alpha  occ. eigenvalues --   -0.50741  -0.46949  -0.46768  -0.34724  -0.33946
 Alpha virt. eigenvalues --   -0.01608   0.05760   0.07258   0.08002   0.09777
 Alpha virt. eigenvalues --    0.12539   0.13913   0.15358   0.17685   0.19879
 Alpha virt. eigenvalues --    0.19915   0.21420   0.25420   0.26439   0.28815

 Mulliken charges:
               1
     1  C    0.153890
     2  O   -0.345270
     3  C   -0.040278
     4  C   -0.129665
     5  H    0.108076
     6  H    0.079536
     7  H    0.100109
     8  H    0.073602
 Sum of Mulliken charges =   0.00000

 Dipole moment (field-independent basis, Debye):
    X=             -3.4168    Y=              0.7996    Z=              0.0315  Tot=              3.5093
 Quadrupole moment (field-independent basis, Debye-Ang):
   XX=            -27.3829   YY=            -21.7978   ZZ=            -25.2076
   XY=              1.0526   XZ=              0.1519   YZ=              0.0602

 Normal termination of Gaussian 09 at Wed Aug 26 09:22:22 2020.
