 Gaussian 09, Revision D.01,
 Gaussian 09:  ES64L-G09RevD.01 24-Apr-2013

 --------------------
 #p B2PLYPD3/Def2QZVP
 --------------------

 --------
 acrolein
 --------
 Symbolic Z-matrix:
 Charge =  0 Multiplicity = 1

                         Standard orientation:
 ---------------------------------------------------------------------
 Center     Atomic      Atomic             Coordinates (Angstroms)
 Number     Number       Type             X           Y           Z
 ---------------------------------------------------------------------
      1          6           0        0.663863    0.333022    0.004058
      2          8           0        1.793451   -0.104083   -0.004735
      3          6           0       -0.558141   -0.455381    0.004687
      4          6           0       -1.749019    0.146757   -0.012055
      5          1           0       -0.435521   -1.553126   -0.005459
      6          1           0       -1.854832    1.264156   -0.026810
      7          1           0       -2.685804   -0.432899    0.048863
      8          1           0        0.488330    1.408142    0.041145
 ---------------------------------------------------------------------

 SCF Done:  E(RB2PLYPD3) =  -191.614492815     A.U. after   13 cycles
 E2(B2PLYPD3) =    -0.2475229388D+00 E(B2PLYPD3) =    -0.19186201575338D+03

 The electronic state is 1-A.
 Alpha  occ. eigenvalues --  -19.72688 -10.71191 -10.66340 -10.64658  -1.19369
 Alpha  occ. eigenvalues --   -0.93126  -0.75500  -0.66746  -0.56483  -0.56013
 Alpha  occ. eigenvalues --   -0.50421  -0.46788  -0.46473  -0.34768  -0.33800
 Alpha virt. eigenvalues --   -0.01930   0.05605   0.06994   0.08353   0.09673
 Alpha virt. eigenvalues --    0.12497   0.13969   0.15313   0.17453   0.19466
 Alpha virt. eigenvalues --    0.19997   0.21476   0.25446   0.26607   0.28640

 Mulliken charges:
               1
     1  C    0.158159
     2  O   -0.351610
     3  C   -0.033805
     4  C   -0.128371
     5  H    0.102294
     6  H    0.085460
     7  H    0.102308
     8  H    0.065564
 Sum of Mulliken charges =   0.00000

 Dipole moment (field-independent basis, Debye):
    X=             -3.5836    Y=              0.6948    Z=              0.0431  Tot=              3.6506
 Quadrupole moment (field-independent basis, Debye-Ang):
   XX=            -27.5063   YY=            -21.7500   ZZ=            -25.2601
   XY=              0.7500   XZ=             -0.0505   YZ=             -0.0341

 Normal termination of Gaussian 09 at Wed Aug 26 15:41:42 2020.
