 Gaussian 09, Revision D.01,
 Gaussian 09:  ES64L-G09RevD.01 24-Apr-2013

 --------------------
 #p B2PLYPD3/Def2QZVP
 --------------------

 --------
 acrolein
 --------
 Symbolic Z-matrix:
 Charge =  0 Multiplicity = 1

                         Standard orientation:
 ---------------------------------------------------------------------
 Center     Atomic      Atomic             Coordinates (Angstroms)
 Number     Number       Type             X           Y           Z
 ---------------------------------------------------------------------
      1          6           0        0.672220    0.355366   -0.002909
      2          8           0        1.783072   -0.128297    0.015109
      3          6           0       -0.563610   -0.447630   -0.028518
      4          6           0       -1.752077    0.140744    0.006578
      5          1           0       -0.453704   -1.522326   -0.013076
      6          1           0       -1.826470    1.206630    0.009891
      7          1           0       -2.659341   -0.410839    0.073791
      8          1           0        0.535738    1.462033   -0.042380
 ---------------------------------------------------------------------

 SCF Done:  E(RB2PLYPD3) =  -191.616902226     A.U. after   12 cycles
 E2(B2PLYPD3) =    -0.2468759355D+00 E(B2PLYPD3) =    -0.19186377816169D+03

 The electronic state is 1-A.
 Alpha  occ. eigenvalues --  -19.72808 -10.71716 -10.64941 -10.64280  -1.19474
 Alpha  occ. eigenvalues --   -0.93133  -0.75429  -0.67007  -0.56690  -0.56591
 Alpha  occ. eigenvalues --   -0.50623  -0.47070  -0.46716  -0.34751  -0.33829
 Alpha virt. eigenvalues --   -0.01611   0.05823   0.07181   0.08136   0.09769
 Alpha virt. eigenvalues --    0.12589   0.14079   0.15367   0.17423   0.19845
 Alpha virt. eigenvalues --    0.19995   0.21718   0.25519   0.26328   0.28830

 Mulliken charges:
               1
     1  C    0.154301
     2  O   -0.347934
     3  C   -0.040071
     4  C   -0.129485
     5  H    0.105896
     6  H    0.083457
     7  H    0.102018
     8  H    0.071818
 Sum of Mulliken charges =   0.00000

 Dipole moment (field-independent basis, Debye):
    X=             -3.4580    Y=              0.7808    Z=              0.0120  Tot=              3.5451
 Quadrupole moment (field-independent basis, Debye-Ang):
   XX=            -27.4180   YY=            -21.7144   ZZ=            -25.1697
   XY=              1.0036   XZ=             -0.2791   YZ=             -0.0435

 Normal termination of Gaussian 09 at Wed Aug 26 14:06:09 2020.
