 Gaussian 09, Revision D.01,
 Gaussian 09:  ES64L-G09RevD.01 24-Apr-2013

 --------------------
 #p B2PLYPD3/Def2QZVP
 --------------------

 --------
 acrolein
 --------
 Symbolic Z-matrix:
 Charge =  0 Multiplicity = 1

                         Standard orientation:
 ---------------------------------------------------------------------
 Center     Atomic      Atomic             Coordinates (Angstroms)
 Number     Number       Type             X           Y           Z
 ---------------------------------------------------------------------
      1          6           0        0.680615    0.342608   -0.048127
      2          8           0        1.799932   -0.106448    0.056666
      3          6           0       -0.568260   -0.495082   -0.045862
      4          6           0       -1.768415    0.169149    0.007679
      5          1           0       -0.498230   -1.615676    0.003736
      6          1           0       -1.938081    1.278172    0.282360
      7          1           0       -2.566868   -0.426293    0.008224
      8          1           0        0.540083    1.515330   -0.229786
 ---------------------------------------------------------------------

 SCF Done:  E(RB2PLYPD3) =  -191.592492982     A.U. after   13 cycles
 E2(B2PLYPD3) =    -0.2494400064D+00 E(B2PLYPD3) =    -0.19184193298844D+03

 The electronic state is 1-A.
 Alpha  occ. eigenvalues --  -19.72933 -10.72616 -10.66012 -10.65723  -1.19528
 Alpha  occ. eigenvalues --   -0.91861  -0.75011  -0.65167  -0.56335  -0.55319
 Alpha  occ. eigenvalues --   -0.49844  -0.47599  -0.46402  -0.34013  -0.33440
 Alpha virt. eigenvalues --   -0.02087   0.05635   0.06659   0.07359   0.09528
 Alpha virt. eigenvalues --    0.12461   0.13912   0.15473   0.16902   0.19211
 Alpha virt. eigenvalues --    0.20202   0.21904   0.24045   0.26004   0.27644

 Mulliken charges:
               1
     1  C    0.160294
     2  O   -0.337465
     3  C   -0.063481
     4  C   -0.122348
     5  H    0.106042
     6  H    0.093471
     7  H    0.100604
     8  H    0.062882
 Sum of Mulliken charges =   0.00000

 Dipole moment (field-independent basis, Debye):
    X=             -3.4618    Y=              0.5988    Z=              0.0174  Tot=              3.5132
 Quadrupole moment (field-independent basis, Debye-Ang):
   XX=            -27.7499   YY=            -21.4680   ZZ=            -25.4668
   XY=              0.7558   XZ=             -0.8180   YZ=              0.2417

 Normal termination of Gaussian 09 at Wed Aug 26 14:50:47 2020.
