 Gaussian 09, Revision D.01,
 Gaussian 09:  ES64L-G09RevD.01 24-Apr-2013

 --------------------
 #p B2PLYPD3/Def2QZVP
 --------------------

 --------
 acrolein
 --------
 Symbolic Z-matrix:
 Charge =  0 Multiplicity = 1

                         Standard orientation:
 ---------------------------------------------------------------------
 Center     Atomic      Atomic             Coordinates (Angstroms)
 Number     Number       Type             X           Y           Z
 ---------------------------------------------------------------------
      1          6           0       -0.673418    0.340761    0.014166
      2          8           0       -1.800954   -0.103950    0.005437
      3          6           0        0.557885   -0.471881   -0.030670
      4          6           0        1.762764    0.140384   -0.004230
      5          1           0        0.479561   -1.523227    0.017811
      6          1           0        1.920413    1.317469    0.011229
      7          1           0        2.594256   -0.445221    0.090479
      8          1           0       -0.469983    1.426988   -0.038609
 ---------------------------------------------------------------------

 SCF Done:  E(RB2PLYPD3) =  -191.605209530     A.U. after   12 cycles
 E2(B2PLYPD3) =    -0.2479492080D+00 E(B2PLYPD3) =    -0.19185315873763D+03

 The electronic state is 1-A.
 Alpha  occ. eigenvalues --  -19.72834 -10.71618 -10.66179 -10.64522  -1.19369
 Alpha  occ. eigenvalues --   -0.92693  -0.75617  -0.66864  -0.56736  -0.55632
 Alpha  occ. eigenvalues --   -0.50543  -0.47032  -0.46631  -0.34463  -0.33762
 Alpha virt. eigenvalues --   -0.01981   0.05539   0.07194   0.07978   0.09563
 Alpha virt. eigenvalues --    0.12420   0.13944   0.15332   0.17746   0.19130
 Alpha virt. eigenvalues --    0.19957   0.21830   0.25087   0.26577   0.28338

 Mulliken charges:
               1
     1  C    0.162641
     2  O   -0.348158
     3  C   -0.050582
     4  C   -0.127928
     5  H    0.106016
     6  H    0.083386
     7  H    0.104172
     8  H    0.070452
 Sum of Mulliken charges =   0.00000

 Dipole moment (field-independent basis, Debye):
    X=              3.5519    Y=              0.6678    Z=              0.0996  Tot=              3.6155
 Quadrupole moment (field-independent basis, Debye-Ang):
   XX=            -27.6563   YY=            -21.5885   ZZ=            -25.3051
   XY=             -0.7590   XZ=              0.3006   YZ=             -0.1020

 Normal termination of Gaussian 09 at Wed Aug 26 20:15:03 2020.
