 Gaussian 09, Revision D.01,
 Gaussian 09:  ES64L-G09RevD.01 24-Apr-2013

 --------------------
 #p B2PLYPD3/Def2QZVP
 --------------------

 --------
 acrolein
 --------
 Symbolic Z-matrix:
 Charge =  0 Multiplicity = 1

                         Standard orientation:
 ---------------------------------------------------------------------
 Center     Atomic      Atomic             Coordinates (Angstroms)
 Number     Number       Type             X           Y           Z
 ---------------------------------------------------------------------
      1          6           0        0.676754    0.356159    0.011094
      2          8           0        1.790577   -0.124437   -0.022471
      3          6           0       -0.562750   -0.444210    0.019134
      4          6           0       -1.754533    0.137277   -0.011017
      5          1           0       -0.460250   -1.535799    0.054013
      6          1           0       -1.831855    1.215464   -0.052543
      7          1           0       -2.685336   -0.407101   -0.038603
      8          1           0        0.496006    1.427574    0.101637
 ---------------------------------------------------------------------

 SCF Done:  E(RB2PLYPD3) =  -191.616472915     A.U. after   12 cycles
 E2(B2PLYPD3) =    -0.2471166329D+00 E(B2PLYPD3) =    -0.19186358954821D+03

 The electronic state is 1-A.
 Alpha  occ. eigenvalues --  -19.72951 -10.71640 -10.65237 -10.64392  -1.19414
 Alpha  occ. eigenvalues --   -0.93040  -0.75541  -0.67064  -0.56641  -0.56355
 Alpha  occ. eigenvalues --   -0.50839  -0.46817  -0.46377  -0.34776  -0.33971
 Alpha virt. eigenvalues --   -0.01689   0.05765   0.07157   0.08117   0.09713
 Alpha virt. eigenvalues --    0.12613   0.14131   0.15355   0.17450   0.19598
 Alpha virt. eigenvalues --    0.20092   0.21590   0.25465   0.26592   0.28713

 Mulliken charges:
               1
     1  C    0.155871
     2  O   -0.348386
     3  C   -0.038531
     4  C   -0.130324
     5  H    0.102735
     6  H    0.078883
     7  H    0.102655
     8  H    0.077096
 Sum of Mulliken charges =   0.00000

 Dipole moment (field-independent basis, Debye):
    X=             -3.4716    Y=              0.7998    Z=              0.0678  Tot=              3.5632
 Quadrupole moment (field-independent basis, Debye-Ang):
   XX=            -27.4129   YY=            -21.7763   ZZ=            -25.1922
   XY=              0.9498   XZ=              0.2681   YZ=             -0.0664

 Normal termination of Gaussian 09 at Wed Aug 26 16:39:28 2020.
