 Gaussian 09, Revision D.01,
 Gaussian 09:  ES64L-G09RevD.01 24-Apr-2013

 --------------------
 #p B2PLYPD3/Def2QZVP
 --------------------

 --------
 acrolein
 --------
 Symbolic Z-matrix:
 Charge =  0 Multiplicity = 1

                         Standard orientation:
 ---------------------------------------------------------------------
 Center     Atomic      Atomic             Coordinates (Angstroms)
 Number     Number       Type             X           Y           Z
 ---------------------------------------------------------------------
      1          6           0       -0.670659    0.351214   -0.008889
      2          8           0       -1.788010   -0.114148    0.010880
      3          6           0        0.566316   -0.463025   -0.025575
      4          6           0        1.747662    0.141929   -0.001598
      5          1           0        0.438574   -1.560989    0.038295
      6          1           0        1.862462    1.266610    0.029281
      7          1           0        2.652726   -0.406533    0.058075
      8          1           0       -0.509600    1.433383    0.003681
 ---------------------------------------------------------------------

 SCF Done:  E(RB2PLYPD3) =  -191.614386827     A.U. after   12 cycles
 E2(B2PLYPD3) =    -0.2472054369D+00 E(B2PLYPD3) =    -0.19186159226432D+03

 The electronic state is 1-A.
 Alpha  occ. eigenvalues --  -19.72777 -10.71501 -10.65583 -10.64682  -1.19483
 Alpha  occ. eigenvalues --   -0.92866  -0.75228  -0.66714  -0.56631  -0.56010
 Alpha  occ. eigenvalues --   -0.50683  -0.46757  -0.46342  -0.34786  -0.33799
 Alpha virt. eigenvalues --   -0.01531   0.05688   0.07074   0.08062   0.09664
 Alpha virt. eigenvalues --    0.12510   0.14093   0.15337   0.17366   0.19575
 Alpha virt. eigenvalues --    0.19953   0.21689   0.25371   0.26577   0.28626

 Mulliken charges:
               1
     1  C    0.159470
     2  O   -0.348482
     3  C   -0.045926
     4  C   -0.126226
     5  H    0.104723
     6  H    0.080439
     7  H    0.101870
     8  H    0.074134
 Sum of Mulliken charges =   0.00000

 Dipole moment (field-independent basis, Debye):
    X=              3.4678    Y=              0.7542    Z=              0.0783  Tot=              3.5497
 Quadrupole moment (field-independent basis, Debye-Ang):
   XX=            -27.5445   YY=            -21.6329   ZZ=            -25.2513
   XY=             -0.8203   XZ=              0.2719   YZ=             -0.0630

 Normal termination of Gaussian 09 at Wed Aug 26 14:09:10 2020.
