 Gaussian 09, Revision D.01,
 Gaussian 09:  ES64L-G09RevD.01 24-Apr-2013

 --------------------
 #p B2PLYPD3/Def2QZVP
 --------------------

 --------
 acrolein
 --------
 Symbolic Z-matrix:
 Charge =  0 Multiplicity = 1

                         Standard orientation:
 ---------------------------------------------------------------------
 Center     Atomic      Atomic             Coordinates (Angstroms)
 Number     Number       Type             X           Y           Z
 ---------------------------------------------------------------------
      1          6           0       -0.659185    0.316632    0.021762
      2          8           0       -1.810625   -0.082420   -0.035967
      3          6           0        0.535379   -0.458315    0.060428
      4          6           0        1.780344    0.129651   -0.021964
      5          1           0        0.366922   -1.514079   -0.035838
      6          1           0        1.929144    1.236966   -0.092966
      7          1           0        2.694242   -0.393977   -0.056514
      8          1           0       -0.444535    1.402639    0.111695
 ---------------------------------------------------------------------

 SCF Done:  E(RB2PLYPD3) =  -191.607314337     A.U. after   13 cycles
 E2(B2PLYPD3) =    -0.2489514191D+00 E(B2PLYPD3) =    -0.19185626575651D+03

 The electronic state is 1-A.
 Alpha  occ. eigenvalues --  -19.72670 -10.71156 -10.67137 -10.65081  -1.18786
 Alpha  occ. eigenvalues --   -0.92915  -0.76965  -0.66806  -0.57258  -0.55522
 Alpha  occ. eigenvalues --   -0.50479  -0.47150  -0.46506  -0.34222  -0.33725
 Alpha virt. eigenvalues --   -0.03133   0.05519   0.07326   0.08437   0.09624
 Alpha virt. eigenvalues --    0.12517   0.13803   0.15349   0.17643   0.19260
 Alpha virt. eigenvalues --    0.20085   0.21555   0.24933   0.26569   0.28578

 Mulliken charges:
               1
     1  C    0.163275
     2  O   -0.359304
     3  C   -0.031286
     4  C   -0.120012
     5  H    0.104435
     6  H    0.083919
     7  H    0.106120
     8  H    0.052852
 Sum of Mulliken charges =   0.00000

 Dipole moment (field-independent basis, Debye):
    X=              3.8633    Y=              0.6010    Z=             -0.0255  Tot=              3.9099
 Quadrupole moment (field-independent basis, Debye-Ang):
   XX=            -27.0350   YY=            -22.0913   ZZ=            -25.2909
   XY=             -0.3457   XZ=             -0.5162   YZ=              0.0320

 Normal termination of Gaussian 09 at Wed Aug 26 13:28:23 2020.
