 Gaussian 09, Revision D.01,
 Gaussian 09:  ES64L-G09RevD.01 24-Apr-2013

 --------------------
 #p B2PLYPD3/Def2QZVP
 --------------------

 --------
 acrolein
 --------
 Symbolic Z-matrix:
 Charge =  0 Multiplicity = 1

                         Standard orientation:
 ---------------------------------------------------------------------
 Center     Atomic      Atomic             Coordinates (Angstroms)
 Number     Number       Type             X           Y           Z
 ---------------------------------------------------------------------
      1          6           0       -0.660076    0.340718   -0.011247
      2          8           0       -1.791976   -0.107714    0.007210
      3          6           0        0.562442   -0.454973    0.003863
      4          6           0        1.751222    0.145675    0.000720
      5          1           0        0.432548   -1.541707   -0.007198
      6          1           0        1.845317    1.223134    0.054067
      7          1           0        2.635567   -0.409998   -0.028923
      8          1           0       -0.499147    1.401756   -0.035645
 ---------------------------------------------------------------------

 SCF Done:  E(RB2PLYPD3) =  -191.615496711     A.U. after   12 cycles
 E2(B2PLYPD3) =    -0.2470245024D+00 E(B2PLYPD3) =    -0.19186252121313D+03

 The electronic state is 1-A.
 Alpha  occ. eigenvalues --  -19.72630 -10.71095 -10.65220 -10.64481  -1.18951
 Alpha  occ. eigenvalues --   -0.93367  -0.76133  -0.67310  -0.56781  -0.56654
 Alpha  occ. eigenvalues --   -0.50551  -0.47175  -0.46506  -0.34723  -0.33833
 Alpha virt. eigenvalues --   -0.01912   0.05774   0.07205   0.08236   0.09732
 Alpha virt. eigenvalues --    0.12728   0.14120   0.15305   0.17393   0.19754
 Alpha virt. eigenvalues --    0.20079   0.21856   0.25403   0.26628   0.28678

 Mulliken charges:
               1
     1  C    0.155051
     2  O   -0.356543
     3  C   -0.033712
     4  C   -0.131860
     5  H    0.103273
     6  H    0.086814
     7  H    0.103838
     8  H    0.073139
 Sum of Mulliken charges =   0.00000

 Dipole moment (field-independent basis, Debye):
    X=              3.6010    Y=              0.7426    Z=             -0.0276  Tot=              3.6769
 Quadrupole moment (field-independent basis, Debye-Ang):
   XX=            -27.5314   YY=            -21.6669   ZZ=            -25.1372
   XY=             -0.7853   XZ=              0.0460   YZ=              0.0833

 Normal termination of Gaussian 09 at Wed Aug 26 14:35:31 2020.
