 Gaussian 09, Revision D.01,
 Gaussian 09:  ES64L-G09RevD.01 24-Apr-2013

 --------------------
 #p B2PLYPD3/Def2QZVP
 --------------------

 --------
 acrolein
 --------
 Symbolic Z-matrix:
 Charge =  0 Multiplicity = 1

                         Standard orientation:
 ---------------------------------------------------------------------
 Center     Atomic      Atomic             Coordinates (Angstroms)
 Number     Number       Type             X           Y           Z
 ---------------------------------------------------------------------
      1          6           0       -0.677028    0.383135   -0.074533
      2          8           0       -1.762788   -0.149275    0.067206
      3          6           0        0.527822   -0.406761   -0.054894
      4          6           0        1.742959    0.097572    0.063735
      5          1           0        0.491340   -1.446842   -0.027340
      6          1           0        1.825592    1.210053    0.235752
      7          1           0        2.714268   -0.403643   -0.136498
      8          1           0       -0.491414    1.390957   -0.215405
 ---------------------------------------------------------------------

 SCF Done:  E(RB2PLYPD3) =  -191.600848487     A.U. after   14 cycles
 E2(B2PLYPD3) =    -0.2473109669D+00 E(B2PLYPD3) =    -0.19184815945444D+03

 The electronic state is 1-A.
 Alpha  occ. eigenvalues --  -19.72889 -10.71034 -10.65761 -10.63160  -1.19309
 Alpha  occ. eigenvalues --   -0.93442  -0.76174  -0.68132  -0.57126  -0.56285
 Alpha  occ. eigenvalues --   -0.51171  -0.46684  -0.45412  -0.34834  -0.33854
 Alpha virt. eigenvalues --   -0.02217   0.05624   0.07470   0.08132   0.09736
 Alpha virt. eigenvalues --    0.12393   0.14069   0.15801   0.17605   0.18511
 Alpha virt. eigenvalues --    0.19977   0.21659   0.25403   0.26657   0.29028

 Mulliken charges:
               1
     1  C    0.149247
     2  O   -0.350039
     3  C   -0.040482
     4  C   -0.120374
     5  H    0.107774
     6  H    0.056049
     7  H    0.103222
     8  H    0.094603
 Sum of Mulliken charges =   0.00000

 Dipole moment (field-independent basis, Debye):
    X=              3.4061    Y=              0.9229    Z=             -0.2812  Tot=              3.5401
 Quadrupole moment (field-independent basis, Debye-Ang):
   XX=            -27.2592   YY=            -21.9324   ZZ=            -25.0117
   XY=             -1.3003   XZ=              0.2883   YZ=              0.1982

 Normal termination of Gaussian 09 at Wed Aug 26 10:44:57 2020.
