 Gaussian 09, Revision D.01,
 Gaussian 09:  ES64L-G09RevD.01 24-Apr-2013

 --------------------
 #p B2PLYPD3/Def2QZVP
 --------------------

 --------
 acrolein
 --------
 Symbolic Z-matrix:
 Charge =  0 Multiplicity = 1

                         Standard orientation:
 ---------------------------------------------------------------------
 Center     Atomic      Atomic             Coordinates (Angstroms)
 Number     Number       Type             X           Y           Z
 ---------------------------------------------------------------------
      1          6           0       -0.669138    0.341921    0.023321
      2          8           0       -1.791542   -0.113022   -0.017808
      3          6           0        0.567599   -0.462448    0.003384
      4          6           0        1.751197    0.156140   -0.012390
      5          1           0        0.449084   -1.570522    0.030270
      6          1           0        1.825656    1.228951   -0.051429
      7          1           0        2.659712   -0.422511    0.024123
      8          1           0       -0.500067    1.454582    0.053614
 ---------------------------------------------------------------------

 SCF Done:  E(RB2PLYPD3) =  -191.615563681     A.U. after   12 cycles
 E2(B2PLYPD3) =    -0.2475557401D+00 E(B2PLYPD3) =    -0.19186311942077D+03

 The electronic state is 1-A.
 Alpha  occ. eigenvalues --  -19.72846 -10.71795 -10.65438 -10.64863  -1.19428
 Alpha  occ. eigenvalues --   -0.92938  -0.75259  -0.66457  -0.56390  -0.56290
 Alpha  occ. eigenvalues --   -0.50352  -0.47058  -0.46691  -0.34695  -0.33743
 Alpha virt. eigenvalues --   -0.01725   0.05784   0.06924   0.08101   0.09738
 Alpha virt. eigenvalues --    0.12606   0.13959   0.15318   0.17183   0.19786
 Alpha virt. eigenvalues --    0.20062   0.21634   0.25327   0.26448   0.28666

 Mulliken charges:
               1
     1  C    0.156683
     2  O   -0.347232
     3  C   -0.036293
     4  C   -0.132521
     5  H    0.102112
     6  H    0.089728
     7  H    0.103086
     8  H    0.064438
 Sum of Mulliken charges =   0.00000

 Dipole moment (field-independent basis, Debye):
    X=              3.5000    Y=              0.7096    Z=              0.0875  Tot=              3.5723
 Quadrupole moment (field-independent basis, Debye-Ang):
   XX=            -27.5809   YY=            -21.6682   ZZ=            -25.2809
   XY=             -0.8275   XZ=             -0.0886   YZ=             -0.1042

 Normal termination of Gaussian 09 at Wed Aug 26 16:11:29 2020.
