 Gaussian 09, Revision D.01,
 Gaussian 09:  ES64L-G09RevD.01 24-Apr-2013

 --------------------
 #p B2PLYPD3/Def2QZVP
 --------------------

 --------
 acrolein
 --------
 Symbolic Z-matrix:
 Charge =  0 Multiplicity = 1

                         Standard orientation:
 ---------------------------------------------------------------------
 Center     Atomic      Atomic             Coordinates (Angstroms)
 Number     Number       Type             X           Y           Z
 ---------------------------------------------------------------------
      1          6           0       -0.683903    0.355225    0.026288
      2          8           0       -1.785484   -0.139291   -0.028130
      3          6           0        0.547971   -0.425460   -0.001565
      4          6           0        1.760445    0.132916   -0.001265
      5          1           0        0.446543   -1.471963    0.111472
      6          1           0        1.822434    1.170480   -0.086099
      7          1           0        2.748824   -0.468383   -0.043331
      8          1           0       -0.481011    1.508107    0.102249
 ---------------------------------------------------------------------

 SCF Done:  E(RB2PLYPD3) =  -191.607312761     A.U. after   13 cycles
 E2(B2PLYPD3) =    -0.2479421757D+00 E(B2PLYPD3) =    -0.19185525493641D+03

 The electronic state is 1-A.
 Alpha  occ. eigenvalues --  -19.73238 -10.72356 -10.65845 -10.64026  -1.19951
 Alpha  occ. eigenvalues --   -0.93108  -0.75278  -0.66727  -0.56393  -0.56029
 Alpha  occ. eigenvalues --   -0.50451  -0.47308  -0.46509  -0.34739  -0.33927
 Alpha virt. eigenvalues --   -0.01982   0.05618   0.07010   0.08215   0.09811
 Alpha virt. eigenvalues --    0.12352   0.13591   0.15158   0.17751   0.19633
 Alpha virt. eigenvalues --    0.20153   0.21248   0.25146   0.26449   0.28813

 Mulliken charges:
               1
     1  C    0.155062
     2  O   -0.340800
     3  C   -0.029790
     4  C   -0.129944
     5  H    0.105936
     6  H    0.084254
     7  H    0.099590
     8  H    0.055691
 Sum of Mulliken charges =   0.00000

 Dipole moment (field-independent basis, Debye):
    X=              3.4398    Y=              0.7306    Z=              0.1094  Tot=              3.5183
 Quadrupole moment (field-independent basis, Debye-Ang):
   XX=            -27.1887   YY=            -22.0741   ZZ=            -25.2491
   XY=             -1.0198   XZ=             -0.3099   YZ=             -0.2002

 Normal termination of Gaussian 09 at Wed Aug 26 08:35:45 2020.
