 Gaussian 09, Revision D.01,
 Gaussian 09:  ES64L-G09RevD.01 24-Apr-2013

 --------------------
 #p B2PLYPD3/Def2QZVP
 --------------------

 --------
 acrolein
 --------
 Symbolic Z-matrix:
 Charge =  0 Multiplicity = 1

                         Standard orientation:
 ---------------------------------------------------------------------
 Center     Atomic      Atomic             Coordinates (Angstroms)
 Number     Number       Type             X           Y           Z
 ---------------------------------------------------------------------
      1          6           0        0.647937    0.331974    0.047054
      2          8           0        1.800260   -0.096520   -0.039091
      3          6           0       -0.571554   -0.471852    0.028104
      4          6           0       -1.737526    0.150860   -0.032468
      5          1           0       -0.400889   -1.631673    0.015905
      6          1           0       -1.789036    1.320704   -0.100363
      7          1           0       -2.700851   -0.411657    0.031514
      8          1           0        0.455558    1.428892    0.109538
 ---------------------------------------------------------------------

 SCF Done:  E(RB2PLYPD3) =  -191.602457973     A.U. after   13 cycles
 E2(B2PLYPD3) =    -0.2496080675D+00 E(B2PLYPD3) =    -0.19185206604042D+03

 The electronic state is 1-A.
 Alpha  occ. eigenvalues --  -19.72844 -10.71849 -10.66944 -10.65435  -1.18154
 Alpha  occ. eigenvalues --   -0.93322  -0.75023  -0.65612  -0.56126  -0.55153
 Alpha  occ. eigenvalues --   -0.50029  -0.46163  -0.45542  -0.34993  -0.33836
 Alpha virt. eigenvalues --   -0.02044   0.05350   0.06432   0.07972   0.09669
 Alpha virt. eigenvalues --    0.12287   0.13740   0.15252   0.16832   0.19081
 Alpha virt. eigenvalues --    0.20071   0.21292   0.25231   0.26662   0.28954

 Mulliken charges:
               1
     1  C    0.163551
     2  O   -0.360226
     3  C   -0.034583
     4  C   -0.119704
     5  H    0.099995
     6  H    0.082288
     7  H    0.105700
     8  H    0.062979
 Sum of Mulliken charges =   0.00000

 Dipole moment (field-independent basis, Debye):
    X=             -3.6528    Y=              0.6582    Z=              0.1376  Tot=              3.7141
 Quadrupole moment (field-independent basis, Debye-Ang):
   XX=            -27.8560   YY=            -21.6462   ZZ=            -25.4453
   XY=              0.6825   XZ=              0.2473   YZ=             -0.1115

 Normal termination of Gaussian 09 at Wed Aug 26 13:23:48 2020.
