 Gaussian 09, Revision D.01,
 Gaussian 09:  ES64L-G09RevD.01 24-Apr-2013

 --------------------
 #p B2PLYPD3/Def2QZVP
 --------------------

 --------
 acrolein
 --------
 Symbolic Z-matrix:
 Charge =  0 Multiplicity = 1

                         Standard orientation:
 ---------------------------------------------------------------------
 Center     Atomic      Atomic             Coordinates (Angstroms)
 Number     Number       Type             X           Y           Z
 ---------------------------------------------------------------------
      1          6           0        0.663480    0.374997    0.087606
      2          8           0        1.779446   -0.156838   -0.065907
      3          6           0       -0.549151   -0.429669    0.033741
      4          6           0       -1.737473    0.135248   -0.069199
      5          1           0       -0.441294   -1.470332    0.113989
      6          1           0       -1.683046    1.053122   -0.155735
      7          1           0       -2.836172   -0.395905    0.106468
      8          1           0        0.463802    1.584368    0.149647
 ---------------------------------------------------------------------

 SCF Done:  E(RB2PLYPD3) =  -191.563091469     A.U. after   13 cycles
 E2(B2PLYPD3) =    -0.2503626892D+00 E(B2PLYPD3) =    -0.19181345415865D+03

 The electronic state is 1-A.
 Alpha  occ. eigenvalues --  -19.73501 -10.73493 -10.64909 -10.63934  -1.18003
 Alpha  occ. eigenvalues --   -0.94343  -0.75581  -0.67424  -0.56387  -0.55342
 Alpha  occ. eigenvalues --   -0.49831  -0.47008  -0.46052  -0.34887  -0.34022
 Alpha virt. eigenvalues --   -0.02505   0.05445   0.06537   0.07699   0.09860
 Alpha virt. eigenvalues --    0.12055   0.13602   0.15302   0.16993   0.19210
 Alpha virt. eigenvalues --    0.20464   0.21780   0.25079   0.26049   0.29315

 Mulliken charges:
               1
     1  C    0.148610
     2  O   -0.355273
     3  C   -0.012191
     4  C   -0.145864
     5  H    0.109100
     6  H    0.096779
     7  H    0.101044
     8  H    0.057795
 Sum of Mulliken charges =   0.00000

 Dipole moment (field-independent basis, Debye):
    X=             -3.5030    Y=              0.8240    Z=              0.3506  Tot=              3.6156
 Quadrupole moment (field-independent basis, Debye-Ang):
   XX=            -27.3285   YY=            -22.0470   ZZ=            -25.2344
   XY=              1.1423   XZ=              0.1393   YZ=             -0.2901

 Normal termination of Gaussian 09 at Wed Aug 26 11:05:07 2020.
