 Gaussian 09, Revision D.01,
 Gaussian 09:  ES64L-G09RevD.01 24-Apr-2013

 --------------------
 #p B2PLYPD3/Def2QZVP
 --------------------

 --------
 acrolein
 --------
 Symbolic Z-matrix:
 Charge =  0 Multiplicity = 1

                         Standard orientation:
 ---------------------------------------------------------------------
 Center     Atomic      Atomic             Coordinates (Angstroms)
 Number     Number       Type             X           Y           Z
 ---------------------------------------------------------------------
      1          6           0       -0.684541    0.366246    0.019183
      2          8           0       -1.775466   -0.140737   -0.021369
      3          6           0        0.561740   -0.440049    0.017538
      4          6           0        1.760421    0.138437   -0.024784
      5          1           0        0.468736   -1.514017    0.026470
      6          1           0        1.797809    1.198279   -0.057060
      7          1           0        2.659882   -0.417812    0.043439
      8          1           0       -0.548425    1.471647    0.086486
 ---------------------------------------------------------------------

 SCF Done:  E(RB2PLYPD3) =  -191.616120571     A.U. after   12 cycles
 E2(B2PLYPD3) =    -0.2465788703D+00 E(B2PLYPD3) =    -0.19186269944087D+03

 The electronic state is 1-A.
 Alpha  occ. eigenvalues --  -19.72920 -10.71808 -10.64658 -10.64161  -1.20072
 Alpha  occ. eigenvalues --   -0.92811  -0.75211  -0.67030  -0.56934  -0.56417
 Alpha  occ. eigenvalues --   -0.50848  -0.47045  -0.46943  -0.34572  -0.33886
 Alpha virt. eigenvalues --   -0.01475   0.05892   0.07196   0.08133   0.09829
 Alpha virt. eigenvalues --    0.12559   0.14044   0.15459   0.17464   0.19645
 Alpha virt. eigenvalues --    0.20058   0.21767   0.25552   0.26339   0.28957

 Mulliken charges:
               1
     1  C    0.152447
     2  O   -0.340509
     3  C   -0.043461
     4  C   -0.133454
     5  H    0.104603
     6  H    0.080758
     7  H    0.104362
     8  H    0.075254
 Sum of Mulliken charges =   0.00000

 Dipole moment (field-independent basis, Debye):
    X=              3.3228    Y=              0.8222    Z=              0.1116  Tot=              3.4249
 Quadrupole moment (field-independent basis, Debye-Ang):
   XX=            -27.3762   YY=            -21.7130   ZZ=            -25.1789
   XY=             -1.1967   XZ=             -0.0680   YZ=             -0.0815

 Normal termination of Gaussian 09 at Wed Aug 26 19:22:47 2020.
