 Gaussian 09, Revision D.01,
 Gaussian 09:  ES64L-G09RevD.01 24-Apr-2013

 --------------------
 #p B2PLYPD3/Def2QZVP
 --------------------

 --------
 acrolein
 --------
 Symbolic Z-matrix:
 Charge =  0 Multiplicity = 1

                         Standard orientation:
 ---------------------------------------------------------------------
 Center     Atomic      Atomic             Coordinates (Angstroms)
 Number     Number       Type             X           Y           Z
 ---------------------------------------------------------------------
      1          6           0        0.666693    0.354293    0.034124
      2          8           0        1.791576   -0.142967   -0.033609
      3          6           0       -0.564304   -0.416236    0.011004
      4          6           0       -1.748689    0.139231   -0.022557
      5          1           0       -0.486420   -1.439554    0.109075
      6          1           0       -1.782089    1.105178   -0.052343
      7          1           0       -2.707127   -0.441256   -0.020326
      8          1           0        0.520833    1.455642    0.097032
 ---------------------------------------------------------------------

 SCF Done:  E(RB2PLYPD3) =  -191.600708945     A.U. after   12 cycles
 E2(B2PLYPD3) =    -0.2471516806D+00 E(B2PLYPD3) =    -0.19184786062545D+03

 The electronic state is 1-A.
 Alpha  occ. eigenvalues --  -19.72975 -10.71923 -10.64253 -10.63323  -1.18376
 Alpha  occ. eigenvalues --   -0.94396  -0.76273  -0.68299  -0.57544  -0.56352
 Alpha  occ. eigenvalues --   -0.50470  -0.47650  -0.46176  -0.35052  -0.34071
 Alpha virt. eigenvalues --   -0.01994   0.05761   0.07205   0.08284   0.09837
 Alpha virt. eigenvalues --    0.12637   0.13887   0.15228   0.17772   0.19840
 Alpha virt. eigenvalues --    0.20481   0.21568   0.25574   0.26395   0.29108

 Mulliken charges:
               1
     1  C    0.141290
     2  O   -0.357738
     3  C   -0.016401
     4  C   -0.135066
     5  H    0.105224
     6  H    0.087870
     7  H    0.100695
     8  H    0.074125
 Sum of Mulliken charges =   0.00000

 Dipole moment (field-independent basis, Debye):
    X=             -3.5876    Y=              0.8377    Z=              0.1816  Tot=              3.6886
 Quadrupole moment (field-independent basis, Debye-Ang):
   XX=            -27.3635   YY=            -21.8907   ZZ=            -24.9785
   XY=              1.1854   XZ=              0.2239   YZ=             -0.1496

 Normal termination of Gaussian 09 at Wed Aug 26 20:49:50 2020.
