 Gaussian 09, Revision D.01,
 Gaussian 09:  ES64L-G09RevD.01 24-Apr-2013

 --------------------
 #p B2PLYPD3/Def2QZVP
 --------------------

 --------
 acrolein
 --------
 Symbolic Z-matrix:
 Charge =  0 Multiplicity = 1

                         Standard orientation:
 ---------------------------------------------------------------------
 Center     Atomic      Atomic             Coordinates (Angstroms)
 Number     Number       Type             X           Y           Z
 ---------------------------------------------------------------------
      1          6           0       -0.706972    0.368990    0.048994
      2          8           0       -1.771595   -0.152765   -0.053584
      3          6           0        0.567849   -0.463954    0.011978
      4          6           0        1.779570    0.133860   -0.052100
      5          1           0        0.423659   -1.443803    0.206818
      6          1           0        1.779184    1.175661   -0.101558
      7          1           0        2.650253   -0.400565    0.062479
      8          1           0       -0.523025    1.657452    0.207706
 ---------------------------------------------------------------------

 SCF Done:  E(RB2PLYPD3) =  -191.588217963     A.U. after   13 cycles
 E2(B2PLYPD3) =    -0.2481874547D+00 E(B2PLYPD3) =    -0.19183640541809D+03

 The electronic state is 1-A.
 Alpha  occ. eigenvalues --  -19.73910 -10.73752 -10.64385 -10.64218  -1.21587
 Alpha  occ. eigenvalues --   -0.92223  -0.74817  -0.65864  -0.57465  -0.55240
 Alpha  occ. eigenvalues --   -0.51102  -0.48670  -0.47284  -0.34300  -0.33410
 Alpha virt. eigenvalues --   -0.01428   0.05737   0.06728   0.07803   0.09881
 Alpha virt. eigenvalues --    0.12370   0.13360   0.15178   0.17359   0.19582
 Alpha virt. eigenvalues --    0.20045   0.21790   0.24647   0.26577   0.28840

 Mulliken charges:
               1
     1  C    0.163993
     2  O   -0.313940
     3  C   -0.049427
     4  C   -0.129984
     5  H    0.108428
     6  H    0.085794
     7  H    0.103249
     8  H    0.031886
 Sum of Mulliken charges =   0.00000

 Dipole moment (field-independent basis, Debye):
    X=              3.0982    Y=              0.5846    Z=              0.3696  Tot=              3.1744
 Quadrupole moment (field-independent basis, Debye-Ang):
   XX=            -27.0388   YY=            -22.1920   ZZ=            -25.3015
   XY=             -0.9505   XZ=             -0.0814   YZ=             -0.3913

 Normal termination of Gaussian 09 at Wed Aug 26 14:31:29 2020.
