 Gaussian 09, Revision D.01,
 Gaussian 09:  ES64L-G09RevD.01 24-Apr-2013

 --------------------
 #p B2PLYPD3/Def2QZVP
 --------------------

 --------
 acrolein
 --------
 Symbolic Z-matrix:
 Charge =  0 Multiplicity = 1

                         Standard orientation:
 ---------------------------------------------------------------------
 Center     Atomic      Atomic             Coordinates (Angstroms)
 Number     Number       Type             X           Y           Z
 ---------------------------------------------------------------------
      1          6           0        0.691010    0.363184   -0.024074
      2          8           0        1.784449   -0.132751    0.012277
      3          6           0       -0.556222   -0.441642    0.014645
      4          6           0       -1.768099    0.131549   -0.016038
      5          1           0       -0.450584   -1.535862   -0.010386
      6          1           0       -1.883059    1.211817    0.125460
      7          1           0       -2.630312   -0.442404   -0.020648
      8          1           0        0.488230    1.509916   -0.039842
 ---------------------------------------------------------------------

 SCF Done:  E(RB2PLYPD3) =  -191.611669875     A.U. after   13 cycles
 E2(B2PLYPD3) =    -0.2474609244D+00 E(B2PLYPD3) =    -0.19185913079940D+03

 The electronic state is 1-A.
 Alpha  occ. eigenvalues --  -19.73221 -10.72339 -10.65024 -10.64632  -1.20368
 Alpha  occ. eigenvalues --   -0.92486  -0.75360  -0.66009  -0.56828  -0.55949
 Alpha  occ. eigenvalues --   -0.50929  -0.47220  -0.46716  -0.34492  -0.33838
 Alpha virt. eigenvalues --   -0.01729   0.05822   0.07076   0.08033   0.09774
 Alpha virt. eigenvalues --    0.12594   0.13851   0.15337   0.17275   0.19700
 Alpha virt. eigenvalues --    0.20024   0.21983   0.25019   0.26436   0.28273

 Mulliken charges:
               1
     1  C    0.164456
     2  O   -0.334941
     3  C   -0.046197
     4  C   -0.130364
     5  H    0.101173
     6  H    0.081477
     7  H    0.103310
     8  H    0.061086
 Sum of Mulliken charges =   0.00000

 Dipole moment (field-independent basis, Debye):
    X=             -3.3453    Y=              0.7274    Z=              0.0128  Tot=              3.4235
 Quadrupole moment (field-independent basis, Debye-Ang):
   XX=            -27.3190   YY=            -21.8382   ZZ=            -25.2764
   XY=              0.9419   XZ=             -0.1999   YZ=              0.1805

 Normal termination of Gaussian 09 at Wed Aug 26 08:48:53 2020.
