 Gaussian 09, Revision D.01,
 Gaussian 09:  ES64L-G09RevD.01 24-Apr-2013

 --------------------
 #p B2PLYPD3/Def2QZVP
 --------------------

 --------
 acrolein
 --------
 Symbolic Z-matrix:
 Charge =  0 Multiplicity = 1

                         Standard orientation:
 ---------------------------------------------------------------------
 Center     Atomic      Atomic             Coordinates (Angstroms)
 Number     Number       Type             X           Y           Z
 ---------------------------------------------------------------------
      1          6           0        0.675679    0.350959    0.026732
      2          8           0        1.794713   -0.127100   -0.030753
      3          6           0       -0.584421   -0.459068   -0.000859
      4          6           0       -1.753136    0.155372   -0.005009
      5          1           0       -0.527877   -1.534081    0.118581
      6          1           0       -1.800755    1.243836   -0.091685
      7          1           0       -2.587775   -0.421547   -0.040150
      8          1           0        0.529967    1.445013    0.134097
 ---------------------------------------------------------------------

 SCF Done:  E(RB2PLYPD3) =  -191.611295153     A.U. after   13 cycles
 E2(B2PLYPD3) =    -0.2471504603D+00 E(B2PLYPD3) =    -0.19185844561333D+03

 The electronic state is 1-A.
 Alpha  occ. eigenvalues --  -19.72958 -10.72012 -10.64421 -10.64276  -1.19099
 Alpha  occ. eigenvalues --   -0.93276  -0.75334  -0.66877  -0.57313  -0.56012
 Alpha  occ. eigenvalues --   -0.50553  -0.47472  -0.46241  -0.34907  -0.33809
 Alpha virt. eigenvalues --   -0.01439   0.05924   0.07020   0.07780   0.09735
 Alpha virt. eigenvalues --    0.12727   0.13972   0.15152   0.17557   0.19527
 Alpha virt. eigenvalues --    0.20070   0.21927   0.25007   0.26664   0.28629

 Mulliken charges:
               1
     1  C    0.152764
     2  O   -0.346366
     3  C   -0.043467
     4  C   -0.128189
     5  H    0.100731
     6  H    0.083525
     7  H    0.102844
     8  H    0.078157
 Sum of Mulliken charges =   0.00000

 Dipole moment (field-independent basis, Debye):
    X=             -3.4289    Y=              0.7723    Z=              0.1420  Tot=              3.5176
 Quadrupole moment (field-independent basis, Debye-Ang):
   XX=            -27.7964   YY=            -21.5502   ZZ=            -25.1519
   XY=              1.1498   XZ=              0.3195   YZ=             -0.2095

 Normal termination of Gaussian 09 at Wed Aug 26 10:24:26 2020.
