 Gaussian 09, Revision D.01,
 Gaussian 09:  ES64L-G09RevD.01 24-Apr-2013

 --------------------
 #p B2PLYPD3/Def2QZVP
 --------------------

 --------
 acrolein
 --------
 Symbolic Z-matrix:
 Charge =  0 Multiplicity = 1

                         Standard orientation:
 ---------------------------------------------------------------------
 Center     Atomic      Atomic             Coordinates (Angstroms)
 Number     Number       Type             X           Y           Z
 ---------------------------------------------------------------------
      1          6           0       -0.641334   -0.301795    0.076358
      2          8           0       -1.804639    0.073589   -0.079429
      3          6           0        0.578029    0.482211    0.013887
      4          6           0        1.727917   -0.188728   -0.036223
      5          1           0        0.541032    1.575789    0.236385
      6          1           0        1.774922   -1.287225   -0.112969
      7          1           0        2.624998    0.388526   -0.115692
      8          1           0       -0.491514   -1.215937    0.303576
 ---------------------------------------------------------------------

 SCF Done:  E(RB2PLYPD3) =  -191.591801656     A.U. after   13 cycles
 E2(B2PLYPD3) =    -0.2476173265D+00 E(B2PLYPD3) =    -0.19183941898208D+03

 The electronic state is 1-A.
 Alpha  occ. eigenvalues --  -19.72348 -10.69841 -10.65749 -10.64781  -1.17883
 Alpha  occ. eigenvalues --   -0.93959  -0.76854  -0.68448  -0.57450  -0.55995
 Alpha  occ. eigenvalues --   -0.50333  -0.47597  -0.45201  -0.34919  -0.33713
 Alpha virt. eigenvalues --   -0.01985   0.05725   0.06584   0.07847   0.09463
 Alpha virt. eigenvalues --    0.12969   0.13962   0.14944   0.17727   0.19161
 Alpha virt. eigenvalues --    0.20253   0.21566   0.24341   0.27758   0.28835

 Mulliken charges:
               1
     1  C    0.149524
     2  O   -0.365517
     3  C   -0.029287
     4  C   -0.127693
     5  H    0.099043
     6  H    0.086931
     7  H    0.100366
     8  H    0.086631
 Sum of Mulliken charges =   0.00000

 Dipole moment (field-independent basis, Debye):
    X=              3.7519    Y=             -0.6979    Z=              0.4290  Tot=              3.8403
 Quadrupole moment (field-independent basis, Debye-Ang):
   XX=            -28.0732   YY=            -21.4899   ZZ=            -25.0039
   XY=              0.7086   XZ=             -0.7374   YZ=              0.3358

 Normal termination of Gaussian 09 at Wed Aug 26 14:48:43 2020.
