 Gaussian 09, Revision D.01,
 Gaussian 09:  ES64L-G09RevD.01 24-Apr-2013

 --------------------
 #p B2PLYPD3/Def2QZVP
 --------------------

 --------
 acrolein
 --------
 Symbolic Z-matrix:
 Charge =  0 Multiplicity = 1

                         Standard orientation:
 ---------------------------------------------------------------------
 Center     Atomic      Atomic             Coordinates (Angstroms)
 Number     Number       Type             X           Y           Z
 ---------------------------------------------------------------------
      1          6           0       -0.684374    0.349048    0.049690
      2          8           0       -1.785582   -0.125698   -0.036107
      3          6           0        0.539973   -0.449617    0.034452
      4          6           0        1.766437    0.137404   -0.027548
      5          1           0        0.471375   -1.491657    0.023097
      6          1           0        1.852008    1.209166    0.012960
      7          1           0        2.745891   -0.412738   -0.064705
      8          1           0       -0.516831    1.479803   -0.022060
 ---------------------------------------------------------------------

 SCF Done:  E(RB2PLYPD3) =  -191.611157833     A.U. after   13 cycles
 E2(B2PLYPD3) =    -0.2477464671D+00 E(B2PLYPD3) =    -0.19185890429982D+03

 The electronic state is 1-A.
 Alpha  occ. eigenvalues --  -19.72911 -10.71909 -10.66256 -10.64415  -1.20162
 Alpha  occ. eigenvalues --   -0.92422  -0.75172  -0.67042  -0.56497  -0.56107
 Alpha  occ. eigenvalues --   -0.50386  -0.47170  -0.47029  -0.34286  -0.33801
 Alpha virt. eigenvalues --   -0.02071   0.05664   0.07239   0.08073   0.09684
 Alpha virt. eigenvalues --    0.12379   0.14057   0.15406   0.17802   0.19729
 Alpha virt. eigenvalues --    0.20050   0.21131   0.25090   0.26335   0.28882

 Mulliken charges:
               1
     1  C    0.156565
     2  O   -0.339549
     3  C   -0.040947
     4  C   -0.130727
     5  H    0.110463
     6  H    0.082924
     7  H    0.099001
     8  H    0.062270
 Sum of Mulliken charges =   0.00000

 Dipole moment (field-independent basis, Debye):
    X=              3.4657    Y=              0.7241    Z=              0.1011  Tot=              3.5420
 Quadrupole moment (field-independent basis, Debye-Ang):
   XX=            -27.0853   YY=            -21.9386   ZZ=            -25.3166
   XY=             -0.9509   XZ=             -0.2976   YZ=              0.0170

 Normal termination of Gaussian 09 at Wed Aug 26 09:44:30 2020.
