 Gaussian 09, Revision D.01,
 Gaussian 09:  ES64L-G09RevD.01 24-Apr-2013

 --------------------
 #p B2PLYPD3/Def2QZVP
 --------------------

 --------
 acrolein
 --------
 Symbolic Z-matrix:
 Charge =  0 Multiplicity = 1

                         Standard orientation:
 ---------------------------------------------------------------------
 Center     Atomic      Atomic             Coordinates (Angstroms)
 Number     Number       Type             X           Y           Z
 ---------------------------------------------------------------------
      1          6           0       -0.670316    0.360031   -0.013389
      2          8           0       -1.784328   -0.128727    0.011269
      3          6           0        0.553311   -0.442827   -0.008999
      4          6           0        1.758803    0.137046   -0.001279
      5          1           0        0.414088   -1.526356    0.009394
      6          1           0        1.810245    1.197637    0.063469
      7          1           0        2.682807   -0.442911    0.006774
      8          1           0       -0.483305    1.475945   -0.027783
 ---------------------------------------------------------------------

 SCF Done:  E(RB2PLYPD3) =  -191.615199089     A.U. after   12 cycles
 E2(B2PLYPD3) =    -0.2478385501D+00 E(B2PLYPD3) =    -0.19186303763950D+03

 The electronic state is 1-A.
 Alpha  occ. eigenvalues --  -19.72956 -10.71925 -10.65478 -10.64463  -1.19256
 Alpha  occ. eigenvalues --   -0.93008  -0.75505  -0.66706  -0.56405  -0.56279
 Alpha  occ. eigenvalues --   -0.50485  -0.46985  -0.46655  -0.34575  -0.33933
 Alpha virt. eigenvalues --   -0.01946   0.05742   0.07057   0.08115   0.09836
 Alpha virt. eigenvalues --    0.12548   0.13786   0.15355   0.17311   0.19808
 Alpha virt. eigenvalues --    0.20062   0.21585   0.25472   0.26410   0.28836

 Mulliken charges:
               1
     1  C    0.157563
     2  O   -0.350924
     3  C   -0.034290
     4  C   -0.134159
     5  H    0.104812
     6  H    0.085615
     7  H    0.105059
     8  H    0.066325
 Sum of Mulliken charges =   0.00000

 Dipole moment (field-independent basis, Debye):
    X=              3.4925    Y=              0.7636    Z=              0.0198  Tot=              3.5750
 Quadrupole moment (field-independent basis, Debye-Ang):
   XX=            -27.4559   YY=            -21.7798   ZZ=            -25.2625
   XY=             -0.9620   XZ=              0.1767   YZ=              0.0460

 Normal termination of Gaussian 09 at Wed Aug 26 19:01:34 2020.
