 Gaussian 09, Revision D.01,
 Gaussian 09:  ES64L-G09RevD.01 24-Apr-2013

 --------------------
 #p B2PLYPD3/Def2QZVP
 --------------------

 --------
 acrolein
 --------
 Symbolic Z-matrix:
 Charge =  0 Multiplicity = 1

                         Standard orientation:
 ---------------------------------------------------------------------
 Center     Atomic      Atomic             Coordinates (Angstroms)
 Number     Number       Type             X           Y           Z
 ---------------------------------------------------------------------
      1          6           0       -0.676719    0.394865   -0.087898
      2          8           0       -1.759321   -0.170009    0.079758
      3          6           0        0.575160   -0.421436   -0.090338
      4          6           0        1.726878    0.145075    0.013640
      5          1           0        0.466883   -1.463738   -0.047818
      6          1           0        1.694726    1.161673    0.123368
      7          1           0        2.715604   -0.488112    0.275604
      8          1           0       -0.554555    1.439230   -0.001640
 ---------------------------------------------------------------------

 SCF Done:  E(RB2PLYPD3) =  -191.593689067     A.U. after   12 cycles
 E2(B2PLYPD3) =    -0.2476614327D+00 E(B2PLYPD3) =    -0.19184135049928D+03

 The electronic state is 1-A.
 Alpha  occ. eigenvalues --  -19.73082 -10.71842 -10.64678 -10.63273  -1.18523
 Alpha  occ. eigenvalues --   -0.93957  -0.74777  -0.68409  -0.57429  -0.55210
 Alpha  occ. eigenvalues --   -0.50400  -0.46295  -0.46081  -0.35188  -0.34115
 Alpha virt. eigenvalues --   -0.01356   0.05517   0.07114   0.07525   0.09959
 Alpha virt. eigenvalues --    0.12389   0.13685   0.15288   0.18045   0.19234
 Alpha virt. eigenvalues --    0.20118   0.21461   0.25122   0.26716   0.28468

 Mulliken charges:
               1
     1  C    0.152858
     2  O   -0.358081
     3  C   -0.040099
     4  C   -0.122706
     5  H    0.110905
     6  H    0.076308
     7  H    0.089936
     8  H    0.090880
 Sum of Mulliken charges =   0.00000

 Dipole moment (field-independent basis, Debye):
    X=              3.1840    Y=              0.9975    Z=              0.0183  Tot=              3.3366
 Quadrupole moment (field-independent basis, Debye-Ang):
   XX=            -28.0195   YY=            -21.5630   ZZ=            -25.0250
   XY=             -1.5977   XZ=              1.1841   YZ=             -0.0150

 Normal termination of Gaussian 09 at Wed Aug 26 11:12:45 2020.
