 Gaussian 09, Revision D.01,
 Gaussian 09:  ES64L-G09RevD.01 24-Apr-2013

 --------------------
 #p B2PLYPD3/Def2QZVP
 --------------------

 --------
 acrolein
 --------
 Symbolic Z-matrix:
 Charge =  0 Multiplicity = 1

                         Standard orientation:
 ---------------------------------------------------------------------
 Center     Atomic      Atomic             Coordinates (Angstroms)
 Number     Number       Type             X           Y           Z
 ---------------------------------------------------------------------
      1          6           0        0.695492    0.359702   -0.050681
      2          8           0        1.775824   -0.141501    0.043258
      3          6           0       -0.552223   -0.423322   -0.030034
      4          6           0       -1.770204    0.133254    0.010117
      5          1           0       -0.391427   -1.511596   -0.021406
      6          1           0       -1.811638    1.164919    0.155958
      7          1           0       -2.769933   -0.448922    0.027548
      8          1           0        0.528014    1.509800   -0.084577
 ---------------------------------------------------------------------

 SCF Done:  E(RB2PLYPD3) =  -191.607855865     A.U. after   12 cycles
 E2(B2PLYPD3) =    -0.2474619778D+00 E(B2PLYPD3) =    -0.19185531784308D+03

 The electronic state is 1-A.
 Alpha  occ. eigenvalues --  -19.73228 -10.72154 -10.65801 -10.64562  -1.20855
 Alpha  occ. eigenvalues --   -0.92509  -0.74995  -0.66204  -0.56504  -0.55927
 Alpha  occ. eigenvalues --   -0.50706  -0.47532  -0.46273  -0.34564  -0.33825
 Alpha virt. eigenvalues --   -0.01775   0.05663   0.07048   0.08285   0.09858
 Alpha virt. eigenvalues --    0.12266   0.13745   0.15462   0.17244   0.19642
 Alpha virt. eigenvalues --    0.20156   0.21282   0.25343   0.26238   0.28818

 Mulliken charges:
               1
     1  C    0.162494
     2  O   -0.334056
     3  C   -0.039261
     4  C   -0.133411
     5  H    0.101822
     6  H    0.085090
     7  H    0.102516
     8  H    0.054806
 Sum of Mulliken charges =   0.00000

 Dipole moment (field-independent basis, Debye):
    X=             -3.2796    Y=              0.7577    Z=             -0.0337  Tot=              3.3662
 Quadrupole moment (field-independent basis, Debye-Ang):
   XX=            -27.0427   YY=            -22.1045   ZZ=            -25.3023
   XY=              1.0214   XZ=             -0.5070   YZ=              0.1662

 Normal termination of Gaussian 09 at Wed Aug 26 21:04:29 2020.
