 Gaussian 09, Revision D.01,
 Gaussian 09:  ES64L-G09RevD.01 24-Apr-2013

 --------------------
 #p B2PLYPD3/Def2QZVP
 --------------------

 --------
 acrolein
 --------
 Symbolic Z-matrix:
 Charge =  0 Multiplicity = 1

                         Standard orientation:
 ---------------------------------------------------------------------
 Center     Atomic      Atomic             Coordinates (Angstroms)
 Number     Number       Type             X           Y           Z
 ---------------------------------------------------------------------
      1          6           0       -0.670706    0.377010   -0.020185
      2          8           0       -1.758814   -0.157225    0.027144
      3          6           0        0.556042   -0.414911   -0.043794
      4          6           0        1.755736    0.117192   -0.006907
      5          1           0        0.466259   -1.517448   -0.035226
      6          1           0        1.743423    1.129057   -0.042658
      7          1           0        2.569527   -0.370124    0.246160
      8          1           0       -0.555132    1.540574    0.039890
 ---------------------------------------------------------------------

 SCF Done:  E(RB2PLYPD3) =  -191.597465758     A.U. after   13 cycles
 E2(B2PLYPD3) =    -0.2470149379D+00 E(B2PLYPD3) =    -0.19184448069589D+03

 The electronic state is 1-A.
 Alpha  occ. eigenvalues --  -19.73026 -10.72364 -10.64100 -10.63016  -1.19649
 Alpha  occ. eigenvalues --   -0.93957  -0.76233  -0.66419  -0.58299  -0.56601
 Alpha  occ. eigenvalues --   -0.51223  -0.47011  -0.46335  -0.34791  -0.33988
 Alpha virt. eigenvalues --   -0.01791   0.06005   0.06991   0.08190   0.09986
 Alpha virt. eigenvalues --    0.12614   0.14337   0.15421   0.16823   0.19333
 Alpha virt. eigenvalues --    0.20189   0.22739   0.25157   0.26498   0.29013

 Mulliken charges:
               1
     1  C    0.147752
     2  O   -0.341634
     3  C   -0.025529
     4  C   -0.121557
     5  H    0.098616
     6  H    0.073523
     7  H    0.103607
     8  H    0.065222
 Sum of Mulliken charges =   0.00000

 Dipole moment (field-independent basis, Debye):
    X=              3.3363    Y=              0.8392    Z=              0.0895  Tot=              3.4414
 Quadrupole moment (field-independent basis, Debye-Ang):
   XX=            -27.3355   YY=            -21.8639   ZZ=            -24.9579
   XY=             -1.3319   XZ=              0.6754   YZ=             -0.1206

 Normal termination of Gaussian 09 at Wed Aug 26 11:51:32 2020.
