 Gaussian 09, Revision D.01,
 Gaussian 09:  ES64L-G09RevD.01 24-Apr-2013

 --------------------
 #p B2PLYPD3/Def2QZVP
 --------------------

 --------
 acrolein
 --------
 Symbolic Z-matrix:
 Charge =  0 Multiplicity = 1

                         Standard orientation:
 ---------------------------------------------------------------------
 Center     Atomic      Atomic             Coordinates (Angstroms)
 Number     Number       Type             X           Y           Z
 ---------------------------------------------------------------------
      1          6           0        0.672543    0.342722   -0.016571
      2          8           0        1.790227   -0.115363    0.022835
      3          6           0       -0.568649   -0.456264   -0.033348
      4          6           0       -1.759107    0.140997    0.023099
      5          1           0       -0.449499   -1.511222   -0.029061
      6          1           0       -1.849554    1.246390   -0.020576
      7          1           0       -2.625935   -0.404983    0.062067
      8          1           0        0.534449    1.427994   -0.034188
 ---------------------------------------------------------------------

 SCF Done:  E(RB2PLYPD3) =  -191.614551212     A.U. after   12 cycles
 E2(B2PLYPD3) =    -0.2466275680D+00 E(B2PLYPD3) =    -0.19186117878000D+03

 The electronic state is 1-A.
 Alpha  occ. eigenvalues --  -19.72731 -10.71372 -10.65137 -10.64253  -1.19583
 Alpha  occ. eigenvalues --   -0.93062  -0.75757  -0.67239  -0.57057  -0.56372
 Alpha  occ. eigenvalues --   -0.50825  -0.47310  -0.46704  -0.34701  -0.33760
 Alpha virt. eigenvalues --   -0.01666   0.05807   0.07329   0.08213   0.09721
 Alpha virt. eigenvalues --    0.12604   0.14094   0.15367   0.17568   0.19682
 Alpha virt. eigenvalues --    0.19978   0.21855   0.25328   0.26489   0.28727

 Mulliken charges:
               1
     1  C    0.157109
     2  O   -0.348331
     3  C   -0.043808
     4  C   -0.129570
     5  H    0.105861
     6  H    0.083723
     7  H    0.104369
     8  H    0.070648
 Sum of Mulliken charges =   0.00000

 Dipole moment (field-independent basis, Debye):
    X=             -3.4878    Y=              0.7278    Z=             -0.0681  Tot=              3.5635
 Quadrupole moment (field-independent basis, Debye-Ang):
   XX=            -27.4390   YY=            -21.7005   ZZ=            -25.1487
   XY=              0.9107   XZ=             -0.2251   YZ=             -0.0507

 Normal termination of Gaussian 09 at Wed Aug 26 15:16:21 2020.
