 Gaussian 09, Revision D.01,
 Gaussian 09:  ES64L-G09RevD.01 24-Apr-2013

 --------------------
 #p B2PLYPD3/Def2QZVP
 --------------------

 --------
 acrolein
 --------
 Symbolic Z-matrix:
 Charge =  0 Multiplicity = 1

                         Standard orientation:
 ---------------------------------------------------------------------
 Center     Atomic      Atomic             Coordinates (Angstroms)
 Number     Number       Type             X           Y           Z
 ---------------------------------------------------------------------
      1          6           0        0.657567    0.331180    0.030874
      2          8           0        1.797063   -0.096976   -0.027253
      3          6           0       -0.562663   -0.472101   -0.007802
      4          6           0       -1.750384    0.141813   -0.021100
      5          1           0       -0.450340   -1.547426    0.108950
      6          1           0       -1.897425    1.304637   -0.050636
      7          1           0       -2.632450   -0.384339    0.032915
      8          1           0        0.536589    1.397581    0.114959
 ---------------------------------------------------------------------

 SCF Done:  E(RB2PLYPD3) =  -191.607838637     A.U. after   12 cycles
 E2(B2PLYPD3) =    -0.2475844368D+00 E(B2PLYPD3) =    -0.19185542307387D+03

 The electronic state is 1-A.
 Alpha  occ. eigenvalues --  -19.72491 -10.71095 -10.66068 -10.64787  -1.18829
 Alpha  occ. eigenvalues --   -0.93096  -0.75851  -0.67007  -0.56965  -0.56046
 Alpha  occ. eigenvalues --   -0.50494  -0.46716  -0.46120  -0.34715  -0.33715
 Alpha virt. eigenvalues --   -0.01938   0.05575   0.07060   0.08130   0.09555
 Alpha virt. eigenvalues --    0.12430   0.14240   0.15217   0.17555   0.19268
 Alpha virt. eigenvalues --    0.20069   0.21748   0.25029   0.26652   0.28858

 Mulliken charges:
               1
     1  C    0.155516
     2  O   -0.354918
     3  C   -0.043202
     4  C   -0.122553
     5  H    0.106521
     6  H    0.080572
     7  H    0.103417
     8  H    0.074647
 Sum of Mulliken charges =   0.00000

 Dipole moment (field-independent basis, Debye):
    X=             -3.6429    Y=              0.6903    Z=              0.2269  Tot=              3.7146
 Quadrupole moment (field-independent basis, Debye-Ang):
   XX=            -27.5281   YY=            -21.6261   ZZ=            -25.2267
   XY=              0.7274   XZ=              0.0731   YZ=             -0.2062

 Normal termination of Gaussian 09 at Wed Aug 26 09:03:19 2020.
