 Gaussian 09, Revision D.01,
 Gaussian 09:  ES64L-G09RevD.01 24-Apr-2013

 --------------------
 #p B2PLYPD3/Def2QZVP
 --------------------

 --------
 acrolein
 --------
 Symbolic Z-matrix:
 Charge =  0 Multiplicity = 1

                         Standard orientation:
 ---------------------------------------------------------------------
 Center     Atomic      Atomic             Coordinates (Angstroms)
 Number     Number       Type             X           Y           Z
 ---------------------------------------------------------------------
      1          6           0       -0.672110    0.344182    0.011775
      2          8           0       -1.781340   -0.127091   -0.010547
      3          6           0        0.560435   -0.438670    0.028566
      4          6           0        1.752041    0.147739   -0.013769
      5          1           0        0.456029   -1.502364   -0.042272
      6          1           0        1.785805    1.184635    0.005384
      7          1           0        2.693267   -0.433907   -0.020055
      8          1           0       -0.526574    1.448859   -0.018110
 ---------------------------------------------------------------------

 SCF Done:  E(RB2PLYPD3) =  -191.615011944     A.U. after   12 cycles
 E2(B2PLYPD3) =    -0.2466627499D+00 E(B2PLYPD3) =    -0.19186167469428D+03

 The electronic state is 1-A.
 Alpha  occ. eigenvalues --  -19.72792 -10.71494 -10.65175 -10.64036  -1.19853
 Alpha  occ. eigenvalues --   -0.93376  -0.75506  -0.67221  -0.56983  -0.56311
 Alpha  occ. eigenvalues --   -0.50539  -0.47333  -0.46910  -0.34801  -0.33809
 Alpha virt. eigenvalues --   -0.01706   0.05817   0.07148   0.08351   0.09832
 Alpha virt. eigenvalues --    0.12607   0.13865   0.15308   0.17590   0.19884
 Alpha virt. eigenvalues --    0.20120   0.21502   0.25444   0.26459   0.28966

 Mulliken charges:
               1
     1  C    0.150106
     2  O   -0.345426
     3  C   -0.030273
     4  C   -0.133649
     5  H    0.104139
     6  H    0.087424
     7  H    0.103380
     8  H    0.064299
 Sum of Mulliken charges =   0.00000

 Dipole moment (field-independent basis, Debye):
    X=              3.4628    Y=              0.7452    Z=             -0.0214  Tot=              3.5421
 Quadrupole moment (field-independent basis, Debye-Ang):
   XX=            -27.3358   YY=            -21.8493   ZZ=            -25.1358
   XY=             -1.0607   XZ=             -0.1175   YZ=              0.0870

 Normal termination of Gaussian 09 at Wed Aug 26 18:57:50 2020.
