 Gaussian 09, Revision D.01,
 Gaussian 09:  ES64L-G09RevD.01 24-Apr-2013

 --------------------
 #p B2PLYPD3/Def2QZVP
 --------------------

 --------
 acrolein
 --------
 Symbolic Z-matrix:
 Charge =  0 Multiplicity = 1

                         Standard orientation:
 ---------------------------------------------------------------------
 Center     Atomic      Atomic             Coordinates (Angstroms)
 Number     Number       Type             X           Y           Z
 ---------------------------------------------------------------------
      1          6           0        0.650988   -0.327476   -0.008006
      2          8           0        1.802651    0.075554   -0.023656
      3          6           0       -0.564155    0.517510   -0.001299
      4          6           0       -1.738648   -0.182907   -0.004748
      5          1           0       -0.370538    1.591685    0.115296
      6          1           0       -1.925274   -1.272120   -0.146609
      7          1           0       -2.743765    0.401632    0.025174
      8          1           0        0.529255   -1.368389    0.279702
 ---------------------------------------------------------------------

 SCF Done:  E(RB2PLYPD3) =  -191.598261258     A.U. after   13 cycles
 E2(B2PLYPD3) =    -0.2493685372D+00 E(B2PLYPD3) =    -0.19184762979555D+03

 The electronic state is 1-A.
 Alpha  occ. eigenvalues --  -19.72397 -10.71128 -10.67494 -10.65879  -1.18658
 Alpha  occ. eigenvalues --   -0.92216  -0.74565  -0.67007  -0.56457  -0.55190
 Alpha  occ. eigenvalues --   -0.50558  -0.46046  -0.45789  -0.34429  -0.33235
 Alpha virt. eigenvalues --   -0.02098   0.05434   0.06577   0.07469   0.09473
 Alpha virt. eigenvalues --    0.12316   0.14189   0.15071   0.17350   0.19024
 Alpha virt. eigenvalues --    0.20143   0.21078   0.23989   0.27175   0.28222

 Mulliken charges:
               1
     1  C    0.158479
     2  O   -0.357782
     3  C   -0.057779
     4  C   -0.124069
     5  H    0.121874
     6  H    0.101022
     7  H    0.083136
     8  H    0.075120
 Sum of Mulliken charges =   0.00000

 Dipole moment (field-independent basis, Debye):
    X=             -3.6092    Y=             -0.6615    Z=              0.1476  Tot=              3.6722
 Quadrupole moment (field-independent basis, Debye-Ang):
   XX=            -27.8918   YY=            -21.4999   ZZ=            -25.4159
   XY=             -0.1777   XZ=              0.3332   YZ=              0.2906

 Normal termination of Gaussian 09 at Wed Aug 26 12:00:47 2020.
