 Gaussian 09, Revision D.01,
 Gaussian 09:  ES64L-G09RevD.01 24-Apr-2013

 --------------------
 #p B2PLYPD3/Def2QZVP
 --------------------

 --------
 acrolein
 --------
 Symbolic Z-matrix:
 Charge =  0 Multiplicity = 1

                         Standard orientation:
 ---------------------------------------------------------------------
 Center     Atomic      Atomic             Coordinates (Angstroms)
 Number     Number       Type             X           Y           Z
 ---------------------------------------------------------------------
      1          6           0        0.681976    0.359899    0.004539
      2          8           0        1.791949   -0.123653   -0.019265
      3          6           0       -0.561565   -0.450616    0.035728
      4          6           0       -1.748236    0.127949   -0.033804
      5          1           0       -0.420756   -1.524592    0.046504
      6          1           0       -1.891879    1.247130    0.046963
      7          1           0       -2.708009   -0.433594   -0.038586
      8          1           0        0.452006    1.476889    0.060459
 ---------------------------------------------------------------------

 SCF Done:  E(RB2PLYPD3) =  -191.611804323     A.U. after   12 cycles
 E2(B2PLYPD3) =    -0.2479031979D+00 E(B2PLYPD3) =    -0.19185970752065D+03

 The electronic state is 1-A.
 Alpha  occ. eigenvalues --  -19.73237 -10.72240 -10.66031 -10.64384  -1.19736
 Alpha  occ. eigenvalues --   -0.92825  -0.74820  -0.66370  -0.56568  -0.55445
 Alpha  occ. eigenvalues --   -0.50883  -0.46937  -0.45897  -0.34910  -0.33869
 Alpha virt. eigenvalues --   -0.01608   0.05571   0.07060   0.08043   0.09688
 Alpha virt. eigenvalues --    0.12361   0.13809   0.15330   0.17453   0.19600
 Alpha virt. eigenvalues --    0.19886   0.21402   0.25301   0.26498   0.28369

 Mulliken charges:
               1
     1  C    0.166314
     2  O   -0.344003
     3  C   -0.044929
     4  C   -0.123271
     5  H    0.106832
     6  H    0.077045
     7  H    0.097128
     8  H    0.064884
 Sum of Mulliken charges =   0.00000

 Dipole moment (field-independent basis, Debye):
    X=             -3.4224    Y=              0.7330    Z=              0.1135  Tot=              3.5018
 Quadrupole moment (field-independent basis, Debye-Ang):
   XX=            -27.3848   YY=            -21.8902   ZZ=            -25.3100
   XY=              0.7360   XZ=              0.0855   YZ=              0.0638

 Normal termination of Gaussian 09 at Wed Aug 26 09:36:44 2020.
