 Gaussian 09, Revision D.01,
 Gaussian 09:  ES64L-G09RevD.01 24-Apr-2013

 --------------------
 #p B2PLYPD3/Def2QZVP
 --------------------

 --------
 acrolein
 --------
 Symbolic Z-matrix:
 Charge =  0 Multiplicity = 1

                         Standard orientation:
 ---------------------------------------------------------------------
 Center     Atomic      Atomic             Coordinates (Angstroms)
 Number     Number       Type             X           Y           Z
 ---------------------------------------------------------------------
      1          6           0        0.679514    0.363166    0.009972
      2          8           0        1.788516   -0.112344    0.036140
      3          6           0       -0.577484   -0.500134   -0.089597
      4          6           0       -1.755812    0.160031    0.009281
      5          1           0       -0.484180   -1.516034   -0.033052
      6          1           0       -1.866681    1.336810   -0.048443
      7          1           0       -2.632470   -0.396036    0.311130
      8          1           0        0.597897    1.335633   -0.096696
 ---------------------------------------------------------------------

 SCF Done:  E(RB2PLYPD3) =  -191.588463978     A.U. after   14 cycles
 E2(B2PLYPD3) =    -0.2473374301D+00 E(B2PLYPD3) =    -0.19183580140786D+03

 The electronic state is 1-A.
 Alpha  occ. eigenvalues --  -19.72441 -10.70551 -10.66426 -10.64454  -1.19584
 Alpha  occ. eigenvalues --   -0.91886  -0.74765  -0.68987  -0.56827  -0.55751
 Alpha  occ. eigenvalues --   -0.50614  -0.47063  -0.46255  -0.34290  -0.33239
 Alpha virt. eigenvalues --   -0.01458   0.05481   0.07060   0.07602   0.09516
 Alpha virt. eigenvalues --    0.12293   0.14197   0.15408   0.18020   0.19078
 Alpha virt. eigenvalues --    0.19769   0.21542   0.24322   0.26402   0.28750

 Mulliken charges:
               1
     1  C    0.166043
     2  O   -0.349432
     3  C   -0.078765
     4  C   -0.125659
     5  H    0.119335
     6  H    0.079370
     7  H    0.094465
     8  H    0.094642
 Sum of Mulliken charges =   0.00000

 Dipole moment (field-independent basis, Debye):
    X=             -3.3163    Y=              0.8633    Z=              0.1043  Tot=              3.4284
 Quadrupole moment (field-independent basis, Debye-Ang):
   XX=            -28.0278   YY=            -21.2706   ZZ=            -25.1865
   XY=              0.9734   XZ=             -0.8992   YZ=             -0.2687

 Normal termination of Gaussian 09 at Wed Aug 26 11:12:01 2020.
