 Gaussian 09, Revision D.01,
 Gaussian 09:  ES64L-G09RevD.01 24-Apr-2013

 --------------------
 #p B2PLYPD3/Def2QZVP
 --------------------

 --------
 acrolein
 --------
 Symbolic Z-matrix:
 Charge =  0 Multiplicity = 1

                         Standard orientation:
 ---------------------------------------------------------------------
 Center     Atomic      Atomic             Coordinates (Angstroms)
 Number     Number       Type             X           Y           Z
 ---------------------------------------------------------------------
      1          6           0       -0.665110    0.351381   -0.006415
      2          8           0       -1.788742   -0.125327    0.019572
      3          6           0        0.560445   -0.442026   -0.034905
      4          6           0        1.748808    0.128864    0.014538
      5          1           0        0.444265   -1.525717   -0.027846
      6          1           0        1.830729    1.217789   -0.009139
      7          1           0        2.648923   -0.412702    0.085711
      8          1           0       -0.478838    1.493923   -0.044612
 ---------------------------------------------------------------------

 SCF Done:  E(RB2PLYPD3) =  -191.613902007     A.U. after   12 cycles
 E2(B2PLYPD3) =    -0.2478106981D+00 E(B2PLYPD3) =    -0.19186171270539D+03

 The electronic state is 1-A.
 Alpha  occ. eigenvalues --  -19.73036 -10.72234 -10.65161 -10.64299  -1.19031
 Alpha  occ. eigenvalues --   -0.93522  -0.75711  -0.66325  -0.57024  -0.56002
 Alpha  occ. eigenvalues --   -0.50622  -0.46830  -0.46460  -0.34954  -0.33900
 Alpha virt. eigenvalues --   -0.01874   0.05753   0.06995   0.08210   0.09777
 Alpha virt. eigenvalues --    0.12550   0.13931   0.15308   0.17225   0.19856
 Alpha virt. eigenvalues --    0.19930   0.21755   0.25504   0.26364   0.28755

 Mulliken charges:
               1
     1  C    0.160037
     2  O   -0.350612
     3  C   -0.032056
     4  C   -0.125030
     5  H    0.102776
     6  H    0.080383
     7  H    0.104726
     8  H    0.059774
 Sum of Mulliken charges =   0.00000

 Dipole moment (field-independent basis, Debye):
    X=              3.5593    Y=              0.7075    Z=             -0.0202  Tot=              3.6289
 Quadrupole moment (field-independent basis, Debye-Ang):
   XX=            -27.3841   YY=            -21.8673   ZZ=            -25.1998
   XY=             -0.9060   XZ=              0.2888   YZ=             -0.0585

 Normal termination of Gaussian 09 at Wed Aug 26 20:29:42 2020.
