 Gaussian 09, Revision D.01,
 Gaussian 09:  ES64L-G09RevD.01 24-Apr-2013

 --------------------
 #p B2PLYPD3/Def2QZVP
 --------------------

 --------
 acrolein
 --------
 Symbolic Z-matrix:
 Charge =  0 Multiplicity = 1

                         Standard orientation:
 ---------------------------------------------------------------------
 Center     Atomic      Atomic             Coordinates (Angstroms)
 Number     Number       Type             X           Y           Z
 ---------------------------------------------------------------------
      1          6           0       -0.677082    0.339150    0.033220
      2          8           0       -1.792057   -0.108988   -0.022522
      3          6           0        0.569472   -0.462514    0.009895
      4          6           0        1.754654    0.147253   -0.018700
      5          1           0        0.445291   -1.505083    0.022693
      6          1           0        1.860104    1.244720   -0.034304
      7          1           0        2.666459   -0.404449    0.016418
      8          1           0       -0.517661    1.393384    0.028880
 ---------------------------------------------------------------------

 SCF Done:  E(RB2PLYPD3) =  -191.615392597     A.U. after   12 cycles
 E2(B2PLYPD3) =    -0.2462775037D+00 E(B2PLYPD3) =    -0.19186167010122D+03

 The electronic state is 1-A.
 Alpha  occ. eigenvalues --  -19.72731 -10.71039 -10.65455 -10.64123  -1.19907
 Alpha  occ. eigenvalues --   -0.92909  -0.75493  -0.67771  -0.56678  -0.56504
 Alpha  occ. eigenvalues --   -0.50982  -0.47172  -0.46883  -0.34713  -0.33723
 Alpha virt. eigenvalues --   -0.01556   0.05757   0.07458   0.08192   0.09691
 Alpha virt. eigenvalues --    0.12650   0.14106   0.15390   0.17772   0.19604
 Alpha virt. eigenvalues --    0.19976   0.21631   0.25438   0.26651   0.28637

 Mulliken charges:
               1
     1  C    0.157239
     2  O   -0.346888
     3  C   -0.045056
     4  C   -0.131235
     5  H    0.107729
     6  H    0.084026
     7  H    0.100279
     8  H    0.073906
 Sum of Mulliken charges =   0.00000

 Dipole moment (field-independent basis, Debye):
    X=              3.4527    Y=              0.7411    Z=              0.1056  Tot=              3.5329
 Quadrupole moment (field-independent basis, Debye-Ang):
   XX=            -27.4269   YY=            -21.7122   ZZ=            -25.1371
   XY=             -0.7862   XZ=             -0.1050   YZ=             -0.0717

 Normal termination of Gaussian 09 at Wed Aug 26 18:51:12 2020.
