 Gaussian 09, Revision D.01,
 Gaussian 09:  ES64L-G09RevD.01 24-Apr-2013

 --------------------
 #p B2PLYPD3/Def2QZVP
 --------------------

 --------
 acrolein
 --------
 Symbolic Z-matrix:
 Charge =  0 Multiplicity = 1

                         Standard orientation:
 ---------------------------------------------------------------------
 Center     Atomic      Atomic             Coordinates (Angstroms)
 Number     Number       Type             X           Y           Z
 ---------------------------------------------------------------------
      1          6           0       -0.680269    0.388032   -0.029479
      2          8           0       -1.762078   -0.143370    0.070195
      3          6           0        0.547658   -0.426546   -0.109772
      4          6           0        1.745773    0.129622    0.035271
      5          1           0        0.432850   -1.552067   -0.113459
      6          1           0        1.854996    1.208244    0.009385
      7          1           0        2.644591   -0.467440    0.309493
      8          1           0       -0.514787    1.411574   -0.143097
 ---------------------------------------------------------------------

 SCF Done:  E(RB2PLYPD3) =  -191.607703160     A.U. after   14 cycles
 E2(B2PLYPD3) =    -0.2472625483D+00 E(B2PLYPD3) =    -0.19185496570794D+03

 The electronic state is 1-A.
 Alpha  occ. eigenvalues --  -19.72789 -10.71202 -10.65435 -10.64431  -1.19665
 Alpha  occ. eigenvalues --   -0.92679  -0.75470  -0.67282  -0.56787  -0.55821
 Alpha  occ. eigenvalues --   -0.50693  -0.47113  -0.45673  -0.34528  -0.33781
 Alpha virt. eigenvalues --   -0.01536   0.05688   0.07009   0.07869   0.09720
 Alpha virt. eigenvalues --    0.12428   0.14053   0.15389   0.17434   0.19478
 Alpha virt. eigenvalues --    0.19778   0.21707   0.24913   0.26741   0.28415

 Mulliken charges:
               1
     1  C    0.159374
     2  O   -0.348702
     3  C   -0.049479
     4  C   -0.132976
     5  H    0.103699
     6  H    0.078045
     7  H    0.100231
     8  H    0.089808
 Sum of Mulliken charges =   0.00000

 Dipole moment (field-independent basis, Debye):
    X=              3.3086    Y=              0.9547    Z=             -0.0633  Tot=              3.4441
 Quadrupole moment (field-independent basis, Debye-Ang):
   XX=            -27.6465   YY=            -21.5904   ZZ=            -25.1408
   XY=             -1.0957   XZ=              1.0815   YZ=             -0.1539

 Normal termination of Gaussian 09 at Wed Aug 26 15:04:10 2020.
