 Gaussian 09, Revision D.01,
 Gaussian 09:  ES64L-G09RevD.01 24-Apr-2013

 --------------------
 #p B2PLYPD3/Def2QZVP
 --------------------

 --------
 acrolein
 --------
 Symbolic Z-matrix:
 Charge =  0 Multiplicity = 1

                         Standard orientation:
 ---------------------------------------------------------------------
 Center     Atomic      Atomic             Coordinates (Angstroms)
 Number     Number       Type             X           Y           Z
 ---------------------------------------------------------------------
      1          6           0        0.681100    0.351031   -0.032797
      2          8           0        1.779201   -0.136797    0.024653
      3          6           0       -0.553897   -0.425685   -0.010544
      4          6           0       -1.753054    0.133563    0.014999
      5          1           0       -0.485946   -1.450622   -0.007731
      6          1           0       -1.821095    1.164353    0.115152
      7          1           0       -2.739106   -0.403761   -0.056913
      8          1           0        0.567639    1.430953   -0.077687
 ---------------------------------------------------------------------

 SCF Done:  E(RB2PLYPD3) =  -191.611177946     A.U. after   13 cycles
 E2(B2PLYPD3) =    -0.2460117748D+00 E(B2PLYPD3) =    -0.19185718972056D+03

 The electronic state is 1-A.
 Alpha  occ. eigenvalues --  -19.72732 -10.71250 -10.65141 -10.63465  -1.20030
 Alpha  occ. eigenvalues --   -0.93408  -0.75565  -0.68095  -0.57440  -0.56334
 Alpha  occ. eigenvalues --   -0.50815  -0.47195  -0.46824  -0.34755  -0.33902
 Alpha virt. eigenvalues --   -0.01682   0.05745   0.07474   0.08418   0.09735
 Alpha virt. eigenvalues --    0.12511   0.14222   0.15485   0.17885   0.19639
 Alpha virt. eigenvalues --    0.20125   0.21363   0.25559   0.26314   0.29003

 Mulliken charges:
               1
     1  C    0.145960
     2  O   -0.344196
     3  C   -0.035898
     4  C   -0.130008
     5  H    0.108781
     6  H    0.080896
     7  H    0.097644
     8  H    0.076820
 Sum of Mulliken charges =   0.00000

 Dipole moment (field-independent basis, Debye):
    X=             -3.4307    Y=              0.8285    Z=             -0.0775  Tot=              3.5302
 Quadrupole moment (field-independent basis, Debye-Ang):
   XX=            -27.0879   YY=            -21.9345   ZZ=            -25.0331
   XY=              1.1390   XZ=             -0.1494   YZ=              0.1409

 Normal termination of Gaussian 09 at Wed Aug 26 10:09:25 2020.
