 Gaussian 09, Revision D.01,
 Gaussian 09:  ES64L-G09RevD.01 24-Apr-2013

 --------------------
 #p B2PLYPD3/Def2QZVP
 --------------------

 --------
 acrolein
 --------
 Symbolic Z-matrix:
 Charge =  0 Multiplicity = 1

                         Standard orientation:
 ---------------------------------------------------------------------
 Center     Atomic      Atomic             Coordinates (Angstroms)
 Number     Number       Type             X           Y           Z
 ---------------------------------------------------------------------
      1          6           0       -0.665883    0.357681   -0.005302
      2          8           0       -1.783463   -0.131248    0.015718
      3          6           0        0.563337   -0.433341   -0.028864
      4          6           0        1.749094    0.136146    0.016246
      5          1           0        0.416677   -1.536793   -0.030043
      6          1           0        1.799167    1.172561   -0.034936
      7          1           0        2.695291   -0.412494    0.071460
      8          1           0       -0.522718    1.463791   -0.024706
 ---------------------------------------------------------------------

 SCF Done:  E(RB2PLYPD3) =  -191.613949236     A.U. after   12 cycles
 E2(B2PLYPD3) =    -0.2473272361D+00 E(B2PLYPD3) =    -0.19186127647244D+03

 The electronic state is 1-A.
 Alpha  occ. eigenvalues --  -19.72872 -10.71777 -10.64941 -10.64408  -1.19018
 Alpha  occ. eigenvalues --   -0.93548  -0.75662  -0.66819  -0.56796  -0.56473
 Alpha  occ. eigenvalues --   -0.50567  -0.46771  -0.46330  -0.34933  -0.33943
 Alpha virt. eigenvalues --   -0.01772   0.05781   0.07027   0.08223   0.09822
 Alpha virt. eigenvalues --    0.12545   0.14034   0.15317   0.17150   0.19906
 Alpha virt. eigenvalues --    0.20161   0.21652   0.25548   0.26418   0.28950

 Mulliken charges:
               1
     1  C    0.154726
     2  O   -0.353455
     3  C   -0.030316
     4  C   -0.130261
     5  H    0.101790
     6  H    0.084357
     7  H    0.103648
     8  H    0.069510
 Sum of Mulliken charges =   0.00000

 Dipole moment (field-independent basis, Debye):
    X=              3.5133    Y=              0.8102    Z=             -0.0423  Tot=              3.6058
 Quadrupole moment (field-independent basis, Debye-Ang):
   XX=            -27.3720   YY=            -21.8232   ZZ=            -25.1603
   XY=             -0.9899   XZ=              0.1928   YZ=             -0.0661

 Normal termination of Gaussian 09 at Wed Aug 26 15:52:17 2020.
