 Gaussian 09, Revision D.01,
 Gaussian 09:  ES64L-G09RevD.01 24-Apr-2013

 --------------------
 #p B2PLYPD3/Def2QZVP
 --------------------

 --------
 acrolein
 --------
 Symbolic Z-matrix:
 Charge =  0 Multiplicity = 1

                         Standard orientation:
 ---------------------------------------------------------------------
 Center     Atomic      Atomic             Coordinates (Angstroms)
 Number     Number       Type             X           Y           Z
 ---------------------------------------------------------------------
      1          6           0        0.676191    0.347266   -0.018152
      2          8           0        1.790437   -0.114548    0.031368
      3          6           0       -0.575375   -0.465857   -0.058664
      4          6           0       -1.762531    0.152973    0.038747
      5          1           0       -0.476137   -1.539265   -0.025784
      6          1           0       -1.789301    1.253391   -0.063506
      7          1           0       -2.619229   -0.387771    0.104677
      8          1           0        0.531465    1.383739   -0.037920
 ---------------------------------------------------------------------

 SCF Done:  E(RB2PLYPD3) =  -191.610529261     A.U. after   13 cycles
 E2(B2PLYPD3) =    -0.2466336791D+00 E(B2PLYPD3) =    -0.19185716294030D+03

 The electronic state is 1-A.
 Alpha  occ. eigenvalues --  -19.72700 -10.71077 -10.64976 -10.64481  -1.19638
 Alpha  occ. eigenvalues --   -0.92761  -0.75726  -0.67727  -0.57211  -0.56249
 Alpha  occ. eigenvalues --   -0.50835  -0.47409  -0.46609  -0.34464  -0.33837
 Alpha virt. eigenvalues --   -0.01577   0.05868   0.07317   0.07920   0.09737
 Alpha virt. eigenvalues --    0.12673   0.14161   0.15330   0.17572   0.19806
 Alpha virt. eigenvalues --    0.20000   0.21825   0.24812   0.26649   0.28787

 Mulliken charges:
               1
     1  C    0.156619
     2  O   -0.347522
     3  C   -0.047265
     4  C   -0.134098
     5  H    0.103174
     6  H    0.083284
     7  H    0.105567
     8  H    0.080240
 Sum of Mulliken charges =   0.00000

 Dipole moment (field-independent basis, Debye):
    X=             -3.4259    Y=              0.7769    Z=             -0.0837  Tot=              3.5139
 Quadrupole moment (field-independent basis, Debye-Ang):
   XX=            -27.6235   YY=            -21.5763   ZZ=            -25.1529
   XY=              1.0498   XZ=             -0.3241   YZ=             -0.1570

 Normal termination of Gaussian 09 at Wed Aug 26 08:52:20 2020.
