 Gaussian 09, Revision D.01,
 Gaussian 09:  ES64L-G09RevD.01 24-Apr-2013

 --------------------
 #p B2PLYPD3/Def2QZVP
 --------------------

 --------
 acrolein
 --------
 Symbolic Z-matrix:
 Charge =  0 Multiplicity = 1

                         Standard orientation:
 ---------------------------------------------------------------------
 Center     Atomic      Atomic             Coordinates (Angstroms)
 Number     Number       Type             X           Y           Z
 ---------------------------------------------------------------------
      1          6           0        0.672580    0.329591   -0.047041
      2          8           0        1.793757   -0.097998    0.042388
      3          6           0       -0.555911   -0.457776   -0.051288
      4          6           0       -1.766818    0.151815    0.011325
      5          1           0       -0.418088   -1.531432    0.016197
      6          1           0       -1.926444    1.244679    0.062230
      7          1           0       -2.686669   -0.420820    0.123477
      8          1           0        0.582043    1.349777   -0.018980
 ---------------------------------------------------------------------

 SCF Done:  E(RB2PLYPD3) =  -191.609139762     A.U. after   13 cycles
 E2(B2PLYPD3) =    -0.2467956578D+00 E(B2PLYPD3) =    -0.19185593542000D+03

 The electronic state is 1-A.
 Alpha  occ. eigenvalues --  -19.72309 -10.70228 -10.66393 -10.64921  -1.19730
 Alpha  occ. eigenvalues --   -0.92513  -0.75888  -0.67960  -0.57120  -0.56035
 Alpha  occ. eigenvalues --   -0.50492  -0.46970  -0.46737  -0.34385  -0.33642
 Alpha virt. eigenvalues --   -0.02063   0.05629   0.07387   0.08360   0.09595
 Alpha virt. eigenvalues --    0.12542   0.14168   0.15394   0.17791   0.19484
 Alpha virt. eigenvalues --    0.19924   0.21555   0.24984   0.26719   0.28564

 Mulliken charges:
               1
     1  C    0.159068
     2  O   -0.352409
     3  C   -0.045308
     4  C   -0.128909
     5  H    0.107906
     6  H    0.088362
     7  H    0.098384
     8  H    0.072907
 Sum of Mulliken charges =   0.00000

 Dipole moment (field-independent basis, Debye):
    X=             -3.5643    Y=              0.7590    Z=              0.0188  Tot=              3.6442
 Quadrupole moment (field-independent basis, Debye-Ang):
   XX=            -27.3377   YY=            -21.6914   ZZ=            -25.1969
   XY=              0.6893   XZ=             -0.6358   YZ=             -0.0359

 Normal termination of Gaussian 09 at Wed Aug 26 21:05:21 2020.
