 Gaussian 09, Revision D.01,
 Gaussian 09:  ES64L-G09RevD.01 24-Apr-2013

 --------------------
 #p B2PLYPD3/Def2QZVP
 --------------------

 --------
 acrolein
 --------
 Symbolic Z-matrix:
 Charge =  0 Multiplicity = 1

                         Standard orientation:
 ---------------------------------------------------------------------
 Center     Atomic      Atomic             Coordinates (Angstroms)
 Number     Number       Type             X           Y           Z
 ---------------------------------------------------------------------
      1          6           0       -0.668182    0.343193   -0.002630
      2          8           0       -1.802006   -0.103788   -0.014286
      3          6           0        0.560954   -0.475239    0.034669
      4          6           0        1.761371    0.150737   -0.034080
      5          1           0        0.434762   -1.593005    0.044999
      6          1           0        1.880230    1.288025    0.088129
      7          1           0        2.711296   -0.399070   -0.049843
      8          1           0       -0.535099    1.422217    0.043251
 ---------------------------------------------------------------------

 SCF Done:  E(RB2PLYPD3) =  -191.608873379     A.U. after   13 cycles
 E2(B2PLYPD3) =    -0.2486959843D+00 E(B2PLYPD3) =    -0.19185756936285D+03

 The electronic state is 1-A.
 Alpha  occ. eigenvalues --  -19.72648 -10.71511 -10.66827 -10.65566  -1.18914
 Alpha  occ. eigenvalues --   -0.92244  -0.75010  -0.66564  -0.56215  -0.55602
 Alpha  occ. eigenvalues --   -0.50181  -0.46587  -0.46035  -0.34381  -0.33770
 Alpha virt. eigenvalues --   -0.02090   0.05501   0.06865   0.07871   0.09551
 Alpha virt. eigenvalues --    0.12299   0.14159   0.15297   0.17251   0.19590
 Alpha virt. eigenvalues --    0.19973   0.21283   0.24771   0.26428   0.28578

 Mulliken charges:
               1
     1  C    0.160932
     2  O   -0.353046
     3  C   -0.047848
     4  C   -0.123857
     5  H    0.106296
     6  H    0.082790
     7  H    0.099979
     8  H    0.074754
 Sum of Mulliken charges =   0.00000

 Dipole moment (field-independent basis, Debye):
    X=              3.5809    Y=              0.7299    Z=              0.1141  Tot=              3.6563
 Quadrupole moment (field-independent basis, Debye-Ang):
   XX=            -27.5899   YY=            -21.6040   ZZ=            -25.4387
   XY=             -0.7704   XZ=             -0.0401   YZ=              0.1143

 Normal termination of Gaussian 09 at Wed Aug 26 09:48:49 2020.
