 Gaussian 09, Revision D.01,
 Gaussian 09:  ES64L-G09RevD.01 24-Apr-2013

 --------------------
 #p B2PLYPD3/Def2QZVP
 --------------------

 --------
 acrolein
 --------
 Symbolic Z-matrix:
 Charge =  0 Multiplicity = 1

                         Standard orientation:
 ---------------------------------------------------------------------
 Center     Atomic      Atomic             Coordinates (Angstroms)
 Number     Number       Type             X           Y           Z
 ---------------------------------------------------------------------
      1          6           0       -0.667204    0.349513   -0.017424
      2          8           0       -1.789054   -0.111170    0.014315
      3          6           0        0.574207   -0.451690    0.003315
      4          6           0        1.748672    0.145005   -0.003978
      5          1           0        0.395528   -1.588721    0.004007
      6          1           0        1.839375    1.217425    0.150730
      7          1           0        2.623644   -0.414369   -0.061396
      8          1           0       -0.480162    1.418059   -0.099334
 ---------------------------------------------------------------------

 SCF Done:  E(RB2PLYPD3) =  -191.611110160     A.U. after   13 cycles
 E2(B2PLYPD3) =    -0.2471371305D+00 E(B2PLYPD3) =    -0.19185824729002D+03

 The electronic state is 1-A.
 Alpha  occ. eigenvalues --  -19.72889 -10.71432 -10.64913 -10.64773  -1.19349
 Alpha  occ. eigenvalues --   -0.93299  -0.75797  -0.66473  -0.56824  -0.56298
 Alpha  occ. eigenvalues --   -0.50855  -0.46727  -0.46315  -0.34906  -0.33805
 Alpha virt. eigenvalues --   -0.01629   0.05812   0.06999   0.08035   0.09780
 Alpha virt. eigenvalues --    0.12741   0.14023   0.15319   0.16942   0.19535
 Alpha virt. eigenvalues --    0.20265   0.22030   0.25046   0.26835   0.28420

 Mulliken charges:
               1
     1  C    0.162065
     2  O   -0.351009
     3  C   -0.039281
     4  C   -0.131428
     5  H    0.097590
     6  H    0.086392
     7  H    0.104956
     8  H    0.070715
 Sum of Mulliken charges =   0.00000

 Dipole moment (field-independent basis, Debye):
    X=              3.4746    Y=              0.7574    Z=             -0.0060  Tot=              3.5562
 Quadrupole moment (field-independent basis, Debye-Ang):
   XX=            -27.5995   YY=            -21.7103   ZZ=            -25.1528
   XY=             -0.7288   XZ=              0.1672   YZ=              0.1801

 Normal termination of Gaussian 09 at Wed Aug 26 08:25:19 2020.
