 Gaussian 09, Revision D.01,
 Gaussian 09:  ES64L-G09RevD.01 24-Apr-2013

 --------------------
 #p B2PLYPD3/Def2QZVP
 --------------------

 --------
 acrolein
 --------
 Symbolic Z-matrix:
 Charge =  0 Multiplicity = 1

                         Standard orientation:
 ---------------------------------------------------------------------
 Center     Atomic      Atomic             Coordinates (Angstroms)
 Number     Number       Type             X           Y           Z
 ---------------------------------------------------------------------
      1          6           0       -0.688212    0.362282    0.005759
      2          8           0       -1.770753   -0.140561   -0.015168
      3          6           0        0.549662   -0.431670    0.024912
      4          6           0        1.760434    0.129814   -0.025359
      5          1           0        0.476609   -1.424841    0.057575
      6          1           0        1.808552    1.156208    0.074287
      7          1           0        2.649132   -0.425536   -0.059822
      8          1           0       -0.499575    1.456100    0.017435
 ---------------------------------------------------------------------

 SCF Done:  E(RB2PLYPD3) =  -191.608390425     A.U. after   12 cycles
 E2(B2PLYPD3) =    -0.2456258953D+00 E(B2PLYPD3) =    -0.19185401632003D+03

 The electronic state is 1-A.
 Alpha  occ. eigenvalues --  -19.72956 -10.71507 -10.64260 -10.63047  -1.20704
 Alpha  occ. eigenvalues --   -0.93236  -0.75834  -0.68242  -0.57327  -0.56726
 Alpha  occ. eigenvalues --   -0.51237  -0.48111  -0.47252  -0.34460  -0.33889
 Alpha virt. eigenvalues --   -0.01540   0.05943   0.07570   0.08337   0.09875
 Alpha virt. eigenvalues --    0.12765   0.13993   0.15455   0.17986   0.19857
 Alpha virt. eigenvalues --    0.20178   0.21697   0.25526   0.26455   0.28732

 Mulliken charges:
               1
     1  C    0.150534
     2  O   -0.337389
     3  C   -0.038106
     4  C   -0.137655
     5  H    0.108622
     6  H    0.081302
     7  H    0.100710
     8  H    0.071982
 Sum of Mulliken charges =   0.00000

 Dipole moment (field-independent basis, Debye):
    X=              3.3200    Y=              0.7847    Z=              0.1068  Tot=              3.4131
 Quadrupole moment (field-independent basis, Debye-Ang):
   XX=            -27.1417   YY=            -21.8831   ZZ=            -24.9809
   XY=             -1.1453   XZ=             -0.0765   YZ=              0.0702

 Normal termination of Gaussian 09 at Wed Aug 26 09:17:48 2020.
