 Gaussian 09, Revision D.01,
 Gaussian 09:  ES64L-G09RevD.01 24-Apr-2013

 --------------------
 #p B2PLYPD3/Def2QZVP
 --------------------

 --------
 acrolein
 --------
 Symbolic Z-matrix:
 Charge =  0 Multiplicity = 1

                         Standard orientation:
 ---------------------------------------------------------------------
 Center     Atomic      Atomic             Coordinates (Angstroms)
 Number     Number       Type             X           Y           Z
 ---------------------------------------------------------------------
      1          6           0       -0.678513    0.347415    0.013995
      2          8           0       -1.791052   -0.111902   -0.016883
      3          6           0        0.565079   -0.458887    0.000684
      4          6           0        1.756602    0.146616   -0.006909
      5          1           0        0.405825   -1.555966    0.059499
      6          1           0        1.888578    1.237047   -0.046906
      7          1           0        2.695296   -0.423339   -0.003278
      8          1           0       -0.520286    1.426610    0.079132
 ---------------------------------------------------------------------

 SCF Done:  E(RB2PLYPD3) =  -191.615420692     A.U. after   12 cycles
 E2(B2PLYPD3) =    -0.2470868915D+00 E(B2PLYPD3) =    -0.19186250758334D+03

 The electronic state is 1-A.
 Alpha  occ. eigenvalues --  -19.72805 -10.71380 -10.65870 -10.64872  -1.19901
 Alpha  occ. eigenvalues --   -0.92545  -0.75155  -0.66778  -0.56661  -0.55870
 Alpha  occ. eigenvalues --   -0.50718  -0.46927  -0.46411  -0.34671  -0.33730
 Alpha virt. eigenvalues --   -0.01598   0.05695   0.07127   0.08147   0.09662
 Alpha virt. eigenvalues --    0.12488   0.14031   0.15338   0.17396   0.19575
 Alpha virt. eigenvalues --    0.20018   0.21541   0.25288   0.26665   0.28482

 Mulliken charges:
               1
     1  C    0.160437
     2  O   -0.345764
     3  C   -0.045695
     4  C   -0.130847
     5  H    0.105154
     6  H    0.086471
     7  H    0.099423
     8  H    0.070821
 Sum of Mulliken charges =   0.00000

 Dipole moment (field-independent basis, Debye):
    X=              3.4372    Y=              0.7610    Z=              0.0907  Tot=              3.5217
 Quadrupole moment (field-independent basis, Debye-Ang):
   XX=            -27.4199   YY=            -21.7238   ZZ=            -25.2808
   XY=             -0.6951   XZ=             -0.1433   YZ=             -0.1177

 Normal termination of Gaussian 09 at Wed Aug 26 18:56:34 2020.
