 Gaussian 09, Revision D.01,
 Gaussian 09:  ES64L-G09RevD.01 24-Apr-2013

 --------------------
 #p B2PLYPD3/Def2QZVP
 --------------------

 --------
 acrolein
 --------
 Symbolic Z-matrix:
 Charge =  0 Multiplicity = 1

                         Standard orientation:
 ---------------------------------------------------------------------
 Center     Atomic      Atomic             Coordinates (Angstroms)
 Number     Number       Type             X           Y           Z
 ---------------------------------------------------------------------
      1          6           0        0.666301    0.381265    0.034709
      2          8           0        1.768648   -0.148369   -0.070081
      3          6           0       -0.549797   -0.414238    0.034212
      4          6           0       -1.738045    0.138863   -0.026318
      5          1           0       -0.387532   -1.564810    0.247508
      6          1           0       -1.772518    1.132470   -0.167164
      7          1           0       -2.825629   -0.442574   -0.107252
      8          1           0        0.565744    1.426526    0.331938
 ---------------------------------------------------------------------

 SCF Done:  E(RB2PLYPD3) =  -191.586762475     A.U. after   13 cycles
 E2(B2PLYPD3) =    -0.2487812182D+00 E(B2PLYPD3) =    -0.19183554369322D+03

 The electronic state is 1-A.
 Alpha  occ. eigenvalues --  -19.72929 -10.71762 -10.65654 -10.64956  -1.18753
 Alpha  occ. eigenvalues --   -0.93517  -0.75352  -0.66687  -0.57450  -0.54889
 Alpha  occ. eigenvalues --   -0.50233  -0.46455  -0.44439  -0.35034  -0.34048
 Alpha virt. eigenvalues --   -0.01842   0.05285   0.06250   0.07877   0.09605
 Alpha virt. eigenvalues --    0.12175   0.14063   0.14921   0.17271   0.18757
 Alpha virt. eigenvalues --    0.20521   0.20958   0.24793   0.27407   0.29233

 Mulliken charges:
               1
     1  C    0.151641
     2  O   -0.352504
     3  C   -0.040942
     4  C   -0.125913
     5  H    0.103845
     6  H    0.084556
     7  H    0.093720
     8  H    0.085596
 Sum of Mulliken charges =   0.00000

 Dipole moment (field-independent basis, Debye):
    X=             -3.3749    Y=              0.9689    Z=              0.2929  Tot=              3.5234
 Quadrupole moment (field-independent basis, Debye-Ang):
   XX=            -27.4827   YY=            -21.8844   ZZ=            -25.1893
   XY=              1.1032   XZ=              0.8040   YZ=             -0.3141

 Normal termination of Gaussian 09 at Wed Aug 26 13:16:48 2020.
