 Gaussian 09, Revision D.01,
 Gaussian 09:  ES64L-G09RevD.01 24-Apr-2013

 --------------------
 #p B2PLYPD3/Def2QZVP
 --------------------

 --------
 acrolein
 --------
 Symbolic Z-matrix:
 Charge =  0 Multiplicity = 1

                         Standard orientation:
 ---------------------------------------------------------------------
 Center     Atomic      Atomic             Coordinates (Angstroms)
 Number     Number       Type             X           Y           Z
 ---------------------------------------------------------------------
      1          6           0       -0.672577    0.346870    0.012508
      2          8           0       -1.789331   -0.119411   -0.016286
      3          6           0        0.561305   -0.459867    0.012550
      4          6           0        1.760737    0.145727   -0.011799
      5          1           0        0.450248   -1.540348    0.053133
      6          1           0        1.818376    1.229640    0.013187
      7          1           0        2.669217   -0.403410   -0.048999
      8          1           0       -0.519976    1.473023    0.033412
 ---------------------------------------------------------------------

 SCF Done:  E(RB2PLYPD3) =  -191.615890676     A.U. after   12 cycles
 E2(B2PLYPD3) =    -0.2475475932D+00 E(B2PLYPD3) =    -0.19186343826945D+03

 The electronic state is 1-A.
 Alpha  occ. eigenvalues --  -19.72852 -10.71910 -10.65486 -10.64710  -1.19549
 Alpha  occ. eigenvalues --   -0.92759  -0.75336  -0.66587  -0.56615  -0.56194
 Alpha  occ. eigenvalues --   -0.50494  -0.47302  -0.46659  -0.34527  -0.33775
 Alpha virt. eigenvalues --   -0.01819   0.05788   0.07070   0.08106   0.09735
 Alpha virt. eigenvalues --    0.12527   0.13996   0.15350   0.17328   0.19870
 Alpha virt. eigenvalues --    0.19960   0.21583   0.25358   0.26313   0.28909

 Mulliken charges:
               1
     1  C    0.156539
     2  O   -0.345767
     3  C   -0.039826
     4  C   -0.130981
     5  H    0.105361
     6  H    0.085320
     7  H    0.104847
     8  H    0.064506
 Sum of Mulliken charges =   0.00000

 Dipole moment (field-independent basis, Debye):
    X=              3.4900    Y=              0.7142    Z=              0.0765  Tot=              3.5631
 Quadrupole moment (field-independent basis, Debye-Ang):
   XX=            -27.4174   YY=            -21.7425   ZZ=            -25.2825
   XY=             -0.9318   XZ=             -0.1537   YZ=             -0.0162

 Normal termination of Gaussian 09 at Wed Aug 26 15:34:47 2020.
