 Gaussian 09, Revision D.01,
 Gaussian 09:  ES64L-G09RevD.01 24-Apr-2013

 --------------------
 #p B2PLYPD3/Def2QZVP
 --------------------

 --------
 acrolein
 --------
 Symbolic Z-matrix:
 Charge =  0 Multiplicity = 1

                         Standard orientation:
 ---------------------------------------------------------------------
 Center     Atomic      Atomic             Coordinates (Angstroms)
 Number     Number       Type             X           Y           Z
 ---------------------------------------------------------------------
      1          6           0       -0.684703    0.356672    0.007009
      2          8           0       -1.779024   -0.134443   -0.011541
      3          6           0        0.556885   -0.439406    0.030934
      4          6           0        1.762847    0.139498   -0.014503
      5          1           0        0.473798   -1.473946   -0.023975
      6          1           0        1.807049    1.188341    0.013082
      7          1           0        2.652903   -0.436765   -0.036921
      8          1           0       -0.511733    1.457328   -0.000499
 ---------------------------------------------------------------------

 SCF Done:  E(RB2PLYPD3) =  -191.614891207     A.U. after   12 cycles
 E2(B2PLYPD3) =    -0.2463093713D+00 E(B2PLYPD3) =    -0.19186120057855D+03

 The electronic state is 1-A.
 Alpha  occ. eigenvalues --  -19.72929 -10.71636 -10.64755 -10.63728  -1.20296
 Alpha  occ. eigenvalues --   -0.92986  -0.75543  -0.67531  -0.57080  -0.56444
 Alpha  occ. eigenvalues --   -0.50893  -0.47615  -0.47159  -0.34520  -0.33874
 Alpha virt. eigenvalues --   -0.01603   0.05899   0.07366   0.08239   0.09846
 Alpha virt. eigenvalues --    0.12686   0.13881   0.15387   0.17798   0.19906
 Alpha virt. eigenvalues --    0.19967   0.21682   0.25441   0.26461   0.28808

 Mulliken charges:
               1
     1  C    0.151965
     2  O   -0.340237
     3  C   -0.038565
     4  C   -0.136881
     5  H    0.106020
     6  H    0.084111
     7  H    0.103903
     8  H    0.069684
 Sum of Mulliken charges =   0.00000

 Dipole moment (field-independent basis, Debye):
    X=              3.3688    Y=              0.7725    Z=             -0.0132  Tot=              3.4563
 Quadrupole moment (field-independent basis, Debye-Ang):
   XX=            -27.3089   YY=            -21.7986   ZZ=            -25.1187
   XY=             -1.1185   XZ=             -0.1510   YZ=              0.0907

 Normal termination of Gaussian 09 at Wed Aug 26 15:41:57 2020.
