 Gaussian 09, Revision D.01,
 Gaussian 09:  ES64L-G09RevD.01 24-Apr-2013

 --------------------
 #p B2PLYPD3/Def2QZVP
 --------------------

 --------
 acrolein
 --------
 Symbolic Z-matrix:
 Charge =  0 Multiplicity = 1

                         Standard orientation:
 ---------------------------------------------------------------------
 Center     Atomic      Atomic             Coordinates (Angstroms)
 Number     Number       Type             X           Y           Z
 ---------------------------------------------------------------------
      1          6           0       -0.670215    0.334565    0.016496
      2          8           0       -1.785277   -0.089896   -0.041102
      3          6           0        0.564563   -0.518518    0.039391
      4          6           0        1.739925    0.169860   -0.006012
      5          1           0        0.434286   -1.559292    0.077007
      6          1           0        1.887853    1.274202   -0.090781
      7          1           0        2.679688   -0.346909   -0.134373
      8          1           0       -0.525246    1.435726    0.177706
 ---------------------------------------------------------------------

 SCF Done:  E(RB2PLYPD3) =  -191.608469582     A.U. after   12 cycles
 E2(B2PLYPD3) =    -0.2473363358D+00 E(B2PLYPD3) =    -0.19185580591733D+03

 The electronic state is 1-A.
 Alpha  occ. eigenvalues --  -19.72559 -10.71457 -10.66182 -10.65077  -1.20327
 Alpha  occ. eigenvalues --   -0.92018  -0.74526  -0.67143  -0.56431  -0.55934
 Alpha  occ. eigenvalues --   -0.50921  -0.47026  -0.46865  -0.34335  -0.33258
 Alpha virt. eigenvalues --   -0.01475   0.05686   0.07185   0.07758   0.09532
 Alpha virt. eigenvalues --    0.12556   0.14270   0.15307   0.17542   0.19499
 Alpha virt. eigenvalues --    0.19987   0.21371   0.24675   0.26508   0.28313

 Mulliken charges:
               1
     1  C    0.155963
     2  O   -0.338620
     3  C   -0.060576
     4  C   -0.121653
     5  H    0.118212
     6  H    0.087182
     7  H    0.089669
     8  H    0.069823
 Sum of Mulliken charges =   0.00000

 Dipole moment (field-independent basis, Debye):
    X=              3.4078    Y=              0.6413    Z=              0.0464  Tot=              3.4679
 Quadrupole moment (field-independent basis, Debye-Ang):
   XX=            -27.5190   YY=            -21.5545   ZZ=            -25.3142
   XY=             -0.4289   XZ=             -0.6688   YZ=             -0.0998

 Normal termination of Gaussian 09 at Wed Aug 26 10:49:12 2020.
