 Gaussian 09, Revision D.01,
 Gaussian 09:  ES64L-G09RevD.01 24-Apr-2013

 --------------------
 #p B2PLYPD3/Def2QZVP
 --------------------

 --------
 acrolein
 --------
 Symbolic Z-matrix:
 Charge =  0 Multiplicity = 1

                         Standard orientation:
 ---------------------------------------------------------------------
 Center     Atomic      Atomic             Coordinates (Angstroms)
 Number     Number       Type             X           Y           Z
 ---------------------------------------------------------------------
      1          6           0       -0.664277    0.338341   -0.007928
      2          8           0       -1.798785   -0.110592    0.003886
      3          6           0        0.562750   -0.456278   -0.007784
      4          6           0        1.756584    0.138695    0.005457
      5          1           0        0.427268   -1.523755    0.010627
      6          1           0        1.873625    1.274415   -0.015635
      7          1           0        2.680801   -0.429060    0.011351
      8          1           0       -0.521754    1.438582    0.024101
 ---------------------------------------------------------------------

 SCF Done:  E(RB2PLYPD3) =  -191.613911356     A.U. after   13 cycles
 E2(B2PLYPD3) =    -0.2479164085D+00 E(B2PLYPD3) =    -0.19186182776464D+03

 The electronic state is 1-A.
 Alpha  occ. eigenvalues --  -19.72735 -10.71572 -10.66358 -10.64580  -1.18879
 Alpha  occ. eigenvalues --   -0.93071  -0.75430  -0.66746  -0.56563  -0.55941
 Alpha  occ. eigenvalues --   -0.50412  -0.46586  -0.46463  -0.34780  -0.33783
 Alpha virt. eigenvalues --   -0.01993   0.05569   0.07111   0.08195   0.09649
 Alpha virt. eigenvalues --    0.12355   0.13944   0.15313   0.17525   0.19401
 Alpha virt. eigenvalues --    0.19992   0.21496   0.25360   0.26496   0.28758

 Mulliken charges:
               1
     1  C    0.159941
     2  O   -0.355132
     3  C   -0.040990
     4  C   -0.124685
     5  H    0.107228
     6  H    0.083894
     7  H    0.103062
     8  H    0.066683
 Sum of Mulliken charges =   0.00000

 Dipole moment (field-independent basis, Debye):
    X=              3.6085    Y=              0.7006    Z=             -0.0024  Tot=              3.6759
 Quadrupole moment (field-independent basis, Debye-Ang):
   XX=            -27.4978   YY=            -21.7415   ZZ=            -25.2909
   XY=             -0.8157   XZ=              0.0232   YZ=             -0.0355

 Normal termination of Gaussian 09 at Wed Aug 26 19:45:10 2020.
