 Gaussian 09, Revision D.01,
 Gaussian 09:  ES64L-G09RevD.01 24-Apr-2013

 --------------------
 #p B2PLYPD3/Def2QZVP
 --------------------

 --------
 acrolein
 --------
 Symbolic Z-matrix:
 Charge =  0 Multiplicity = 1

                         Standard orientation:
 ---------------------------------------------------------------------
 Center     Atomic      Atomic             Coordinates (Angstroms)
 Number     Number       Type             X           Y           Z
 ---------------------------------------------------------------------
      1          6           0       -0.662215    0.332123    0.018742
      2          8           0       -1.789061   -0.109655   -0.018271
      3          6           0        0.565312   -0.454632    0.034848
      4          6           0        1.748842    0.156080   -0.022324
      5          1           0        0.456133   -1.529070   -0.030681
      6          1           0        1.821450    1.201199   -0.004285
      7          1           0        2.658835   -0.406477   -0.016482
      8          1           0       -0.535561    1.410159    0.010014
 ---------------------------------------------------------------------

 SCF Done:  E(RB2PLYPD3) =  -191.615842709     A.U. after   12 cycles
 E2(B2PLYPD3) =    -0.2466451558D+00 E(B2PLYPD3) =    -0.19186248786437D+03

 The electronic state is 1-A.
 Alpha  occ. eigenvalues --  -19.72550 -10.71083 -10.65123 -10.64391  -1.19336
 Alpha  occ. eigenvalues --   -0.93422  -0.75912  -0.67426  -0.57121  -0.56520
 Alpha  occ. eigenvalues --   -0.50404  -0.47542  -0.46684  -0.34776  -0.33700
 Alpha virt. eigenvalues --   -0.01837   0.05832   0.07211   0.08307   0.09758
 Alpha virt. eigenvalues --    0.12738   0.14038   0.15304   0.17515   0.19942
 Alpha virt. eigenvalues --    0.20063   0.21706   0.25314   0.26489   0.28812

 Mulliken charges:
               1
     1  C    0.150006
     2  O   -0.351632
     3  C   -0.032121
     4  C   -0.129887
     5  H    0.104603
     6  H    0.089352
     7  H    0.101549
     8  H    0.068130
 Sum of Mulliken charges =   0.00000

 Dipole moment (field-independent basis, Debye):
    X=              3.5728    Y=              0.7268    Z=              0.0180  Tot=              3.6460
 Quadrupole moment (field-independent basis, Debye-Ang):
   XX=            -27.4410   YY=            -21.7215   ZZ=            -25.1120
   XY=             -0.8668   XZ=             -0.1572   YZ=              0.0701

 Normal termination of Gaussian 09 at Wed Aug 26 21:11:13 2020.
