 Gaussian 09, Revision D.01,
 Gaussian 09:  ES64L-G09RevD.01 24-Apr-2013

 --------------------
 #p B2PLYPD3/Def2QZVP
 --------------------

 --------
 acrolein
 --------
 Symbolic Z-matrix:
 Charge =  0 Multiplicity = 1

                         Standard orientation:
 ---------------------------------------------------------------------
 Center     Atomic      Atomic             Coordinates (Angstroms)
 Number     Number       Type             X           Y           Z
 ---------------------------------------------------------------------
      1          6           0        0.675429    0.337606   -0.016507
      2          8           0        1.789809   -0.117373    0.012316
      3          6           0       -0.555827   -0.449631   -0.015755
      4          6           0       -1.749664    0.142314   -0.001116
      5          1           0       -0.473105   -1.506375    0.011595
      6          1           0       -1.842939    1.228406    0.011698
      7          1           0       -2.732243   -0.410182    0.057576
      8          1           0        0.510185    1.445401    0.020870
 ---------------------------------------------------------------------

 SCF Done:  E(RB2PLYPD3) =  -191.614906639     A.U. after   13 cycles
 E2(B2PLYPD3) =    -0.2470659763D+00 E(B2PLYPD3) =    -0.19186197261523D+03

 The electronic state is 1-A.
 Alpha  occ. eigenvalues --  -19.72839 -10.71603 -10.66075 -10.64196  -1.19948
 Alpha  occ. eigenvalues --   -0.93079  -0.75149  -0.67053  -0.56654  -0.56134
 Alpha  occ. eigenvalues --   -0.50573  -0.47078  -0.46603  -0.34783  -0.33819
 Alpha virt. eigenvalues --   -0.01761   0.05646   0.07176   0.08352   0.09661
 Alpha virt. eigenvalues --    0.12455   0.14075   0.15363   0.17688   0.19767
 Alpha virt. eigenvalues --    0.19932   0.21204   0.25484   0.26356   0.28749

 Mulliken charges:
               1
     1  C    0.154530
     2  O   -0.343503
     3  C   -0.035255
     4  C   -0.126281
     5  H    0.106712
     6  H    0.082462
     7  H    0.097522
     8  H    0.063812
 Sum of Mulliken charges =   0.00000

 Dipole moment (field-independent basis, Debye):
    X=             -3.4994    Y=              0.7090    Z=              0.0308  Tot=              3.5706
 Quadrupole moment (field-independent basis, Debye-Ang):
   XX=            -27.2485   YY=            -21.9116   ZZ=            -25.2211
   XY=              0.8753   XZ=             -0.2281   YZ=             -0.0281

 Normal termination of Gaussian 09 at Wed Aug 26 19:48:08 2020.
