 Gaussian 09, Revision D.01,
 Gaussian 09:  ES64L-G09RevD.01 24-Apr-2013

 --------------------
 #p B2PLYPD3/Def2QZVP
 --------------------

 --------
 acrolein
 --------
 Symbolic Z-matrix:
 Charge =  0 Multiplicity = 1

                         Standard orientation:
 ---------------------------------------------------------------------
 Center     Atomic      Atomic             Coordinates (Angstroms)
 Number     Number       Type             X           Y           Z
 ---------------------------------------------------------------------
      1          6           0        0.692493    0.351686   -0.050861
      2          8           0        1.779254   -0.132758    0.043768
      3          6           0       -0.542601   -0.434792   -0.012757
      4          6           0       -1.751128    0.130084    0.011945
      5          1           0       -0.470259   -1.460621   -0.087887
      6          1           0       -1.851484    1.200701    0.129050
      7          1           0       -2.790482   -0.430639    0.027662
      8          1           0        0.485611    1.470761   -0.108926
 ---------------------------------------------------------------------

 SCF Done:  E(RB2PLYPD3) =  -191.606552978     A.U. after   13 cycles
 E2(B2PLYPD3) =    -0.2470506901D+00 E(B2PLYPD3) =    -0.19185360366767D+03

 The electronic state is 1-A.
 Alpha  occ. eigenvalues --  -19.73137 -10.71893 -10.66291 -10.63709  -1.20842
 Alpha  occ. eigenvalues --   -0.92837  -0.74803  -0.67233  -0.56699  -0.55898
 Alpha  occ. eigenvalues --   -0.50777  -0.47536  -0.46106  -0.34664  -0.33936
 Alpha virt. eigenvalues --   -0.01659   0.05527   0.07285   0.08266   0.09670
 Alpha virt. eigenvalues --    0.12291   0.13921   0.15311   0.18012   0.19562
 Alpha virt. eigenvalues --    0.20021   0.20935   0.25179   0.26415   0.28744

 Mulliken charges:
               1
     1  C    0.155950
     2  O   -0.333610
     3  C   -0.037647
     4  C   -0.127219
     5  H    0.108671
     6  H    0.077985
     7  H    0.092351
     8  H    0.063519
 Sum of Mulliken charges =   0.00000

 Dipole moment (field-independent basis, Debye):
    X=             -3.3389    Y=              0.7483    Z=             -0.1357  Tot=              3.4244
 Quadrupole moment (field-independent basis, Debye-Ang):
   XX=            -27.0335   YY=            -22.0979   ZZ=            -25.2221
   XY=              0.9212   XZ=             -0.4228   YZ=              0.2249

 Normal termination of Gaussian 09 at Wed Aug 26 09:26:21 2020.
