 Gaussian 09, Revision D.01,
 Gaussian 09:  ES64L-G09RevD.01 24-Apr-2013

 --------------------
 #p B2PLYPD3/Def2QZVP
 --------------------

 --------
 acrolein
 --------
 Symbolic Z-matrix:
 Charge =  0 Multiplicity = 1

                         Standard orientation:
 ---------------------------------------------------------------------
 Center     Atomic      Atomic             Coordinates (Angstroms)
 Number     Number       Type             X           Y           Z
 ---------------------------------------------------------------------
      1          6           0       -0.683485    0.339231    0.020838
      2          8           0       -1.791040   -0.105274   -0.020408
      3          6           0        0.566959   -0.475099    0.051520
      4          6           0        1.761262    0.174713   -0.026794
      5          1           0        0.491741   -1.567016   -0.062493
      6          1           0        1.814246    1.245802    0.025856
      7          1           0        2.702920   -0.407832   -0.047845
      8          1           0       -0.549002    1.338166   -0.025634
 ---------------------------------------------------------------------

 SCF Done:  E(RB2PLYPD3) =  -191.607666623     A.U. after   12 cycles
 E2(B2PLYPD3) =    -0.2465466796D+00 E(B2PLYPD3) =    -0.19185421330268D+03

 The electronic state is 1-A.
 Alpha  occ. eigenvalues --  -19.72493 -10.70441 -10.65910 -10.64959  -1.20350
 Alpha  occ. eigenvalues --   -0.92092  -0.75270  -0.68121  -0.57133  -0.55776
 Alpha  occ. eigenvalues --   -0.50311  -0.47382  -0.46905  -0.34270  -0.33672
 Alpha virt. eigenvalues --   -0.01592   0.05771   0.07246   0.07919   0.09642
 Alpha virt. eigenvalues --    0.12685   0.14035   0.15354   0.17776   0.19805
 Alpha virt. eigenvalues --    0.19984   0.21334   0.24699   0.26901   0.28744

 Mulliken charges:
               1
     1  C    0.155390
     2  O   -0.342082
     3  C   -0.050038
     4  C   -0.137218
     5  H    0.104669
     6  H    0.088403
     7  H    0.099753
     8  H    0.081122
 Sum of Mulliken charges =   0.00000

 Dipole moment (field-independent basis, Debye):
    X=              3.3921    Y=              0.8039    Z=             -0.0194  Tot=              3.4861
 Quadrupole moment (field-independent basis, Debye-Ang):
   XX=            -27.5842   YY=            -21.5294   ZZ=            -25.2512
   XY=             -0.9487   XZ=             -0.2181   YZ=              0.1776

 Normal termination of Gaussian 09 at Wed Aug 26 07:41:17 2020.
