 Gaussian 09, Revision D.01,
 Gaussian 09:  ES64L-G09RevD.01 24-Apr-2013

 --------------------
 #p B2PLYPD3/Def2QZVP
 --------------------

 --------
 acrolein
 --------
 Symbolic Z-matrix:
 Charge =  0 Multiplicity = 1

                         Standard orientation:
 ---------------------------------------------------------------------
 Center     Atomic      Atomic             Coordinates (Angstroms)
 Number     Number       Type             X           Y           Z
 ---------------------------------------------------------------------
      1          6           0        0.668922    0.395156    0.046673
      2          8           0        1.759433   -0.168652   -0.047678
      3          6           0       -0.557950   -0.440053    0.056724
      4          6           0       -1.721516    0.136396   -0.058708
      5          1           0       -0.499964   -1.383869    0.004107
      6          1           0       -1.751146    1.164066   -0.130906
      7          1           0       -2.723738   -0.455278    0.089767
      8          1           0        0.562647    1.475296    0.150318
 ---------------------------------------------------------------------

 SCF Done:  E(RB2PLYPD3) =  -191.588174344     A.U. after   13 cycles
 E2(B2PLYPD3) =    -0.2472078543D+00 E(B2PLYPD3) =    -0.19183538219821D+03

 The electronic state is 1-A.
 Alpha  occ. eigenvalues --  -19.72828 -10.71959 -10.64798 -10.62371  -1.18457
 Alpha  occ. eigenvalues --   -0.93947  -0.74555  -0.69581  -0.57637  -0.55485
 Alpha  occ. eigenvalues --   -0.50558  -0.47405  -0.45978  -0.34920  -0.33816
 Alpha virt. eigenvalues --   -0.01471   0.05661   0.07275   0.07671   0.09883
 Alpha virt. eigenvalues --    0.12342   0.13615   0.15398   0.18243   0.19008
 Alpha virt. eigenvalues --    0.20290   0.21429   0.25646   0.26144   0.29338

 Mulliken charges:
               1
     1  C    0.145369
     2  O   -0.357207
     3  C   -0.057098
     4  C   -0.114734
     5  H    0.123311
     6  H    0.075361
     7  H    0.087774
     8  H    0.097224
 Sum of Mulliken charges =   0.00000

 Dipole moment (field-independent basis, Debye):
    X=             -3.3083    Y=              1.0085    Z=              0.1965  Tot=              3.4642
 Quadrupole moment (field-independent basis, Debye-Ang):
   XX=            -27.7598   YY=            -21.5133   ZZ=            -25.0166
   XY=              1.4603   XZ=              0.1977   YZ=             -0.0967

 Normal termination of Gaussian 09 at Wed Aug 26 13:51:59 2020.
