 Gaussian 09, Revision D.01,
 Gaussian 09:  ES64L-G09RevD.01 24-Apr-2013

 --------------------
 #p B2PLYPD3/Def2QZVP
 --------------------

 --------
 acrolein
 --------
 Symbolic Z-matrix:
 Charge =  0 Multiplicity = 1

                         Standard orientation:
 ---------------------------------------------------------------------
 Center     Atomic      Atomic             Coordinates (Angstroms)
 Number     Number       Type             X           Y           Z
 ---------------------------------------------------------------------
      1          6           0        0.674338    0.329538   -0.009763
      2          8           0        1.805448   -0.104713    0.002923
      3          6           0       -0.572011   -0.466289    0.020791
      4          6           0       -1.759442    0.147255   -0.017869
      5          1           0       -0.484896   -1.513411   -0.011214
      6          1           0       -1.885476    1.269758    0.096722
      7          1           0       -2.587172   -0.436464   -0.028882
      8          1           0        0.456652    1.454798   -0.038962
 ---------------------------------------------------------------------

 SCF Done:  E(RB2PLYPD3) =  -191.608624807     A.U. after   13 cycles
 E2(B2PLYPD3) =    -0.2476149368D+00 E(B2PLYPD3) =    -0.19185623974329D+03

 The electronic state is 1-A.
 Alpha  occ. eigenvalues --  -19.73051 -10.72052 -10.65395 -10.64331  -1.19490
 Alpha  occ. eigenvalues --   -0.93182  -0.75744  -0.66606  -0.57063  -0.55675
 Alpha  occ. eigenvalues --   -0.50660  -0.47585  -0.46723  -0.34770  -0.33700
 Alpha virt. eigenvalues --   -0.01882   0.05750   0.07174   0.08074   0.09682
 Alpha virt. eigenvalues --    0.12675   0.13820   0.15269   0.17554   0.19517
 Alpha virt. eigenvalues --    0.20015   0.21878   0.24929   0.26646   0.28193

 Mulliken charges:
               1
     1  C    0.162484
     2  O   -0.344655
     3  C   -0.042476
     4  C   -0.125982
     5  H    0.103067
     6  H    0.088078
     7  H    0.103035
     8  H    0.056450
 Sum of Mulliken charges =   0.00000

 Dipole moment (field-independent basis, Debye):
    X=             -3.5504    Y=              0.6033    Z=              0.0155  Tot=              3.6014
 Quadrupole moment (field-independent basis, Debye-Ang):
   XX=            -27.5788   YY=            -21.7574   ZZ=            -25.2167
   XY=              0.7309   XZ=             -0.0891   YZ=              0.1625

 Normal termination of Gaussian 09 at Wed Aug 26 08:46:52 2020.
