 Gaussian 09, Revision D.01,
 Gaussian 09:  ES64L-G09RevD.01 24-Apr-2013

 --------------------
 #p B2PLYPD3/Def2QZVP
 --------------------

 --------
 acrolein
 --------
 Symbolic Z-matrix:
 Charge =  0 Multiplicity = 1

                         Standard orientation:
 ---------------------------------------------------------------------
 Center     Atomic      Atomic             Coordinates (Angstroms)
 Number     Number       Type             X           Y           Z
 ---------------------------------------------------------------------
      1          6           0       -0.671838    0.343418    0.007101
      2          8           0       -1.788818   -0.117639   -0.012749
      3          6           0        0.563662   -0.453246    0.008342
      4          6           0        1.753869    0.147935   -0.016932
      5          1           0        0.428226   -1.534203    0.044458
      6          1           0        1.814439    1.195878   -0.010673
      7          1           0        2.695578   -0.409250    0.011003
      8          1           0       -0.501860    1.460047    0.066134
 ---------------------------------------------------------------------

 SCF Done:  E(RB2PLYPD3) =  -191.615837892     A.U. after   12 cycles
 E2(B2PLYPD3) =    -0.2471950004D+00 E(B2PLYPD3) =    -0.19186303289273D+03

 The electronic state is 1-A.
 Alpha  occ. eigenvalues --  -19.72908 -10.71784 -10.65328 -10.64534  -1.19690
 Alpha  occ. eigenvalues --   -0.93081  -0.75427  -0.66780  -0.56570  -0.56376
 Alpha  occ. eigenvalues --   -0.50591  -0.47200  -0.46786  -0.34742  -0.33777
 Alpha virt. eigenvalues --   -0.01754   0.05794   0.07084   0.08236   0.09779
 Alpha virt. eigenvalues --    0.12607   0.13962   0.15338   0.17305   0.19862
 Alpha virt. eigenvalues --    0.20103   0.21568   0.25441   0.26434   0.28770

 Mulliken charges:
               1
     1  C    0.156170
     2  O   -0.346207
     3  C   -0.033666
     4  C   -0.131957
     5  H    0.104236
     6  H    0.087828
     7  H    0.102006
     8  H    0.061590
 Sum of Mulliken charges =   0.00000

 Dipole moment (field-independent basis, Debye):
    X=              3.4831    Y=              0.7162    Z=              0.0968  Tot=              3.5572
 Quadrupole moment (field-independent basis, Debye-Ang):
   XX=            -27.3635   YY=            -21.8394   ZZ=            -25.2181
   XY=             -0.8261   XZ=             -0.0297   YZ=             -0.0533

 Normal termination of Gaussian 09 at Wed Aug 26 14:15:10 2020.
