 Gaussian 09, Revision D.01,
 Gaussian 09:  ES64L-G09RevD.01 24-Apr-2013

 --------------------
 #p B2PLYPD3/Def2QZVP
 --------------------

 --------
 acrolein
 --------
 Symbolic Z-matrix:
 Charge =  0 Multiplicity = 1

                         Standard orientation:
 ---------------------------------------------------------------------
 Center     Atomic      Atomic             Coordinates (Angstroms)
 Number     Number       Type             X           Y           Z
 ---------------------------------------------------------------------
      1          6           0        0.660113    0.344639    0.021103
      2          8           0        1.793756   -0.114505   -0.020814
      3          6           0       -0.560165   -0.454006    0.003445
      4          6           0       -1.754721    0.148607   -0.004480
      5          1           0       -0.421882   -1.563592    0.055835
      6          1           0       -1.807996    1.195002   -0.065207
      7          1           0       -2.675441   -0.414645   -0.018464
      8          1           0        0.483909    1.463835    0.073945
 ---------------------------------------------------------------------

 SCF Done:  E(RB2PLYPD3) =  -191.613591859     A.U. after   13 cycles
 E2(B2PLYPD3) =    -0.2482161345D+00 E(B2PLYPD3) =    -0.19186180799382D+03

 The electronic state is 1-A.
 Alpha  occ. eigenvalues --  -19.72863 -10.71927 -10.65409 -10.64918  -1.18728
 Alpha  occ. eigenvalues --   -0.93254  -0.75788  -0.66485  -0.56448  -0.56416
 Alpha  occ. eigenvalues --   -0.50249  -0.47082  -0.46381  -0.34674  -0.33860
 Alpha virt. eigenvalues --   -0.02106   0.05771   0.06895   0.08086   0.09773
 Alpha virt. eigenvalues --    0.12643   0.13917   0.15230   0.17081   0.19839
 Alpha virt. eigenvalues --    0.20210   0.21664   0.25233   0.26470   0.28841

 Mulliken charges:
               1
     1  C    0.155508
     2  O   -0.354871
     3  C   -0.028868
     4  C   -0.130996
     5  H    0.102211
     6  H    0.088921
     7  H    0.104663
     8  H    0.063431
 Sum of Mulliken charges =   0.00000

 Dipole moment (field-independent basis, Debye):
    X=             -3.6068    Y=              0.7183    Z=              0.0722  Tot=              3.6784
 Quadrupole moment (field-independent basis, Debye-Ang):
   XX=            -27.5189   YY=            -21.7598   ZZ=            -25.2664
   XY=              0.8172   XZ=              0.2206   YZ=             -0.1237

 Normal termination of Gaussian 09 at Wed Aug 26 18:39:01 2020.
