 Gaussian 09, Revision D.01,
 Gaussian 09:  ES64L-G09RevD.01 24-Apr-2013

 --------------------
 #p B2PLYPD3/Def2QZVP
 --------------------

 --------
 acrolein
 --------
 Symbolic Z-matrix:
 Charge =  0 Multiplicity = 1

                         Standard orientation:
 ---------------------------------------------------------------------
 Center     Atomic      Atomic             Coordinates (Angstroms)
 Number     Number       Type             X           Y           Z
 ---------------------------------------------------------------------
      1          6           0        0.676836    0.358854   -0.022305
      2          8           0        1.776892   -0.129223    0.016176
      3          6           0       -0.544359   -0.447968   -0.004972
      4          6           0       -1.758970    0.132236    0.002476
      5          1           0       -0.423714   -1.513395   -0.010700
      6          1           0       -1.840245    1.228297    0.067578
      7          1           0       -2.715573   -0.424942   -0.003080
      8          1           0        0.523355    1.485087   -0.034400
 ---------------------------------------------------------------------

 SCF Done:  E(RB2PLYPD3) =  -191.614976282     A.U. after   13 cycles
 E2(B2PLYPD3) =    -0.2474858470D+00 E(B2PLYPD3) =    -0.19186246212858D+03

 The electronic state is 1-A.
 Alpha  occ. eigenvalues --  -19.72829 -10.71769 -10.66075 -10.64430  -1.20010
 Alpha  occ. eigenvalues --   -0.92553  -0.75050  -0.66690  -0.56424  -0.56084
 Alpha  occ. eigenvalues --   -0.50517  -0.47077  -0.46652  -0.34426  -0.33843
 Alpha virt. eigenvalues --   -0.01814   0.05670   0.07149   0.08182   0.09744
 Alpha virt. eigenvalues --    0.12340   0.13968   0.15404   0.17517   0.19686
 Alpha virt. eigenvalues --    0.19971   0.21323   0.25453   0.26287   0.28929

 Mulliken charges:
               1
     1  C    0.158282
     2  O   -0.343454
     3  C   -0.043737
     4  C   -0.129586
     5  H    0.109118
     6  H    0.081267
     7  H    0.101719
     8  H    0.066392
 Sum of Mulliken charges =   0.00000

 Dipole moment (field-independent basis, Debye):
    X=             -3.4251    Y=              0.7522    Z=             -0.0278  Tot=              3.5069
 Quadrupole moment (field-independent basis, Debye-Ang):
   XX=            -27.2506   YY=            -21.8160   ZZ=            -25.3083
   XY=              0.9729   XZ=             -0.1680   YZ=              0.0882

 Normal termination of Gaussian 09 at Wed Aug 26 16:17:20 2020.
