 Gaussian 09, Revision D.01,
 Gaussian 09:  ES64L-G09RevD.01 24-Apr-2013

 --------------------
 #p B2PLYPD3/Def2QZVP
 --------------------

 --------
 acrolein
 --------
 Symbolic Z-matrix:
 Charge =  0 Multiplicity = 1

                         Standard orientation:
 ---------------------------------------------------------------------
 Center     Atomic      Atomic             Coordinates (Angstroms)
 Number     Number       Type             X           Y           Z
 ---------------------------------------------------------------------
      1          6           0        0.670232    0.346554    0.017938
      2          8           0        1.795951   -0.115336   -0.017225
      3          6           0       -0.561795   -0.461816   -0.000824
      4          6           0       -1.758964    0.141444   -0.001914
      5          1           0       -0.449644   -1.524795    0.052649
      6          1           0       -1.871924    1.245190   -0.059612
      7          1           0       -2.648079   -0.417604   -0.011858
      8          1           0        0.505194    1.462814    0.065425
 ---------------------------------------------------------------------

 SCF Done:  E(RB2PLYPD3) =  -191.614737444     A.U. after   12 cycles
 E2(B2PLYPD3) =    -0.2477391421D+00 E(B2PLYPD3) =    -0.19186247658597D+03

 The electronic state is 1-A.
 Alpha  occ. eigenvalues --  -19.72856 -10.71898 -10.65613 -10.64576  -1.19113
 Alpha  occ. eigenvalues --   -0.92880  -0.75514  -0.66761  -0.56680  -0.56068
 Alpha  occ. eigenvalues --   -0.50488  -0.47198  -0.46492  -0.34609  -0.33795
 Alpha virt. eigenvalues --   -0.01904   0.05720   0.07162   0.08013   0.09683
 Alpha virt. eigenvalues --    0.12535   0.13970   0.15295   0.17489   0.19619
 Alpha virt. eigenvalues --    0.20020   0.21689   0.25202   0.26479   0.28645

 Mulliken charges:
               1
     1  C    0.158272
     2  O   -0.350404
     3  C   -0.043359
     4  C   -0.127560
     5  H    0.107803
     6  H    0.084676
     7  H    0.102464
     8  H    0.068107
 Sum of Mulliken charges =   0.00000

 Dipole moment (field-independent basis, Debye):
    X=             -3.5502    Y=              0.7126    Z=              0.0685  Tot=              3.6217
 Quadrupole moment (field-independent basis, Debye-Ang):
   XX=            -27.4936   YY=            -21.6984   ZZ=            -25.2681
   XY=              0.8256   XZ=              0.1791   YZ=             -0.1230

 Normal termination of Gaussian 09 at Wed Aug 26 15:20:00 2020.
