 Gaussian 09, Revision D.01,
 Gaussian 09:  ES64L-G09RevD.01 24-Apr-2013

 --------------------
 #p B2PLYPD3/Def2QZVP
 --------------------

 --------
 acrolein
 --------
 Symbolic Z-matrix:
 Charge =  0 Multiplicity = 1

                         Standard orientation:
 ---------------------------------------------------------------------
 Center     Atomic      Atomic             Coordinates (Angstroms)
 Number     Number       Type             X           Y           Z
 ---------------------------------------------------------------------
      1          6           0        0.673052    0.360915    0.011340
      2          8           0        1.788106   -0.129055   -0.023551
      3          6           0       -0.556876   -0.444629    0.023007
      4          6           0       -1.758352    0.138877   -0.011759
      5          1           0       -0.431437   -1.523797    0.049930
      6          1           0       -1.839756    1.205271   -0.053343
      7          1           0       -2.701189   -0.433661   -0.042837
      8          1           0        0.520591    1.453642    0.099132
 ---------------------------------------------------------------------

 SCF Done:  E(RB2PLYPD3) =  -191.615920586     A.U. after   12 cycles
 E2(B2PLYPD3) =    -0.2476455168D+00 E(B2PLYPD3) =    -0.19186356610312D+03

 The electronic state is 1-A.
 Alpha  occ. eigenvalues --  -19.72857 -10.71747 -10.65604 -10.64507  -1.19099
 Alpha  occ. eigenvalues --   -0.92872  -0.75373  -0.67047  -0.56545  -0.56164
 Alpha  occ. eigenvalues --   -0.50467  -0.46886  -0.46444  -0.34594  -0.33925
 Alpha virt. eigenvalues --   -0.01864   0.05706   0.07120   0.08037   0.09742
 Alpha virt. eigenvalues --    0.12487   0.13965   0.15357   0.17472   0.19626
 Alpha virt. eigenvalues --    0.20101   0.21475   0.25406   0.26445   0.28820

 Mulliken charges:
               1
     1  C    0.155569
     2  O   -0.352381
     3  C   -0.040851
     4  C   -0.131304
     5  H    0.107621
     6  H    0.084369
     7  H    0.101338
     8  H    0.075640
 Sum of Mulliken charges =   0.00000

 Dipole moment (field-independent basis, Debye):
    X=             -3.4937    Y=              0.8103    Z=              0.0610  Tot=              3.5869
 Quadrupole moment (field-independent basis, Debye-Ang):
   XX=            -27.4626   YY=            -21.7174   ZZ=            -25.2589
   XY=              0.9696   XZ=              0.2932   YZ=             -0.0572

 Normal termination of Gaussian 09 at Wed Aug 26 19:21:24 2020.
