 Gaussian 09, Revision D.01,
 Gaussian 09:  ES64L-G09RevD.01 24-Apr-2013

 --------------------
 #p B2PLYPD3/Def2QZVP
 --------------------

 --------
 acrolein
 --------
 Symbolic Z-matrix:
 Charge =  0 Multiplicity = 1

                         Standard orientation:
 ---------------------------------------------------------------------
 Center     Atomic      Atomic             Coordinates (Angstroms)
 Number     Number       Type             X           Y           Z
 ---------------------------------------------------------------------
      1          6           0        0.666633    0.342158    0.023339
      2          8           0        1.805591   -0.104874   -0.012928
      3          6           0       -0.582874   -0.471196    0.014519
      4          6           0       -1.754125    0.162133   -0.020561
      5          1           0       -0.474392   -1.569604   -0.012334
      6          1           0       -1.834945    1.205880    0.011429
      7          1           0       -2.632037   -0.365600    0.018215
      8          1           0        0.518842    1.369741   -0.017663
 ---------------------------------------------------------------------

 SCF Done:  E(RB2PLYPD3) =  -191.609971326     A.U. after   12 cycles
 E2(B2PLYPD3) =    -0.2470021259D+00 E(B2PLYPD3) =    -0.19185697345187D+03

 The electronic state is 1-A.
 Alpha  occ. eigenvalues --  -19.72703 -10.71150 -10.64880 -10.64454  -1.18570
 Alpha  occ. eigenvalues --   -0.93199  -0.76154  -0.67929  -0.57111  -0.56640
 Alpha  occ. eigenvalues --   -0.50557  -0.47511  -0.46117  -0.34740  -0.33814
 Alpha virt. eigenvalues --   -0.01764   0.05852   0.07295   0.07822   0.09683
 Alpha virt. eigenvalues --    0.12889   0.14319   0.15306   0.17368   0.19930
 Alpha virt. eigenvalues --    0.20085   0.21985   0.25168   0.26702   0.28582

 Mulliken charges:
               1
     1  C    0.152460
     2  O   -0.357422
     3  C   -0.039759
     4  C   -0.129769
     5  H    0.103571
     6  H    0.085500
     7  H    0.100313
     8  H    0.085106
 Sum of Mulliken charges =   0.00000

 Dipole moment (field-independent basis, Debye):
    X=             -3.5812    Y=              0.7951    Z=              0.0640  Tot=              3.6689
 Quadrupole moment (field-independent basis, Debye-Ang):
   XX=            -27.6851   YY=            -21.5241   ZZ=            -25.1219
   XY=              0.7851   XZ=             -0.0040   YZ=              0.0271

 Normal termination of Gaussian 09 at Wed Aug 26 08:40:50 2020.
