 Gaussian 09, Revision D.01,
 Gaussian 09:  ES64L-G09RevD.01 24-Apr-2013

 --------------------
 #p B2PLYPD3/Def2QZVP
 --------------------

 --------
 acrolein
 --------
 Symbolic Z-matrix:
 Charge =  0 Multiplicity = 1

                         Standard orientation:
 ---------------------------------------------------------------------
 Center     Atomic      Atomic             Coordinates (Angstroms)
 Number     Number       Type             X           Y           Z
 ---------------------------------------------------------------------
      1          6           0       -0.662466    0.348540   -0.056235
      2          8           0       -1.775588   -0.153439    0.046810
      3          6           0        0.541961   -0.422475   -0.016699
      4          6           0        1.738577    0.117216    0.015593
      5          1           0        0.557148   -1.389982   -0.091348
      6          1           0        1.698092    1.101353    0.187870
      7          1           0        2.689749   -0.374420    0.002533
      8          1           0       -0.448719    1.630876   -0.129482
 ---------------------------------------------------------------------

 SCF Done:  E(RB2PLYPD3) =  -191.575966288     A.U. after   13 cycles
 E2(B2PLYPD3) =    -0.2490370282D+00 E(B2PLYPD3) =    -0.19182500331619D+03

 The electronic state is 1-A.
 Alpha  occ. eigenvalues --  -19.73592 -10.73621 -10.64166 -10.62763  -1.19239
 Alpha  occ. eigenvalues --   -0.94957  -0.76148  -0.67795  -0.57634  -0.55673
 Alpha  occ. eigenvalues --   -0.50613  -0.47347  -0.46923  -0.35076  -0.33964
 Alpha virt. eigenvalues --   -0.02291   0.05776   0.06736   0.08201   0.09848
 Alpha virt. eigenvalues --    0.12642   0.13405   0.15180   0.17571   0.19558
 Alpha virt. eigenvalues --    0.20379   0.21416   0.25098   0.26355   0.29092

 Mulliken charges:
               1
     1  C    0.158752
     2  O   -0.340524
     3  C   -0.013394
     4  C   -0.114737
     5  H    0.101176
     6  H    0.075250
     7  H    0.101174
     8  H    0.032302
 Sum of Mulliken charges =   0.00000

 Dipole moment (field-independent basis, Debye):
    X=              3.5851    Y=              0.5597    Z=             -0.1193  Tot=              3.6305
 Quadrupole moment (field-independent basis, Debye-Ang):
   XX=            -26.8488   YY=            -22.4135   ZZ=            -25.0103
   XY=             -1.2738   XZ=              0.3839   YZ=              0.2717

 Normal termination of Gaussian 09 at Wed Aug 26 13:51:05 2020.
