 Gaussian 09, Revision D.01,
 Gaussian 09:  ES64L-G09RevD.01 24-Apr-2013

 --------------------
 #p B2PLYPD3/Def2QZVP
 --------------------

 --------
 acrolein
 --------
 Symbolic Z-matrix:
 Charge =  0 Multiplicity = 1

                         Standard orientation:
 ---------------------------------------------------------------------
 Center     Atomic      Atomic             Coordinates (Angstroms)
 Number     Number       Type             X           Y           Z
 ---------------------------------------------------------------------
      1          6           0       -0.672815    0.360074    0.000874
      2          8           0       -1.776857   -0.140521   -0.006600
      3          6           0        0.550071   -0.433002   -0.012281
      4          6           0        1.752463    0.142878   -0.022353
      5          1           0        0.420191   -1.498448    0.082387
      6          1           0        1.796640    1.190007   -0.009356
      7          1           0        2.785231   -0.463391    0.080755
      8          1           0       -0.565519    1.476300    0.101577
 ---------------------------------------------------------------------

 SCF Done:  E(RB2PLYPD3) =  -191.605994994     A.U. after   13 cycles
 E2(B2PLYPD3) =    -0.2478461824D+00 E(B2PLYPD3) =    -0.19185384117588D+03

 The electronic state is 1-A.
 Alpha  occ. eigenvalues --  -19.72789 -10.71741 -10.66278 -10.64321  -1.19528
 Alpha  occ. eigenvalues --   -0.93030  -0.74870  -0.67013  -0.56855  -0.55452
 Alpha  occ. eigenvalues --   -0.50126  -0.46909  -0.46249  -0.34670  -0.33891
 Alpha virt. eigenvalues --   -0.01847   0.05479   0.06892   0.08193   0.09777
 Alpha virt. eigenvalues --    0.12128   0.13846   0.15321   0.17619   0.19618
 Alpha virt. eigenvalues --    0.20092   0.21017   0.25329   0.26413   0.29129

 Mulliken charges:
               1
     1  C    0.150849
     2  O   -0.348491
     3  C   -0.036821
     4  C   -0.129721
     5  H    0.110076
     6  H    0.088147
     7  H    0.096215
     8  H    0.069748
 Sum of Mulliken charges =   0.00000

 Dipole moment (field-independent basis, Debye):
    X=              3.4176    Y=              0.8226    Z=              0.1846  Tot=              3.5201
 Quadrupole moment (field-independent basis, Debye-Ang):
   XX=            -27.4005   YY=            -21.8324   ZZ=            -25.2887
   XY=             -1.1392   XZ=              0.1947   YZ=             -0.1350

 Normal termination of Gaussian 09 at Wed Aug 26 09:05:42 2020.
