 Gaussian 09, Revision D.01,
 Gaussian 09:  ES64L-G09RevD.01 24-Apr-2013

 --------------------
 #p B2PLYPD3/Def2QZVP
 --------------------

 --------
 acrolein
 --------
 Symbolic Z-matrix:
 Charge =  0 Multiplicity = 1

                         Standard orientation:
 ---------------------------------------------------------------------
 Center     Atomic      Atomic             Coordinates (Angstroms)
 Number     Number       Type             X           Y           Z
 ---------------------------------------------------------------------
      1          6           0       -0.630262    0.330569   -0.073414
      2          8           0       -1.801144   -0.099661    0.076484
      3          6           0        0.533636   -0.453782   -0.072086
      4          6           0        1.744629    0.126228    0.049306
      5          1           0        0.403199   -1.469022   -0.152495
      6          1           0        1.836862    1.256675   -0.032179
      7          1           0        2.717830   -0.423932    0.229894
      8          1           0       -0.436755    1.415481   -0.079931
 ---------------------------------------------------------------------

 SCF Done:  E(RB2PLYPD3) =  -191.600741744     A.U. after   15 cycles
 E2(B2PLYPD3) =    -0.2503842098D+00 E(B2PLYPD3) =    -0.19185112595336D+03

 The electronic state is 1-A.
 Alpha  occ. eigenvalues --  -19.72511 -10.71372 -10.67642 -10.64164  -1.16661
 Alpha  occ. eigenvalues --   -0.94100  -0.76306  -0.67764  -0.56541  -0.55757
 Alpha  occ. eigenvalues --   -0.49659  -0.47392  -0.45396  -0.34329  -0.33924
 Alpha virt. eigenvalues --   -0.03098   0.05283   0.06984   0.08066   0.09626
 Alpha virt. eigenvalues --    0.12274   0.13749   0.15077   0.17810   0.19485
 Alpha virt. eigenvalues --    0.20014   0.21227   0.24755   0.26720   0.29301

 Mulliken charges:
               1
     1  C    0.153413
     2  O   -0.379876
     3  C   -0.013671
     4  C   -0.122643
     5  H    0.111233
     6  H    0.083065
     7  H    0.102884
     8  H    0.065594
 Sum of Mulliken charges =   0.00000

 Dipole moment (field-independent basis, Debye):
    X=              3.9994    Y=              0.6640    Z=             -0.2475  Tot=              4.0617
 Quadrupole moment (field-independent basis, Debye-Ang):
   XX=            -27.5343   YY=            -21.8824   ZZ=            -25.2178
   XY=             -0.6982   XZ=              0.8199   YZ=             -0.0170

 Normal termination of Gaussian 09 at Wed Aug 26 13:19:38 2020.
