 Gaussian 09, Revision D.01,
 Gaussian 09:  ES64L-G09RevD.01 24-Apr-2013

 --------------------
 #p B2PLYPD3/Def2QZVP
 --------------------

 --------
 acrolein
 --------
 Symbolic Z-matrix:
 Charge =  0 Multiplicity = 1

                         Standard orientation:
 ---------------------------------------------------------------------
 Center     Atomic      Atomic             Coordinates (Angstroms)
 Number     Number       Type             X           Y           Z
 ---------------------------------------------------------------------
      1          6           0       -0.660923    0.353398   -0.026460
      2          8           0       -1.785567   -0.130728    0.022591
      3          6           0        0.555209   -0.432658   -0.029713
      4          6           0        1.750287    0.130272    0.005035
      5          1           0        0.445435   -1.515608    0.010253
      6          1           0        1.820566    1.213345    0.030483
      7          1           0        2.668510   -0.435503    0.077839
      8          1           0       -0.517410    1.477523    0.007524
 ---------------------------------------------------------------------

 SCF Done:  E(RB2PLYPD3) =  -191.614918662     A.U. after   12 cycles
 E2(B2PLYPD3) =    -0.2478872266D+00 E(B2PLYPD3) =    -0.19186280588900D+03

 The electronic state is 1-A.
 Alpha  occ. eigenvalues --  -19.72837 -10.71903 -10.65460 -10.64249  -1.18686
 Alpha  occ. eigenvalues --   -0.93585  -0.75748  -0.66617  -0.56664  -0.56392
 Alpha  occ. eigenvalues --   -0.50352  -0.46638  -0.46438  -0.34881  -0.33951
 Alpha virt. eigenvalues --   -0.02024   0.05714   0.06975   0.08265   0.09788
 Alpha virt. eigenvalues --    0.12477   0.13947   0.15316   0.17369   0.19811
 Alpha virt. eigenvalues --    0.19911   0.21632   0.25517   0.26386   0.28972

 Mulliken charges:
               1
     1  C    0.155399
     2  O   -0.355618
     3  C   -0.030806
     4  C   -0.125666
     5  H    0.104025
     6  H    0.081637
     7  H    0.104638
     8  H    0.066392
 Sum of Mulliken charges =   0.00000

 Dipole moment (field-independent basis, Debye):
    X=              3.5876    Y=              0.7585    Z=              0.0265  Tot=              3.6670
 Quadrupole moment (field-independent basis, Debye-Ang):
   XX=            -27.4367   YY=            -21.8054   ZZ=            -25.1993
   XY=             -1.0594   XZ=              0.3556   YZ=             -0.0304

 Normal termination of Gaussian 09 at Wed Aug 26 13:40:25 2020.
