 Gaussian 09, Revision D.01,
 Gaussian 09:  ES64L-G09RevD.01 24-Apr-2013

 --------------------
 #p B2PLYPD3/Def2QZVP
 --------------------

 --------
 acrolein
 --------
 Symbolic Z-matrix:
 Charge =  0 Multiplicity = 1

                         Standard orientation:
 ---------------------------------------------------------------------
 Center     Atomic      Atomic             Coordinates (Angstroms)
 Number     Number       Type             X           Y           Z
 ---------------------------------------------------------------------
      1          6           0       -0.667681    0.346859   -0.011552
      2          8           0       -1.797464   -0.121193    0.020929
      3          6           0        0.558335   -0.441632   -0.029560
      4          6           0        1.757506    0.133390    0.004981
      5          1           0        0.452192   -1.518797   -0.034907
      6          1           0        1.836465    1.238979   -0.000599
      7          1           0        2.687250   -0.433469    0.113234
      8          1           0       -0.485158    1.451132   -0.028372
 ---------------------------------------------------------------------

 SCF Done:  E(RB2PLYPD3) =  -191.614833902     A.U. after   13 cycles
 E2(B2PLYPD3) =    -0.2481104070D+00 E(B2PLYPD3) =    -0.19186294430871D+03

 The electronic state is 1-A.
 Alpha  occ. eigenvalues --  -19.72942 -10.71881 -10.66007 -10.64397  -1.18813
 Alpha  occ. eigenvalues --   -0.93258  -0.75587  -0.66733  -0.56506  -0.56065
 Alpha  occ. eigenvalues --   -0.50483  -0.46723  -0.46335  -0.34778  -0.33966
 Alpha virt. eigenvalues --   -0.02091   0.05633   0.07054   0.08201   0.09716
 Alpha virt. eigenvalues --    0.12456   0.13902   0.15318   0.17485   0.19650
 Alpha virt. eigenvalues --    0.19858   0.21513   0.25415   0.26451   0.28789

 Mulliken charges:
               1
     1  C    0.157240
     2  O   -0.354197
     3  C   -0.032085
     4  C   -0.127193
     5  H    0.103923
     6  H    0.080606
     7  H    0.104505
     8  H    0.067202
 Sum of Mulliken charges =   0.00000

 Dipole moment (field-independent basis, Debye):
    X=              3.5977    Y=              0.7320    Z=             -0.0012  Tot=              3.6714
 Quadrupole moment (field-independent basis, Debye-Ang):
   XX=            -27.4782   YY=            -21.8362   ZZ=            -25.2538
   XY=             -0.9443   XZ=              0.3746   YZ=             -0.0424

 Normal termination of Gaussian 09 at Wed Aug 26 16:32:36 2020.
