 Gaussian 09, Revision D.01,
 Gaussian 09:  ES64L-G09RevD.01 24-Apr-2013

 --------------------
 #p B2PLYPD3/Def2QZVP
 --------------------

 --------
 acrolein
 --------
 Symbolic Z-matrix:
 Charge =  0 Multiplicity = 1

                         Standard orientation:
 ---------------------------------------------------------------------
 Center     Atomic      Atomic             Coordinates (Angstroms)
 Number     Number       Type             X           Y           Z
 ---------------------------------------------------------------------
      1          6           0       -0.645378    0.329721   -0.031111
      2          8           0       -1.803377   -0.104549    0.024499
      3          6           0        0.580678   -0.473390   -0.032922
      4          6           0        1.739700    0.152224   -0.001276
      5          1           0        0.451140   -1.534322    0.033370
      6          1           0        1.845425    1.251887    0.052131
      7          1           0        2.572980   -0.412157    0.099199
      8          1           0       -0.492533    1.479660    0.011165
 ---------------------------------------------------------------------

 SCF Done:  E(RB2PLYPD3) =  -191.606858674     A.U. after   13 cycles
 E2(B2PLYPD3) =    -0.2484839007D+00 E(B2PLYPD3) =    -0.19185534257465D+03

 The electronic state is 1-A.
 Alpha  occ. eigenvalues --  -19.72804 -10.72230 -10.65013 -10.64509  -1.17789
 Alpha  occ. eigenvalues --   -0.94012  -0.75972  -0.66492  -0.57184  -0.55900
 Alpha  occ. eigenvalues --   -0.49988  -0.47645  -0.45941  -0.35094  -0.33617
 Alpha virt. eigenvalues --   -0.01997   0.05727   0.06927   0.07953   0.09713
 Alpha virt. eigenvalues --    0.12657   0.13874   0.15190   0.17194   0.19732
 Alpha virt. eigenvalues --    0.19969   0.22044   0.25088   0.26564   0.28517

 Mulliken charges:
               1
     1  C    0.158888
     2  O   -0.362311
     3  C   -0.036152
     4  C   -0.117777
     5  H    0.107402
     6  H    0.090934
     7  H    0.101120
     8  H    0.057896
 Sum of Mulliken charges =   0.00000

 Dipole moment (field-independent basis, Debye):
    X=              3.7131    Y=              0.6265    Z=              0.0758  Tot=              3.7663
 Quadrupole moment (field-independent basis, Debye-Ang):
   XX=            -27.8300   YY=            -21.6070   ZZ=            -25.1811
   XY=             -0.7127   XZ=              0.4574   YZ=             -0.0394

 Normal termination of Gaussian 09 at Wed Aug 26 10:02:08 2020.
