 Gaussian 09, Revision D.01,
 Gaussian 09:  ES64L-G09RevD.01 24-Apr-2013

 --------------------
 #p B2PLYPD3/Def2QZVP
 --------------------

 --------
 acrolein
 --------
 Symbolic Z-matrix:
 Charge =  0 Multiplicity = 1

                         Standard orientation:
 ---------------------------------------------------------------------
 Center     Atomic      Atomic             Coordinates (Angstroms)
 Number     Number       Type             X           Y           Z
 ---------------------------------------------------------------------
      1          6           0       -0.689291    0.352744    0.038335
      2          8           0       -1.782584   -0.119796   -0.044392
      3          6           0        0.558334   -0.437789    0.009504
      4          6           0        1.773128    0.145852   -0.009410
      5          1           0        0.392653   -1.575978    0.137249
      6          1           0        1.857396    1.158568   -0.113436
      7          1           0        2.681078   -0.417683   -0.061378
      8          1           0       -0.523492    1.428620    0.162121
 ---------------------------------------------------------------------

 SCF Done:  E(RB2PLYPD3) =  -191.609512080     A.U. after   13 cycles
 E2(B2PLYPD3) =    -0.2467051962D+00 E(B2PLYPD3) =    -0.19185621727664D+03

 The electronic state is 1-A.
 Alpha  occ. eigenvalues --  -19.72940 -10.71377 -10.65223 -10.64824  -1.20647
 Alpha  occ. eigenvalues --   -0.92442  -0.75899  -0.66596  -0.57070  -0.56331
 Alpha  occ. eigenvalues --   -0.51050  -0.47497  -0.46203  -0.34480  -0.33785
 Alpha virt. eigenvalues --   -0.01743   0.05913   0.07014   0.08244   0.09729
 Alpha virt. eigenvalues --    0.12748   0.14044   0.15189   0.17251   0.19527
 Alpha virt. eigenvalues --    0.20254   0.22041   0.24912   0.26796   0.28541

 Mulliken charges:
               1
     1  C    0.157104
     2  O   -0.336910
     3  C   -0.040420
     4  C   -0.135268
     5  H    0.096333
     6  H    0.085745
     7  H    0.103435
     8  H    0.069981
 Sum of Mulliken charges =   0.00000

 Dipole moment (field-independent basis, Debye):
    X=              3.3370    Y=              0.8055    Z=              0.1582  Tot=              3.4364
 Quadrupole moment (field-independent basis, Debye-Ang):
   XX=            -27.2034   YY=            -21.8788   ZZ=            -25.1965
   XY=             -0.7795   XZ=             -0.5004   YZ=             -0.2457

 Normal termination of Gaussian 09 at Wed Aug 26 08:56:37 2020.
