 Gaussian 09, Revision D.01,
 Gaussian 09:  ES64L-G09RevD.01 24-Apr-2013

 --------------------
 #p B2PLYPD3/Def2QZVP
 --------------------

 --------
 acrolein
 --------
 Symbolic Z-matrix:
 Charge =  0 Multiplicity = 1

                         Standard orientation:
 ---------------------------------------------------------------------
 Center     Atomic      Atomic             Coordinates (Angstroms)
 Number     Number       Type             X           Y           Z
 ---------------------------------------------------------------------
      1          6           0       -0.649885   -0.330951    0.008657
      2          8           0       -1.795545    0.097528    0.005114
      3          6           0        0.573187    0.466879   -0.015360
      4          6           0        1.759278   -0.167667   -0.008408
      5          1           0        0.387153    1.638469   -0.019535
      6          1           0        1.787323   -1.226973   -0.010203
      7          1           0        2.652084    0.397192    0.099360
      8          1           0       -0.557678   -1.398476   -0.019874
 ---------------------------------------------------------------------

 SCF Done:  E(RB2PLYPD3) =  -191.606111859     A.U. after   13 cycles
 E2(B2PLYPD3) =    -0.2482131712D+00 E(B2PLYPD3) =    -0.19185432503040D+03

 The electronic state is 1-A.
 Alpha  occ. eigenvalues --  -19.72429 -10.71042 -10.65820 -10.65573  -1.18536
 Alpha  occ. eigenvalues --   -0.93103  -0.75890  -0.66583  -0.56880  -0.56252
 Alpha  occ. eigenvalues --   -0.49946  -0.46791  -0.46180  -0.34604  -0.33633
 Alpha virt. eigenvalues --   -0.02142   0.05805   0.06687   0.08118   0.09690
 Alpha virt. eigenvalues --    0.12605   0.13998   0.15254   0.16819   0.19915
 Alpha virt. eigenvalues --    0.20011   0.21680   0.25143   0.26447   0.29097

 Mulliken charges:
               1
     1  C    0.154810
     2  O   -0.359605
     3  C   -0.032981
     4  C   -0.130468
     5  H    0.098419
     6  H    0.093690
     7  H    0.108166
     8  H    0.067969
 Sum of Mulliken charges =   0.00000

 Dipole moment (field-independent basis, Debye):
    X=              3.6279    Y=             -0.7318    Z=              0.0520  Tot=              3.7014
 Quadrupole moment (field-independent basis, Debye-Ang):
   XX=            -27.7465   YY=            -21.5457   ZZ=            -25.2978
   XY=              0.7757   XZ=              0.2648   YZ=              0.0533

 Normal termination of Gaussian 09 at Wed Aug 26 21:22:34 2020.
