 Gaussian 09, Revision D.01,
 Gaussian 09:  ES64L-G09RevD.01 24-Apr-2013

 --------------------
 #p B2PLYPD3/Def2QZVP
 --------------------

 --------
 acrolein
 --------
 Symbolic Z-matrix:
 Charge =  0 Multiplicity = 1

                         Standard orientation:
 ---------------------------------------------------------------------
 Center     Atomic      Atomic             Coordinates (Angstroms)
 Number     Number       Type             X           Y           Z
 ---------------------------------------------------------------------
      1          6           0        0.669519    0.359757    0.048660
      2          8           0        1.781552   -0.134662   -0.042112
      3          6           0       -0.556264   -0.435490    0.032830
      4          6           0       -1.747558    0.140543   -0.040271
      5          1           0       -0.436787   -1.498489    0.068258
      6          1           0       -1.764643    1.153037   -0.023070
      7          1           0       -2.747488   -0.416967   -0.018108
      8          1           0        0.502323    1.450860    0.062497
 ---------------------------------------------------------------------

 SCF Done:  E(RB2PLYPD3) =  -191.609139687     A.U. after   12 cycles
 E2(B2PLYPD3) =    -0.2474673226D+00 E(B2PLYPD3) =    -0.19185660701001D+03

 The electronic state is 1-A.
 Alpha  occ. eigenvalues --  -19.72931 -10.71742 -10.65195 -10.64024  -1.19053
 Alpha  occ. eigenvalues --   -0.93512  -0.75540  -0.67638  -0.56937  -0.56017
 Alpha  occ. eigenvalues --   -0.50479  -0.46997  -0.46514  -0.34767  -0.34026
 Alpha virt. eigenvalues --   -0.01868   0.05704   0.07144   0.08116   0.09832
 Alpha virt. eigenvalues --    0.12518   0.13960   0.15331   0.17518   0.19837
 Alpha virt. eigenvalues --    0.20257   0.21369   0.25540   0.26342   0.29161

 Mulliken charges:
               1
     1  C    0.148184
     2  O   -0.352978
     3  C   -0.025874
     4  C   -0.134142
     5  H    0.106115
     6  H    0.084763
     7  H    0.100170
     8  H    0.073761
 Sum of Mulliken charges =   0.00000

 Dipole moment (field-independent basis, Debye):
    X=             -3.4830    Y=              0.8284    Z=              0.1970  Tot=              3.5856
 Quadrupole moment (field-independent basis, Debye-Ang):
   XX=            -27.3654   YY=            -21.8433   ZZ=            -25.1620
   XY=              1.0622   XZ=              0.2343   YZ=             -0.0663

 Normal termination of Gaussian 09 at Wed Aug 26 20:41:41 2020.
