 Gaussian 09, Revision D.01,
 Gaussian 09:  ES64L-G09RevD.01 24-Apr-2013

 --------------------
 #p B2PLYPD3/Def2QZVP
 --------------------

 --------
 acrolein
 --------
 Symbolic Z-matrix:
 Charge =  0 Multiplicity = 1

                         Standard orientation:
 ---------------------------------------------------------------------
 Center     Atomic      Atomic             Coordinates (Angstroms)
 Number     Number       Type             X           Y           Z
 ---------------------------------------------------------------------
      1          6           0        0.675966    0.335633   -0.026592
      2          8           0        1.793817   -0.108207    0.018287
      3          6           0       -0.564380   -0.463314   -0.022149
      4          6           0       -1.753579    0.147191    0.010274
      5          1           0       -0.451703   -1.501266    0.010371
      6          1           0       -1.846141    1.262250   -0.001851
      7          1           0       -2.697419   -0.417314    0.049450
      8          1           0        0.496691    1.404925    0.026535
 ---------------------------------------------------------------------

 SCF Done:  E(RB2PLYPD3) =  -191.614671539     A.U. after   13 cycles
 E2(B2PLYPD3) =    -0.2468423698D+00 E(B2PLYPD3) =    -0.19186151390839D+03

 The electronic state is 1-A.
 Alpha  occ. eigenvalues --  -19.72791 -10.71247 -10.66119 -10.64129  -1.19901
 Alpha  occ. eigenvalues --   -0.92881  -0.75179  -0.67515  -0.56439  -0.56240
 Alpha  occ. eigenvalues --   -0.50815  -0.46991  -0.46893  -0.34703  -0.33747
 Alpha virt. eigenvalues --   -0.01666   0.05658   0.07344   0.08184   0.09670
 Alpha virt. eigenvalues --    0.12536   0.13970   0.15363   0.17834   0.19518
 Alpha virt. eigenvalues --    0.19983   0.21351   0.25305   0.26700   0.28692

 Mulliken charges:
               1
     1  C    0.158038
     2  O   -0.346333
     3  C   -0.042925
     4  C   -0.129917
     5  H    0.108605
     6  H    0.083785
     7  H    0.099950
     8  H    0.068799
 Sum of Mulliken charges =   0.00000

 Dipole moment (field-independent basis, Debye):
    X=             -3.4796    Y=              0.7040    Z=             -0.0108  Tot=              3.5502
 Quadrupole moment (field-independent basis, Debye-Ang):
   XX=            -27.4280   YY=            -21.7800   ZZ=            -25.2087
   XY=              0.8000   XZ=             -0.2113   YZ=             -0.0438

 Normal termination of Gaussian 09 at Wed Aug 26 19:25:00 2020.
