 Gaussian 09, Revision D.01,
 Gaussian 09:  ES64L-G09RevD.01 24-Apr-2013

 --------------------
 #p B2PLYPD3/Def2QZVP
 --------------------

 --------
 acrolein
 --------
 Symbolic Z-matrix:
 Charge =  0 Multiplicity = 1

                         Standard orientation:
 ---------------------------------------------------------------------
 Center     Atomic      Atomic             Coordinates (Angstroms)
 Number     Number       Type             X           Y           Z
 ---------------------------------------------------------------------
      1          6           0        0.676965    0.327646   -0.022278
      2          8           0        1.794969   -0.101513    0.031978
      3          6           0       -0.563156   -0.479364   -0.032085
      4          6           0       -1.754945    0.149332    0.006393
      5          1           0       -0.458561   -1.478375   -0.090326
      6          1           0       -1.855821    1.300782   -0.031768
      7          1           0       -2.685026   -0.418484    0.184498
      8          1           0        0.486473    1.422503   -0.030403
 ---------------------------------------------------------------------

 SCF Done:  E(RB2PLYPD3) =  -191.607138163     A.U. after   13 cycles
 E2(B2PLYPD3) =    -0.2472315811D+00 E(B2PLYPD3) =    -0.19185436974365D+03

 The electronic state is 1-A.
 Alpha  occ. eigenvalues --  -19.72799 -10.71429 -10.66726 -10.64022  -1.20187
 Alpha  occ. eigenvalues --   -0.92699  -0.74788  -0.67574  -0.56375  -0.55921
 Alpha  occ. eigenvalues --   -0.50806  -0.47511  -0.46712  -0.34528  -0.33559
 Alpha virt. eigenvalues --   -0.01744   0.05547   0.07376   0.08120   0.09615
 Alpha virt. eigenvalues --    0.12367   0.13790   0.15332   0.18041   0.19207
 Alpha virt. eigenvalues --    0.19872   0.21373   0.25105   0.26626   0.28718

 Mulliken charges:
               1
     1  C    0.158693
     2  O   -0.342244
     3  C   -0.046278
     4  C   -0.126058
     5  H    0.112016
     6  H    0.083272
     7  H    0.098864
     8  H    0.061735
 Sum of Mulliken charges =   0.00000

 Dipole moment (field-independent basis, Debye):
    X=             -3.4666    Y=              0.6311    Z=             -0.0537  Tot=              3.5240
 Quadrupole moment (field-independent basis, Debye-Ang):
   XX=            -27.4955   YY=            -21.7946   ZZ=            -25.2320
   XY=              0.7215   XZ=             -0.5179   YZ=             -0.0366

 Normal termination of Gaussian 09 at Wed Aug 26 08:43:33 2020.
