 Gaussian 09, Revision D.01,
 Gaussian 09:  ES64L-G09RevD.01 24-Apr-2013

 --------------------
 #p B2PLYPD3/Def2QZVP
 --------------------

 --------
 acrolein
 --------
 Symbolic Z-matrix:
 Charge =  0 Multiplicity = 1

                         Standard orientation:
 ---------------------------------------------------------------------
 Center     Atomic      Atomic             Coordinates (Angstroms)
 Number     Number       Type             X           Y           Z
 ---------------------------------------------------------------------
      1          6           0        0.668661    0.333198   -0.012470
      2          8           0        1.784544   -0.111062    0.024386
      3          6           0       -0.564417   -0.455121   -0.054000
      4          6           0       -1.747364    0.149792    0.003195
      5          1           0       -0.470476   -1.512180    0.039099
      6          1           0       -1.838727    1.242517    0.038564
      7          1           0       -2.617199   -0.430905    0.131981
      8          1           0        0.508768    1.421849   -0.025076
 ---------------------------------------------------------------------

 SCF Done:  E(RB2PLYPD3) =  -191.615583542     A.U. after   12 cycles
 E2(B2PLYPD3) =    -0.2464341836D+00 E(B2PLYPD3) =    -0.19186201772533D+03

 The electronic state is 1-A.
 Alpha  occ. eigenvalues --  -19.72678 -10.71213 -10.65289 -10.64074  -1.19961
 Alpha  occ. eigenvalues --   -0.93326  -0.75622  -0.67135  -0.56792  -0.56529
 Alpha  occ. eigenvalues --   -0.50662  -0.47373  -0.46990  -0.34804  -0.33697
 Alpha virt. eigenvalues --   -0.01641   0.05822   0.07204   0.08330   0.09750
 Alpha virt. eigenvalues --    0.12730   0.13939   0.15319   0.17708   0.19711
 Alpha virt. eigenvalues --    0.19858   0.21820   0.25187   0.26574   0.28564

 Mulliken charges:
               1
     1  C    0.154012
     2  O   -0.344840
     3  C   -0.037499
     4  C   -0.126737
     5  H    0.103470
     6  H    0.086092
     7  H    0.101340
     8  H    0.064164
 Sum of Mulliken charges =   0.00000

 Dipole moment (field-independent basis, Debye):
    X=             -3.4851    Y=              0.6909    Z=              0.1104  Tot=              3.5546
 Quadrupole moment (field-independent basis, Debye-Ang):
   XX=            -27.5042   YY=            -21.7393   ZZ=            -25.1005
   XY=              0.8706   XZ=             -0.5444   YZ=             -0.1216

 Normal termination of Gaussian 09 at Wed Aug 26 09:44:23 2020.
