 Gaussian 09, Revision D.01,
 Gaussian 09:  ES64L-G09RevD.01 24-Apr-2013

 --------------------
 #p B2PLYPD3/Def2QZVP
 --------------------

 --------
 acrolein
 --------
 Symbolic Z-matrix:
 Charge =  0 Multiplicity = 1

                         Standard orientation:
 ---------------------------------------------------------------------
 Center     Atomic      Atomic             Coordinates (Angstroms)
 Number     Number       Type             X           Y           Z
 ---------------------------------------------------------------------
      1          6           0        0.669226    0.361248    0.007395
      2          8           0        1.780637   -0.139534   -0.029685
      3          6           0       -0.558795   -0.417576    0.019649
      4          6           0       -1.752889    0.139679   -0.012426
      5          1           0       -0.426722   -1.575792    0.101835
      6          1           0       -1.748623    1.159626   -0.109355
      7          1           0       -2.702246   -0.457278   -0.032595
      8          1           0        0.487240    1.489611    0.189886
 ---------------------------------------------------------------------

 SCF Done:  E(RB2PLYPD3) =  -191.603599829     A.U. after   13 cycles
 E2(B2PLYPD3) =    -0.2484148560D+00 E(B2PLYPD3) =    -0.19185201468499D+03

 The electronic state is 1-A.
 Alpha  occ. eigenvalues --  -19.73181 -10.72321 -10.65080 -10.64789  -1.19245
 Alpha  occ. eigenvalues --   -0.93610  -0.75573  -0.65784  -0.56583  -0.56170
 Alpha  occ. eigenvalues --   -0.50581  -0.46903  -0.45507  -0.35011  -0.33998
 Alpha virt. eigenvalues --   -0.01946   0.05788   0.06436   0.08122   0.09872
 Alpha virt. eigenvalues --    0.12564   0.13741   0.15228   0.16879   0.19328
 Alpha virt. eigenvalues --    0.20515   0.21520   0.25209   0.26721   0.28921

 Mulliken charges:
               1
     1  C    0.156149
     2  O   -0.346376
     3  C   -0.025911
     4  C   -0.132222
     5  H    0.093342
     6  H    0.084630
     7  H    0.109946
     8  H    0.060441
 Sum of Mulliken charges =   0.00000

 Dipole moment (field-independent basis, Debye):
    X=             -3.4689    Y=              0.7759    Z=              0.0942  Tot=              3.5559
 Quadrupole moment (field-independent basis, Debye-Ang):
   XX=            -27.4108   YY=            -21.9571   ZZ=            -25.2457
   XY=              1.1415   XZ=              0.3486   YZ=             -0.1596

 Normal termination of Gaussian 09 at Wed Aug 26 09:57:40 2020.
