 Gaussian 09, Revision D.01,
 Gaussian 09:  ES64L-G09RevD.01 24-Apr-2013

 --------------------
 #p B2PLYPD3/Def2QZVP
 --------------------

 --------
 acrolein
 --------
 Symbolic Z-matrix:
 Charge =  0 Multiplicity = 1

                         Standard orientation:
 ---------------------------------------------------------------------
 Center     Atomic      Atomic             Coordinates (Angstroms)
 Number     Number       Type             X           Y           Z
 ---------------------------------------------------------------------
      1          6           0       -0.652863    0.330002   -0.014734
      2          8           0       -1.805360   -0.112493    0.033953
      3          6           0        0.598703   -0.451375   -0.084894
      4          6           0        1.737648    0.160261    0.023971
      5          1           0        0.482729   -1.499314    0.061798
      6          1           0        1.755012    1.265310    0.015432
      7          1           0        2.695986   -0.409209    0.149939
      8          1           0       -0.591776    1.309830   -0.044854
 ---------------------------------------------------------------------

 SCF Done:  E(RB2PLYPD3) =  -191.598723253     A.U. after   12 cycles
 E2(B2PLYPD3) =    -0.2471899459D+00 E(B2PLYPD3) =    -0.19184591319900D+03

 The electronic state is 1-A.
 Alpha  occ. eigenvalues --  -19.72460 -10.70451 -10.65779 -10.63942  -1.17873
 Alpha  occ. eigenvalues --   -0.94147  -0.75744  -0.68625  -0.57382  -0.56096
 Alpha  occ. eigenvalues --   -0.50338  -0.46522  -0.45840  -0.35370  -0.33820
 Alpha virt. eigenvalues --   -0.01634   0.05593   0.07210   0.07872   0.09658
 Alpha virt. eigenvalues --    0.12618   0.13646   0.15166   0.17894   0.19502
 Alpha virt. eigenvalues --    0.19870   0.21542   0.24789   0.26892   0.29346

 Mulliken charges:
               1
     1  C    0.156621
     2  O   -0.367734
     3  C   -0.039749
     4  C   -0.116374
     5  H    0.105798
     6  H    0.082301
     7  H    0.099588
     8  H    0.079550
 Sum of Mulliken charges =   0.00000

 Dipole moment (field-independent basis, Debye):
    X=              3.6520    Y=              0.8257    Z=              0.0862  Tot=              3.7451
 Quadrupole moment (field-independent basis, Debye-Ang):
   XX=            -27.8575   YY=            -21.6436   ZZ=            -25.0247
   XY=             -1.1344   XZ=              0.6224   YZ=             -0.2152

 Normal termination of Gaussian 09 at Wed Aug 26 11:42:31 2020.
