 Gaussian 09, Revision D.01,
 Gaussian 09:  ES64L-G09RevD.01 24-Apr-2013

 --------------------
 #p B2PLYPD3/Def2QZVP
 --------------------

 --------
 acrolein
 --------
 Symbolic Z-matrix:
 Charge =  0 Multiplicity = 1

                         Standard orientation:
 ---------------------------------------------------------------------
 Center     Atomic      Atomic             Coordinates (Angstroms)
 Number     Number       Type             X           Y           Z
 ---------------------------------------------------------------------
      1          6           0       -0.680978    0.372445   -0.038122
      2          8           0       -1.784217   -0.140284    0.041889
      3          6           0        0.554302   -0.430121   -0.040920
      4          6           0        1.769848    0.129857    0.016974
      5          1           0        0.388422   -1.516661   -0.014716
      6          1           0        1.771269    1.177103    0.162725
      7          1           0        2.734457   -0.445480    0.019415
      8          1           0       -0.479438    1.474217   -0.130132
 ---------------------------------------------------------------------

 SCF Done:  E(RB2PLYPD3) =  -191.610761945     A.U. after   13 cycles
 E2(B2PLYPD3) =    -0.2483645126D+00 E(B2PLYPD3) =    -0.19185912645740D+03

 The electronic state is 1-A.
 Alpha  occ. eigenvalues --  -19.73189 -10.72140 -10.65692 -10.64509  -1.19274
 Alpha  occ. eigenvalues --   -0.92769  -0.75335  -0.66704  -0.56192  -0.56068
 Alpha  occ. eigenvalues --   -0.50737  -0.46671  -0.46376  -0.34487  -0.34043
 Alpha virt. eigenvalues --   -0.02042   0.05683   0.07093   0.07914   0.09880
 Alpha virt. eigenvalues --    0.12466   0.13607   0.15431   0.17266   0.19378
 Alpha virt. eigenvalues --    0.20273   0.21365   0.25237   0.26456   0.28950

 Mulliken charges:
               1
     1  C    0.159652
     2  O   -0.350463
     3  C   -0.038635
     4  C   -0.134407
     5  H    0.103753
     6  H    0.081195
     7  H    0.107692
     8  H    0.071214
 Sum of Mulliken charges =   0.00000

 Dipole moment (field-independent basis, Debye):
    X=              3.4166    Y=              0.8227    Z=             -0.0350  Tot=              3.5144
 Quadrupole moment (field-independent basis, Debye-Ang):
   XX=            -27.3903   YY=            -21.9095   ZZ=            -25.2982
   XY=             -1.0988   XZ=              0.4921   YZ=              0.1246

 Normal termination of Gaussian 09 at Wed Aug 26 08:18:42 2020.
