 Gaussian 09, Revision D.01,
 Gaussian 09:  ES64L-G09RevD.01 24-Apr-2013

 --------------------
 #p B2PLYPD3/Def2QZVP
 --------------------

 --------
 acrolein
 --------
 Symbolic Z-matrix:
 Charge =  0 Multiplicity = 1

                         Standard orientation:
 ---------------------------------------------------------------------
 Center     Atomic      Atomic             Coordinates (Angstroms)
 Number     Number       Type             X           Y           Z
 ---------------------------------------------------------------------
      1          6           0       -0.675438    0.351077    0.006774
      2          8           0       -1.801475   -0.107242   -0.023105
      3          6           0        0.564272   -0.474905    0.012209
      4          6           0        1.758316    0.145815   -0.010088
      5          1           0        0.446557   -1.588623    0.059601
      6          1           0        1.945171    1.296352   -0.104454
      7          1           0        2.645472   -0.427383    0.008164
      8          1           0       -0.508300    1.445667    0.168160
 ---------------------------------------------------------------------

 SCF Done:  E(RB2PLYPD3) =  -191.607428380     A.U. after   13 cycles
 E2(B2PLYPD3) =    -0.2484872750D+00 E(B2PLYPD3) =    -0.19185591565504D+03

 The electronic state is 1-A.
 Alpha  occ. eigenvalues --  -19.72867 -10.71918 -10.66251 -10.65365  -1.19167
 Alpha  occ. eigenvalues --   -0.92272  -0.75013  -0.66063  -0.56361  -0.55471
 Alpha  occ. eigenvalues --   -0.50438  -0.46433  -0.46211  -0.34531  -0.33715
 Alpha virt. eigenvalues --   -0.01791   0.05548   0.06848   0.07740   0.09509
 Alpha virt. eigenvalues --    0.12350   0.14065   0.15325   0.17294   0.19110
 Alpha virt. eigenvalues --    0.20088   0.21650   0.24853   0.26667   0.28232

 Mulliken charges:
               1
     1  C    0.163798
     2  O   -0.347971
     3  C   -0.056636
     4  C   -0.126072
     5  H    0.106834
     6  H    0.084382
     7  H    0.101026
     8  H    0.074639
 Sum of Mulliken charges =   0.00000

 Dipole moment (field-independent basis, Debye):
    X=              3.5198    Y=              0.7135    Z=              0.0905  Tot=              3.5925
 Quadrupole moment (field-independent basis, Debye-Ang):
   XX=            -27.6191   YY=            -21.5528   ZZ=            -25.4178
   XY=             -0.6729   XZ=             -0.2557   YZ=             -0.1510

 Normal termination of Gaussian 09 at Wed Aug 26 09:25:47 2020.
