 Gaussian 09, Revision D.01,
 Gaussian 09:  ES64L-G09RevD.01 24-Apr-2013

 --------------------
 #p B2PLYPD3/Def2QZVP
 --------------------

 --------
 acrolein
 --------
 Symbolic Z-matrix:
 Charge =  0 Multiplicity = 1

                         Standard orientation:
 ---------------------------------------------------------------------
 Center     Atomic      Atomic             Coordinates (Angstroms)
 Number     Number       Type             X           Y           Z
 ---------------------------------------------------------------------
      1          6           0        0.673932    0.360169    0.003094
      2          8           0        1.777407   -0.132603   -0.012150
      3          6           0       -0.554181   -0.439001    0.005588
      4          6           0       -1.749793    0.136626   -0.021614
      5          1           0       -0.447762   -1.532763    0.063456
      6          1           0       -1.804327    1.220131   -0.005524
      7          1           0       -2.713383   -0.425480    0.028138
      8          1           0        0.526479    1.452175    0.088721
 ---------------------------------------------------------------------

 SCF Done:  E(RB2PLYPD3) =  -191.615282044     A.U. after   12 cycles
 E2(B2PLYPD3) =    -0.2471887571D+00 E(B2PLYPD3) =    -0.19186247080075D+03

 The electronic state is 1-A.
 Alpha  occ. eigenvalues --  -19.72829 -10.71592 -10.65635 -10.64353  -1.19718
 Alpha  occ. eigenvalues --   -0.92990  -0.75118  -0.66822  -0.56566  -0.56155
 Alpha  occ. eigenvalues --   -0.50586  -0.46983  -0.46176  -0.34728  -0.33945
 Alpha virt. eigenvalues --   -0.01637   0.05713   0.06989   0.08229   0.09754
 Alpha virt. eigenvalues --    0.12436   0.14066   0.15361   0.17447   0.19651
 Alpha virt. eigenvalues --    0.20002   0.21378   0.25565   0.26469   0.28963

 Mulliken charges:
               1
     1  C    0.154318
     2  O   -0.345852
     3  C   -0.038538
     4  C   -0.128968
     5  H    0.104123
     6  H    0.079588
     7  H    0.101757
     8  H    0.073572
 Sum of Mulliken charges =   0.00000

 Dipole moment (field-independent basis, Debye):
    X=             -3.4181    Y=              0.8049    Z=              0.1377  Tot=              3.5143
 Quadrupole moment (field-independent basis, Debye-Ang):
   XX=            -27.3861   YY=            -21.7766   ZZ=            -25.2355
   XY=              1.0885   XZ=             -0.0354   YZ=             -0.0682

 Normal termination of Gaussian 09 at Wed Aug 26 15:49:50 2020.
