 Gaussian 09, Revision D.01,
 Gaussian 09:  ES64L-G09RevD.01 24-Apr-2013

 --------------------
 #p B2PLYPD3/Def2QZVP
 --------------------

 --------
 acrolein
 --------
 Symbolic Z-matrix:
 Charge =  0 Multiplicity = 1

                         Standard orientation:
 ---------------------------------------------------------------------
 Center     Atomic      Atomic             Coordinates (Angstroms)
 Number     Number       Type             X           Y           Z
 ---------------------------------------------------------------------
      1          6           0        0.662875    0.338357    0.025976
      2          8           0        1.804292   -0.112898   -0.025977
      3          6           0       -0.590040   -0.463294   -0.006524
      4          6           0       -1.751360    0.143931   -0.023652
      5          1           0       -0.495647   -1.488012    0.118508
      6          1           0       -1.828354    1.272771   -0.046685
      7          1           0       -2.555174   -0.399655    0.035747
      8          1           0        0.515989    1.404112    0.125447
 ---------------------------------------------------------------------

 SCF Done:  E(RB2PLYPD3) =  -191.602081701     A.U. after   13 cycles
 E2(B2PLYPD3) =    -0.2469654295D+00 E(B2PLYPD3) =    -0.19184904713050D+03

 The electronic state is 1-A.
 Alpha  occ. eigenvalues --  -19.72849 -10.71607 -10.64381 -10.63799  -1.18385
 Alpha  occ. eigenvalues --   -0.93927  -0.76194  -0.67638  -0.57854  -0.56062
 Alpha  occ. eigenvalues --   -0.50787  -0.47639  -0.45930  -0.35118  -0.33817
 Alpha virt. eigenvalues --   -0.01618   0.05823   0.07244   0.07974   0.09697
 Alpha virt. eigenvalues --    0.12690   0.14082   0.15194   0.17718   0.19350
 Alpha virt. eigenvalues --    0.20099   0.22202   0.25136   0.26871   0.28781

 Mulliken charges:
               1
     1  C    0.153647
     2  O   -0.356757
     3  C   -0.042114
     4  C   -0.126188
     5  H    0.104109
     6  H    0.083805
     7  H    0.104742
     8  H    0.078756
 Sum of Mulliken charges =   0.00000

 Dipole moment (field-independent basis, Debye):
    X=             -3.5672    Y=              0.7341    Z=              0.2396  Tot=              3.6499
 Quadrupole moment (field-independent basis, Debye-Ang):
   XX=            -27.8156   YY=            -21.5749   ZZ=            -25.0270
   XY=              0.9558   XZ=              0.0340   YZ=             -0.1996

 Normal termination of Gaussian 09 at Wed Aug 26 08:44:48 2020.
