 Gaussian 09, Revision D.01,
 Gaussian 09:  ES64L-G09RevD.01 24-Apr-2013

 --------------------
 #p B2PLYPD3/Def2QZVP
 --------------------

 --------
 acrolein
 --------
 Symbolic Z-matrix:
 Charge =  0 Multiplicity = 1

                         Standard orientation:
 ---------------------------------------------------------------------
 Center     Atomic      Atomic             Coordinates (Angstroms)
 Number     Number       Type             X           Y           Z
 ---------------------------------------------------------------------
      1          6           0       -0.647796    0.294503   -0.053148
      2          8           0       -1.828655   -0.087203    0.057861
      3          6           0        0.588493   -0.480634   -0.069029
      4          6           0        1.739161    0.178281    0.013741
      5          1           0        0.513406   -1.523906    0.008296
      6          1           0        1.859784    1.347965    0.123845
      7          1           0        2.698535   -0.477797    0.166034
      8          1           0       -0.521640    1.398468   -0.110444
 ---------------------------------------------------------------------

 SCF Done:  E(RB2PLYPD3) =  -191.596914405     A.U. after   13 cycles
 E2(B2PLYPD3) =    -0.2500682093D+00 E(B2PLYPD3) =    -0.19184698261384D+03

 The electronic state is 1-A.
 Alpha  occ. eigenvalues --  -19.72637 -10.71844 -10.67893 -10.64800  -1.17201
 Alpha  occ. eigenvalues --   -0.93755  -0.74828  -0.66903  -0.55891  -0.55533
 Alpha  occ. eigenvalues --   -0.49749  -0.46223  -0.45645  -0.35090  -0.33546
 Alpha virt. eigenvalues --   -0.02375   0.05095   0.06691   0.07905   0.09476
 Alpha virt. eigenvalues --    0.12179   0.13568   0.15124   0.17846   0.18746
 Alpha virt. eigenvalues --    0.19902   0.21276   0.24617   0.26354   0.28536

 Mulliken charges:
               1
     1  C    0.155263
     2  O   -0.367219
     3  C   -0.035182
     4  C   -0.108294
     5  H    0.108960
     6  H    0.094908
     7  H    0.090151
     8  H    0.061413
 Sum of Mulliken charges =   0.00000

 Dipole moment (field-independent basis, Debye):
    X=              3.8401    Y=              0.5950    Z=              0.0185  Tot=              3.8860
 Quadrupole moment (field-independent basis, Debye-Ang):
   XX=            -28.1826   YY=            -21.5752   ZZ=            -25.3887
   XY=             -0.7121   XZ=              0.8954   YZ=              0.0033

 Normal termination of Gaussian 09 at Wed Aug 26 11:30:22 2020.
