 Gaussian 09, Revision D.01,
 Gaussian 09:  ES64L-G09RevD.01 24-Apr-2013

 --------------------
 #p B2PLYPD3/Def2QZVP
 --------------------

 --------
 acrolein
 --------
 Symbolic Z-matrix:
 Charge =  0 Multiplicity = 1

                         Standard orientation:
 ---------------------------------------------------------------------
 Center     Atomic      Atomic             Coordinates (Angstroms)
 Number     Number       Type             X           Y           Z
 ---------------------------------------------------------------------
      1          6           0        0.649784    0.338843    0.038901
      2          8           0        1.799579   -0.105311   -0.023061
      3          6           0       -0.562489   -0.462713    0.020089
      4          6           0       -1.751763    0.137822   -0.018589
      5          1           0       -0.422888   -1.542762   -0.014192
      6          1           0       -1.906786    1.255142   -0.021699
      7          1           0       -2.597871   -0.411210   -0.005388
      8          1           0        0.517724    1.457598   -0.016636
 ---------------------------------------------------------------------

 SCF Done:  E(RB2PLYPD3) =  -191.608166156     A.U. after   13 cycles
 E2(B2PLYPD3) =    -0.2483894946D+00 E(B2PLYPD3) =    -0.19185655565108D+03

 The electronic state is 1-A.
 Alpha  occ. eigenvalues --  -19.72645 -10.71751 -10.65493 -10.64795  -1.17982
 Alpha  occ. eigenvalues --   -0.93492  -0.76301  -0.66502  -0.57156  -0.56025
 Alpha  occ. eigenvalues --   -0.50059  -0.47171  -0.46036  -0.34787  -0.33684
 Alpha virt. eigenvalues --   -0.02232   0.05660   0.07043   0.08035   0.09647
 Alpha virt. eigenvalues --    0.12506   0.14072   0.15266   0.17254   0.19611
 Alpha virt. eigenvalues --    0.20007   0.22029   0.25248   0.26447   0.28631

 Mulliken charges:
               1
     1  C    0.159143
     2  O   -0.362763
     3  C   -0.040168
     4  C   -0.121866
     5  H    0.107739
     6  H    0.087104
     7  H    0.104062
     8  H    0.066749
 Sum of Mulliken charges =   0.00000

 Dipole moment (field-independent basis, Debye):
    X=             -3.7278    Y=              0.6834    Z=              0.0507  Tot=              3.7902
 Quadrupole moment (field-independent basis, Debye-Ang):
   XX=            -27.5794   YY=            -21.6222   ZZ=            -25.2353
   XY=              0.6980   XZ=              0.1558   YZ=             -0.0071

 Normal termination of Gaussian 09 at Wed Aug 26 09:14:19 2020.
