 Gaussian 09, Revision D.01,
 Gaussian 09:  ES64L-G09RevD.01 24-Apr-2013

 --------------------
 #p B2PLYPD3/Def2QZVP
 --------------------

 --------
 acrolein
 --------
 Symbolic Z-matrix:
 Charge =  0 Multiplicity = 1

                         Standard orientation:
 ---------------------------------------------------------------------
 Center     Atomic      Atomic             Coordinates (Angstroms)
 Number     Number       Type             X           Y           Z
 ---------------------------------------------------------------------
      1          6           0       -0.708681    0.379584    0.060437
      2          8           0       -1.753941   -0.157975   -0.064037
      3          6           0        0.546014   -0.410817    0.053863
      4          6           0        1.802852    0.126613   -0.063111
      5          1           0        0.363437   -1.509694    0.063060
      6          1           0        1.845624    1.140701   -0.180045
      7          1           0        2.588506   -0.481610    0.115666
      8          1           0       -0.607152    1.542124    0.206480
 ---------------------------------------------------------------------

 SCF Done:  E(RB2PLYPD3) =  -191.600067960     A.U. after   13 cycles
 E2(B2PLYPD3) =    -0.2469725172D+00 E(B2PLYPD3) =    -0.19184704047759D+03

 The electronic state is 1-A.
 Alpha  occ. eigenvalues --  -19.73132 -10.72049 -10.64880 -10.64244  -1.21682
 Alpha  occ. eigenvalues --   -0.91838  -0.75758  -0.65822  -0.57600  -0.56232
 Alpha  occ. eigenvalues --   -0.51402  -0.47848  -0.46925  -0.34112  -0.33337
 Alpha virt. eigenvalues --   -0.01936   0.06061   0.07038   0.08335   0.10014
 Alpha virt. eigenvalues --    0.12430   0.13675   0.15682   0.16879   0.19300
 Alpha virt. eigenvalues --    0.20070   0.22380   0.25261   0.26306   0.28851

 Mulliken charges:
               1
     1  C    0.159950
     2  O   -0.324761
     3  C   -0.053310
     4  C   -0.142696
     5  H    0.100782
     6  H    0.089090
     7  H    0.112737
     8  H    0.058207
 Sum of Mulliken charges =   0.00000

 Dipole moment (field-independent basis, Debye):
    X=              3.0624    Y=              0.8093    Z=              0.2530  Tot=              3.1776
 Quadrupole moment (field-independent basis, Debye-Ang):
   XX=            -27.1859   YY=            -21.8491   ZZ=            -25.2499
   XY=             -1.1639   XZ=             -0.2778   YZ=             -0.2915

 Normal termination of Gaussian 09 at Wed Aug 26 14:13:29 2020.
