 Gaussian 09, Revision D.01,
 Gaussian 09:  ES64L-G09RevD.01 24-Apr-2013

 --------------------
 #p B2PLYPD3/Def2QZVP
 --------------------

 --------
 acrolein
 --------
 Symbolic Z-matrix:
 Charge =  0 Multiplicity = 1

                         Standard orientation:
 ---------------------------------------------------------------------
 Center     Atomic      Atomic             Coordinates (Angstroms)
 Number     Number       Type             X           Y           Z
 ---------------------------------------------------------------------
      1          6           0        0.643422    0.324890    0.069618
      2          8           0        1.818361   -0.091876   -0.037318
      3          6           0       -0.564923   -0.477928    0.023479
      4          6           0       -1.752714    0.141896   -0.038115
      5          1           0       -0.404724   -1.522355    0.004857
      6          1           0       -1.937087    1.286549    0.006745
      7          1           0       -2.733612   -0.373435    0.002258
      8          1           0        0.573829    1.411104   -0.045213
 ---------------------------------------------------------------------

 SCF Done:  E(RB2PLYPD3) =  -191.600722669     A.U. after   13 cycles
 E2(B2PLYPD3) =    -0.2499350781D+00 E(B2PLYPD3) =    -0.19185065774737D+03

 The electronic state is 1-A.
 Alpha  occ. eigenvalues --  -19.72489 -10.71535 -10.67315 -10.65144  -1.16973
 Alpha  occ. eigenvalues --   -0.93285  -0.75600  -0.67227  -0.56878  -0.55747
 Alpha  occ. eigenvalues --   -0.49765  -0.46140  -0.45514  -0.34747  -0.33544
 Alpha virt. eigenvalues --   -0.02717   0.05316   0.07190   0.07591   0.09467
 Alpha virt. eigenvalues --    0.12138   0.14226   0.15188   0.17620   0.19363
 Alpha virt. eigenvalues --    0.19883   0.21232   0.24715   0.26548   0.29000

 Mulliken charges:
               1
     1  C    0.159448
     2  O   -0.372944
     3  C   -0.045049
     4  C   -0.110270
     5  H    0.116758
     6  H    0.083418
     7  H    0.094349
     8  H    0.074290
 Sum of Mulliken charges =   0.00000

 Dipole moment (field-independent basis, Debye):
    X=             -3.8719    Y=              0.6914    Z=              0.1506  Tot=              3.9361
 Quadrupole moment (field-independent basis, Debye-Ang):
   XX=            -27.5301   YY=            -21.7377   ZZ=            -25.3567
   XY=              0.5429   XZ=              0.1149   YZ=             -0.0288

 Normal termination of Gaussian 09 at Wed Aug 26 12:10:10 2020.
