 Gaussian 09, Revision D.01,
 Gaussian 09:  ES64L-G09RevD.01 24-Apr-2013

 --------------------
 #p B2PLYPD3/Def2QZVP
 --------------------

 --------
 acrolein
 --------
 Symbolic Z-matrix:
 Charge =  0 Multiplicity = 1

                         Standard orientation:
 ---------------------------------------------------------------------
 Center     Atomic      Atomic             Coordinates (Angstroms)
 Number     Number       Type             X           Y           Z
 ---------------------------------------------------------------------
      1          6           0       -0.706350    0.375501    0.041671
      2          8           0       -1.751559   -0.162992   -0.069431
      3          6           0        0.557616   -0.410226    0.042634
      4          6           0        1.756790    0.156909   -0.080708
      5          1           0        0.457377   -1.516826    0.219692
      6          1           0        1.778335    1.084789   -0.116378
      7          1           0        2.796787   -0.444144    0.088318
      8          1           0       -0.668367    1.447012    0.342227
 ---------------------------------------------------------------------

 SCF Done:  E(RB2PLYPD3) =  -191.579662640     A.U. after   13 cycles
 E2(B2PLYPD3) =    -0.2461390347D+00 E(B2PLYPD3) =    -0.19182580167455D+03

 The electronic state is 1-A.
 Alpha  occ. eigenvalues --  -19.72961 -10.71609 -10.64585 -10.64321  -1.21685
 Alpha  occ. eigenvalues --   -0.92656  -0.74963  -0.67199  -0.58178  -0.55304
 Alpha  occ. eigenvalues --   -0.50808  -0.47510  -0.45992  -0.34494  -0.33789
 Alpha virt. eigenvalues --   -0.01191   0.05714   0.06652   0.08197   0.09790
 Alpha virt. eigenvalues --    0.12271   0.14219   0.15382   0.17454   0.19078
 Alpha virt. eigenvalues --    0.20297   0.21541   0.25176   0.26894   0.28833

 Mulliken charges:
               1
     1  C    0.145911
     2  O   -0.321028
     3  C   -0.046444
     4  C   -0.147511
     5  H    0.102825
     6  H    0.097269
     7  H    0.091349
     8  H    0.077629
 Sum of Mulliken charges =   0.00000

 Dipole moment (field-independent basis, Debye):
    X=              2.9790    Y=              0.9378    Z=              0.4669  Tot=              3.1578
 Quadrupole moment (field-independent basis, Debye-Ang):
   XX=            -27.1666   YY=            -21.9064   ZZ=            -25.1121
   XY=             -1.3320   XZ=             -0.2050   YZ=             -0.3515

 Normal termination of Gaussian 09 at Wed Aug 26 13:59:32 2020.
