 Gaussian 09, Revision D.01,
 Gaussian 09:  ES64L-G09RevD.01 24-Apr-2013

 --------------------
 #p B2PLYPD3/Def2QZVP
 --------------------

 --------
 acrolein
 --------
 Symbolic Z-matrix:
 Charge =  0 Multiplicity = 1

                         Standard orientation:
 ---------------------------------------------------------------------
 Center     Atomic      Atomic             Coordinates (Angstroms)
 Number     Number       Type             X           Y           Z
 ---------------------------------------------------------------------
      1          6           0       -0.671609    0.349843   -0.025890
      2          8           0       -1.788495   -0.129120    0.016400
      3          6           0        0.555276   -0.433447   -0.003158
      4          6           0        1.755270    0.136810    0.009689
      5          1           0        0.458409   -1.511228   -0.015297
      6          1           0        1.824698    1.222232    0.050950
      7          1           0        2.725152   -0.440770   -0.022774
      8          1           0       -0.533924    1.443486   -0.027925
 ---------------------------------------------------------------------

 SCF Done:  E(RB2PLYPD3) =  -191.614747392     A.U. after   13 cycles
 E2(B2PLYPD3) =    -0.2475150765D+00 E(B2PLYPD3) =    -0.19186226246845D+03

 The electronic state is 1-A.
 Alpha  occ. eigenvalues --  -19.72799 -10.71562 -10.66017 -10.64266  -1.19229
 Alpha  occ. eigenvalues --   -0.93183  -0.75367  -0.67003  -0.56628  -0.56105
 Alpha  occ. eigenvalues --   -0.50405  -0.46722  -0.46390  -0.34764  -0.33953
 Alpha virt. eigenvalues --   -0.01927   0.05621   0.07076   0.08300   0.09722
 Alpha virt. eigenvalues --    0.12386   0.13994   0.15360   0.17586   0.19679
 Alpha virt. eigenvalues --    0.19940   0.21286   0.25597   0.26322   0.28977

 Mulliken charges:
               1
     1  C    0.153469
     2  O   -0.351051
     3  C   -0.033746
     4  C   -0.128861
     5  H    0.104463
     6  H    0.082211
     7  H    0.102141
     8  H    0.071376
 Sum of Mulliken charges =   0.00000

 Dipole moment (field-independent basis, Debye):
    X=              3.5274    Y=              0.7837    Z=             -0.0666  Tot=              3.6141
 Quadrupole moment (field-independent basis, Debye-Ang):
   XX=            -27.3734   YY=            -21.8245   ZZ=            -25.2385
   XY=             -1.0843   XZ=              0.0847   YZ=              0.0870

 Normal termination of Gaussian 09 at Wed Aug 26 16:19:34 2020.
