 Gaussian 09, Revision D.01,
 Gaussian 09:  ES64L-G09RevD.01 24-Apr-2013

 --------------------
 #p B2PLYPD3/Def2QZVP
 --------------------

 --------
 acrolein
 --------
 Symbolic Z-matrix:
 Charge =  0 Multiplicity = 1

                         Standard orientation:
 ---------------------------------------------------------------------
 Center     Atomic      Atomic             Coordinates (Angstroms)
 Number     Number       Type             X           Y           Z
 ---------------------------------------------------------------------
      1          6           0        0.682979    0.354434   -0.038761
      2          8           0        1.782481   -0.124741    0.029486
      3          6           0       -0.557501   -0.444504   -0.041388
      4          6           0       -1.769006    0.152483    0.012356
      5          1           0       -0.416489   -1.536431    0.018000
      6          1           0       -1.783099    1.154349   -0.004534
      7          1           0       -2.700740   -0.428409    0.108815
      8          1           0        0.501649    1.433942    0.048588
 ---------------------------------------------------------------------

 SCF Done:  E(RB2PLYPD3) =  -191.609791272     A.U. after   12 cycles
 E2(B2PLYPD3) =    -0.2470211227D+00 E(B2PLYPD3) =    -0.19185681239494D+03

 The electronic state is 1-A.
 Alpha  occ. eigenvalues --  -19.72922 -10.71481 -10.65038 -10.64661  -1.20175
 Alpha  occ. eigenvalues --   -0.92706  -0.75649  -0.67235  -0.57018  -0.56196
 Alpha  occ. eigenvalues --   -0.50663  -0.47382  -0.47011  -0.34376  -0.33825
 Alpha virt. eigenvalues --   -0.01823   0.05868   0.07163   0.08087   0.09860
 Alpha virt. eigenvalues --    0.12674   0.13901   0.15377   0.17395   0.19814
 Alpha virt. eigenvalues --    0.20270   0.21701   0.25062   0.26724   0.28868

 Mulliken charges:
               1
     1  C    0.154314
     2  O   -0.343085
     3  C   -0.034858
     4  C   -0.144403
     5  H    0.102656
     6  H    0.090918
     7  H    0.106741
     8  H    0.067718
 Sum of Mulliken charges =   0.00000

 Dipole moment (field-independent basis, Debye):
    X=             -3.3818    Y=              0.7863    Z=              0.0174  Tot=              3.4721
 Quadrupole moment (field-independent basis, Debye-Ang):
   XX=            -27.3390   YY=            -21.8219   ZZ=            -25.2044
   XY=              0.9658   XZ=             -0.4210   YZ=             -0.0981

 Normal termination of Gaussian 09 at Wed Aug 26 09:19:37 2020.
