 Gaussian 09, Revision D.01,
 Gaussian 09:  ES64L-G09RevD.01 24-Apr-2013

 --------------------
 #p B2PLYPD3/Def2QZVP
 --------------------

 --------
 acrolein
 --------
 Symbolic Z-matrix:
 Charge =  0 Multiplicity = 1

                         Standard orientation:
 ---------------------------------------------------------------------
 Center     Atomic      Atomic             Coordinates (Angstroms)
 Number     Number       Type             X           Y           Z
 ---------------------------------------------------------------------
      1          6           0       -0.647862    0.307149    0.072193
      2          8           0       -1.791205   -0.078755   -0.075333
      3          6           0        0.531071   -0.470578    0.117582
      4          6           0        1.774895    0.155767   -0.066495
      5          1           0        0.365118   -1.601321   -0.039151
      6          1           0        1.885343    1.290515   -0.007317
      7          1           0        2.642645   -0.455506   -0.153319
      8          1           0       -0.512088    1.442324    0.062774
 ---------------------------------------------------------------------

 SCF Done:  E(RB2PLYPD3) =  -191.597105976     A.U. after   13 cycles
 E2(B2PLYPD3) =    -0.2503921331D+00 E(B2PLYPD3) =    -0.19184749810884D+03

 The electronic state is 1-A.
 Alpha  occ. eigenvalues --  -19.72277 -10.71162 -10.67926 -10.66134  -1.18881
 Alpha  occ. eigenvalues --   -0.92416  -0.76382  -0.65334  -0.56205  -0.55626
 Alpha  occ. eigenvalues --   -0.49625  -0.46932  -0.46584  -0.33999  -0.33294
 Alpha virt. eigenvalues --   -0.03290   0.05513   0.06598   0.08239   0.09690
 Alpha virt. eigenvalues --    0.12244   0.13498   0.15214   0.17299   0.19443
 Alpha virt. eigenvalues --    0.19892   0.21435   0.23785   0.26717   0.28729

 Mulliken charges:
               1
     1  C    0.156584
     2  O   -0.355001
     3  C   -0.034836
     4  C   -0.122083
     5  H    0.103518
     6  H    0.099201
     7  H    0.110799
     8  H    0.041819
 Sum of Mulliken charges =   0.00000

 Dipole moment (field-independent basis, Debye):
    X=              3.8354    Y=              0.5580    Z=              0.0678  Tot=              3.8764
 Quadrupole moment (field-independent basis, Debye-Ang):
   XX=            -27.3489   YY=            -21.7863   ZZ=            -25.5189
   XY=             -0.5034   XZ=             -0.8213   YZ=              0.2087

 Normal termination of Gaussian 09 at Wed Aug 26 10:50:11 2020.
