 Gaussian 09, Revision D.01,
 Gaussian 09:  ES64L-G09RevD.01 24-Apr-2013

 --------------------
 #p B2PLYPD3/Def2QZVP
 --------------------

 --------
 acrolein
 --------
 Symbolic Z-matrix:
 Charge =  0 Multiplicity = 1

                         Standard orientation:
 ---------------------------------------------------------------------
 Center     Atomic      Atomic             Coordinates (Angstroms)
 Number     Number       Type             X           Y           Z
 ---------------------------------------------------------------------
      1          6           0       -0.671568    0.373402   -0.032390
      2          8           0       -1.780841   -0.140346    0.022205
      3          6           0        0.560201   -0.437141   -0.029976
      4          6           0        1.767686    0.131200    0.003338
      5          1           0        0.403934   -1.528500    0.023049
      6          1           0        1.799900    1.196638    0.016786
      7          1           0        2.655261   -0.429189    0.089497
      8          1           0       -0.550275    1.479047    0.047195
 ---------------------------------------------------------------------

 SCF Done:  E(RB2PLYPD3) =  -191.613846808     A.U. after   13 cycles
 E2(B2PLYPD3) =    -0.2478454364D+00 E(B2PLYPD3) =    -0.19186169224462D+03

 The electronic state is 1-A.
 Alpha  occ. eigenvalues --  -19.72879 -10.71930 -10.64966 -10.64626  -1.18847
 Alpha  occ. eigenvalues --   -0.92908  -0.75584  -0.66769  -0.56868  -0.56284
 Alpha  occ. eigenvalues --   -0.50542  -0.46827  -0.46314  -0.34552  -0.33954
 Alpha virt. eigenvalues --   -0.01899   0.05813   0.07075   0.07936   0.09850
 Alpha virt. eigenvalues --    0.12464   0.13954   0.15366   0.17271   0.19739
 Alpha virt. eigenvalues --    0.19997   0.21853   0.25285   0.26545   0.29129

 Mulliken charges:
               1
     1  C    0.158012
     2  O   -0.354285
     3  C   -0.042361
     4  C   -0.132463
     5  H    0.105721
     6  H    0.082850
     7  H    0.107586
     8  H    0.074941
 Sum of Mulliken charges =   0.00000

 Dipole moment (field-independent basis, Debye):
    X=              3.4459    Y=              0.8501    Z=              0.0486  Tot=              3.5495
 Quadrupole moment (field-independent basis, Debye-Ang):
   XX=            -27.5164   YY=            -21.6675   ZZ=            -25.2441
   XY=             -1.1514   XZ=              0.3666   YZ=             -0.0556

 Normal termination of Gaussian 09 at Wed Aug 26 08:45:04 2020.
