 Gaussian 09, Revision D.01,
 Gaussian 09:  ES64L-G09RevD.01 24-Apr-2013

 --------------------
 #p B2PLYPD3/Def2QZVP
 --------------------

 --------
 acrolein
 --------
 Symbolic Z-matrix:
 Charge =  0 Multiplicity = 1

                         Standard orientation:
 ---------------------------------------------------------------------
 Center     Atomic      Atomic             Coordinates (Angstroms)
 Number     Number       Type             X           Y           Z
 ---------------------------------------------------------------------
      1          6           0       -0.657608   -0.319314    0.012118
      2          8           0       -1.799915    0.089688   -0.022153
      3          6           0        0.580791    0.459510   -0.023822
      4          6           0        1.781226   -0.161409    0.002515
      5          1           0        0.366080    1.644728    0.173135
      6          1           0        1.776785   -1.232778   -0.036333
      7          1           0        2.583375    0.379056   -0.051326
      8          1           0       -0.553374   -1.381233    0.146875
 ---------------------------------------------------------------------

 SCF Done:  E(RB2PLYPD3) =  -191.590222365     A.U. after   13 cycles
 E2(B2PLYPD3) =    -0.2480595437D+00 E(B2PLYPD3) =    -0.19183828190894D+03

 The electronic state is 1-A.
 Alpha  occ. eigenvalues --  -19.72613 -10.71041 -10.66130 -10.64904  -1.19190
 Alpha  occ. eigenvalues --   -0.93177  -0.76850  -0.66051  -0.57808  -0.56342
 Alpha  occ. eigenvalues --   -0.50789  -0.47165  -0.45499  -0.34742  -0.33506
 Alpha virt. eigenvalues --   -0.02277   0.05952   0.06527   0.08152   0.09622
 Alpha virt. eigenvalues --    0.12726   0.13676   0.15197   0.17047   0.19613
 Alpha virt. eigenvalues --    0.20150   0.22130   0.24568   0.26825   0.29034

 Mulliken charges:
               1
     1  C    0.155790
     2  O   -0.350213
     3  C   -0.036529
     4  C   -0.131027
     5  H    0.091762
     6  H    0.092552
     7  H    0.116193
     8  H    0.061473
 Sum of Mulliken charges =   0.00000

 Dipole moment (field-independent basis, Debye):
    X=              3.5739    Y=             -0.7104    Z=              0.1883  Tot=              3.6487
 Quadrupole moment (field-independent basis, Debye-Ang):
   XX=            -27.6197   YY=            -21.7683   ZZ=            -25.2143
   XY=              0.6996   XZ=             -0.2347   YZ=              0.2518

 Normal termination of Gaussian 09 at Wed Aug 26 11:07:25 2020.
