 Gaussian 09, Revision D.01,
 Gaussian 09:  ES64L-G09RevD.01 24-Apr-2013

 --------------------
 #p B2PLYPD3/Def2QZVP
 --------------------

 --------
 acrolein
 --------
 Symbolic Z-matrix:
 Charge =  0 Multiplicity = 1

                         Standard orientation:
 ---------------------------------------------------------------------
 Center     Atomic      Atomic             Coordinates (Angstroms)
 Number     Number       Type             X           Y           Z
 ---------------------------------------------------------------------
      1          6           0       -0.679401    0.348455    0.070349
      2          8           0       -1.753660   -0.147090   -0.036999
      3          6           0        0.511700   -0.396286   -0.000321
      4          6           0        1.749648    0.133902   -0.046185
      5          1           0        0.431657   -1.492944    0.014275
      6          1           0        1.798394    1.167079   -0.143642
      7          1           0        2.870785   -0.504106    0.193562
      8          1           0       -0.563240    1.490267    0.088745
 ---------------------------------------------------------------------

 SCF Done:  E(RB2PLYPD3) =  -191.580071134     A.U. after   13 cycles
 E2(B2PLYPD3) =    -0.2483402148D+00 E(B2PLYPD3) =    -0.19182841134904D+03

 The electronic state is 1-A.
 Alpha  occ. eigenvalues --  -19.72710 -10.71269 -10.67426 -10.64184  -1.21133
 Alpha  occ. eigenvalues --   -0.93134  -0.75273  -0.66486  -0.57322  -0.55137
 Alpha  occ. eigenvalues --   -0.49330  -0.47893  -0.45369  -0.34526  -0.33672
 Alpha virt. eigenvalues --   -0.02482   0.04748   0.06773   0.08752   0.09756
 Alpha virt. eigenvalues --    0.11732   0.13970   0.15443   0.17421   0.19263
 Alpha virt. eigenvalues --    0.19952   0.20643   0.25473   0.26169   0.28250

 Mulliken charges:
               1
     1  C    0.148862
     2  O   -0.332833
     3  C   -0.023773
     4  C   -0.136242
     5  H    0.103934
     6  H    0.089394
     7  H    0.099254
     8  H    0.051403
 Sum of Mulliken charges =   0.00000

 Dipole moment (field-independent basis, Debye):
    X=              3.3576    Y=              0.7749    Z=              0.2392  Tot=              3.4541
 Quadrupole moment (field-independent basis, Debye-Ang):
   XX=            -26.9495   YY=            -22.1832   ZZ=            -25.2826
   XY=             -1.2154   XZ=              0.1361   YZ=             -0.2975

 Normal termination of Gaussian 09 at Wed Aug 26 13:24:34 2020.
