 Gaussian 09, Revision D.01,
 Gaussian 09:  ES64L-G09RevD.01 24-Apr-2013

 --------------------
 #p B2PLYPD3/Def2QZVP
 --------------------

 --------
 acrolein
 --------
 Symbolic Z-matrix:
 Charge =  0 Multiplicity = 1

                         Standard orientation:
 ---------------------------------------------------------------------
 Center     Atomic      Atomic             Coordinates (Angstroms)
 Number     Number       Type             X           Y           Z
 ---------------------------------------------------------------------
      1          6           0       -0.656926    0.329486   -0.023024
      2          8           0       -1.794328   -0.112405    0.032520
      3          6           0        0.582534   -0.437050   -0.062733
      4          6           0        1.742087    0.155074    0.013625
      5          1           0        0.433676   -1.525577    0.036329
      6          1           0        1.762115    1.189141    0.052960
      7          1           0        2.636409   -0.442964    0.123122
      8          1           0       -0.483744    1.393579   -0.039781
 ---------------------------------------------------------------------

 SCF Done:  E(RB2PLYPD3) =  -191.611485336     A.U. after   12 cycles
 E2(B2PLYPD3) =    -0.2469199266D+00 E(B2PLYPD3) =    -0.19185840526255D+03

 The electronic state is 1-A.
 Alpha  occ. eigenvalues --  -19.72833 -10.71248 -10.64759 -10.64058  -1.18798
 Alpha  occ. eigenvalues --   -0.94315  -0.76139  -0.67315  -0.57192  -0.56521
 Alpha  occ. eigenvalues --   -0.50630  -0.46998  -0.46478  -0.35307  -0.33834
 Alpha virt. eigenvalues --   -0.01779   0.05848   0.07044   0.08342   0.09860
 Alpha virt. eigenvalues --    0.12872   0.13664   0.15215   0.17448   0.19799
 Alpha virt. eigenvalues --    0.20109   0.21856   0.25322   0.26734   0.28728

 Mulliken charges:
               1
     1  C    0.153376
     2  O   -0.357731
     3  C   -0.020651
     4  C   -0.129883
     5  H    0.096502
     6  H    0.088579
     7  H    0.106065
     8  H    0.063743
 Sum of Mulliken charges =   0.00000

 Dipole moment (field-independent basis, Debye):
    X=              3.5873    Y=              0.7275    Z=              0.0728  Tot=              3.6610
 Quadrupole moment (field-independent basis, Debye-Ang):
   XX=            -27.6710   YY=            -21.8340   ZZ=            -25.0134
   XY=             -0.9088   XZ=              0.5717   YZ=             -0.1086

 Normal termination of Gaussian 09 at Wed Aug 26 08:51:31 2020.
