 Gaussian 09, Revision D.01,
 Gaussian 09:  ES64L-G09RevD.01 24-Apr-2013

 --------------------
 #p B2PLYPD3/Def2QZVP
 --------------------

 --------
 acrolein
 --------
 Symbolic Z-matrix:
 Charge =  0 Multiplicity = 1

                         Standard orientation:
 ---------------------------------------------------------------------
 Center     Atomic      Atomic             Coordinates (Angstroms)
 Number     Number       Type             X           Y           Z
 ---------------------------------------------------------------------
      1          6           0       -0.672341    0.335804    0.015608
      2          8           0       -1.794108   -0.109259   -0.033326
      3          6           0        0.559195   -0.457626    0.047982
      4          6           0        1.753868    0.157315   -0.046564
      5          1           0        0.484267   -1.517840    0.069165
      6          1           0        1.848258    1.244472    0.043538
      7          1           0        2.712554   -0.430047   -0.053107
      8          1           0       -0.536538    1.364536    0.104858
 ---------------------------------------------------------------------

 SCF Done:  E(RB2PLYPD3) =  -191.611478262     A.U. after   13 cycles
 E2(B2PLYPD3) =    -0.2470137577D+00 E(B2PLYPD3) =    -0.19185849201972D+03

 The electronic state is 1-A.
 Alpha  occ. eigenvalues --  -19.72545 -10.70756 -10.66280 -10.64426  -1.19534
 Alpha  occ. eigenvalues --   -0.92823  -0.75439  -0.67969  -0.56937  -0.55920
 Alpha  occ. eigenvalues --   -0.50447  -0.47200  -0.46502  -0.34494  -0.33822
 Alpha virt. eigenvalues --   -0.01909   0.05628   0.07189   0.08227   0.09621
 Alpha virt. eigenvalues --    0.12565   0.14114   0.15324   0.17828   0.19643
 Alpha virt. eigenvalues --    0.19994   0.21273   0.25035   0.26517   0.28570

 Mulliken charges:
               1
     1  C    0.153865
     2  O   -0.350467
     3  C   -0.041156
     4  C   -0.129131
     5  H    0.107012
     6  H    0.085739
     7  H    0.095748
     8  H    0.078391
 Sum of Mulliken charges =   0.00000

 Dipole moment (field-independent basis, Debye):
    X=              3.5292    Y=              0.7593    Z=              0.1845  Tot=              3.6147
 Quadrupole moment (field-independent basis, Debye-Ang):
   XX=            -27.5239   YY=            -21.6770   ZZ=            -25.2058
   XY=             -0.9293   XZ=             -0.2017   YZ=              0.0530

 Normal termination of Gaussian 09 at Wed Aug 26 09:02:41 2020.
