 Gaussian 09, Revision D.01,
 Gaussian 09:  ES64L-G09RevD.01 24-Apr-2013

 --------------------
 #p B2PLYPD3/Def2QZVP
 --------------------

 --------
 acrolein
 --------
 Symbolic Z-matrix:
 Charge =  0 Multiplicity = 1

                         Standard orientation:
 ---------------------------------------------------------------------
 Center     Atomic      Atomic             Coordinates (Angstroms)
 Number     Number       Type             X           Y           Z
 ---------------------------------------------------------------------
      1          6           0       -0.680607    0.373947   -0.044599
      2          8           0       -1.773241   -0.142854    0.034694
      3          6           0        0.558263   -0.449385   -0.006792
      4          6           0        1.744593    0.138565    0.005497
      5          1           0        0.480104   -1.462487   -0.066439
      6          1           0        1.791861    1.187996    0.114112
      7          1           0        2.708888   -0.408493    0.023575
      8          1           0       -0.528424    1.447052   -0.073439
 ---------------------------------------------------------------------

 SCF Done:  E(RB2PLYPD3) =  -191.611711728     A.U. after   12 cycles
 E2(B2PLYPD3) =    -0.2465256537D+00 E(B2PLYPD3) =    -0.19185823738183D+03

 The electronic state is 1-A.
 Alpha  occ. eigenvalues --  -19.72879 -10.71650 -10.64883 -10.63448  -1.19596
 Alpha  occ. eigenvalues --   -0.93059  -0.74959  -0.68319  -0.56999  -0.56212
 Alpha  occ. eigenvalues --   -0.50795  -0.47140  -0.46731  -0.34627  -0.33946
 Alpha virt. eigenvalues --   -0.01379   0.05789   0.07464   0.07796   0.09780
 Alpha virt. eigenvalues --    0.12568   0.14074   0.15316   0.17955   0.19710
 Alpha virt. eigenvalues --    0.20133   0.21337   0.25329   0.26490   0.28968

 Mulliken charges:
               1
     1  C    0.151488
     2  O   -0.346588
     3  C   -0.048046
     4  C   -0.129344
     5  H    0.112691
     6  H    0.078297
     7  H    0.094601
     8  H    0.086901
 Sum of Mulliken charges =   0.00000

 Dipole moment (field-independent basis, Debye):
    X=              3.3289    Y=              0.8833    Z=             -0.1015  Tot=              3.4455
 Quadrupole moment (field-independent basis, Debye-Ang):
   XX=            -27.4507   YY=            -21.6655   ZZ=            -25.1023
   XY=             -1.1835   XZ=              0.3566   YZ=              0.1802

 Normal termination of Gaussian 09 at Wed Aug 26 21:16:51 2020.
