 Gaussian 09, Revision D.01,
 Gaussian 09:  ES64L-G09RevD.01 24-Apr-2013

 --------------------
 #p B2PLYPD3/Def2QZVP
 --------------------

 --------
 acrolein
 --------
 Symbolic Z-matrix:
 Charge =  0 Multiplicity = 1

                         Standard orientation:
 ---------------------------------------------------------------------
 Center     Atomic      Atomic             Coordinates (Angstroms)
 Number     Number       Type             X           Y           Z
 ---------------------------------------------------------------------
      1          6           0       -0.692142    0.404500    0.039824
      2          8           0       -1.744772   -0.162776   -0.041039
      3          6           0        0.539387   -0.408526    0.032035
      4          6           0        1.761506    0.111920   -0.043242
      5          1           0        0.435394   -1.595232    0.010353
      6          1           0        1.799656    1.144693   -0.221238
      7          1           0        2.620361   -0.381947    0.170839
      8          1           0       -0.549742    1.487331    0.196649
 ---------------------------------------------------------------------

 SCF Done:  E(RB2PLYPD3) =  -191.598698221     A.U. after   14 cycles
 E2(B2PLYPD3) =    -0.2469669827D+00 E(B2PLYPD3) =    -0.19184566520347D+03

 The electronic state is 1-A.
 Alpha  occ. eigenvalues --  -19.72982 -10.71779 -10.64821 -10.63722  -1.20575
 Alpha  occ. eigenvalues --   -0.92536  -0.75767  -0.66276  -0.57093  -0.56735
 Alpha  occ. eigenvalues --   -0.51618  -0.47176  -0.45093  -0.34532  -0.33600
 Alpha virt. eigenvalues --   -0.01677   0.05975   0.06874   0.07941   0.09891
 Alpha virt. eigenvalues --    0.12431   0.14139   0.15766   0.16703   0.19084
 Alpha virt. eigenvalues --    0.20032   0.22446   0.25503   0.26530   0.29092

 Mulliken charges:
               1
     1  C    0.153943
     2  O   -0.332412
     3  C   -0.052326
     4  C   -0.127492
     5  H    0.094447
     6  H    0.069435
     7  H    0.108094
     8  H    0.086310
 Sum of Mulliken charges =   0.00000

 Dipole moment (field-independent basis, Debye):
    X=              3.1515    Y=              1.0074    Z=              0.1734  Tot=              3.3132
 Quadrupole moment (field-independent basis, Debye-Ang):
   XX=            -27.2488   YY=            -21.7362   ZZ=            -25.1145
   XY=             -1.3060   XZ=             -0.0945   YZ=             -0.2034

 Normal termination of Gaussian 09 at Wed Aug 26 14:42:30 2020.
