 Gaussian 09, Revision D.01,
 Gaussian 09:  ES64L-G09RevD.01 24-Apr-2013

 --------------------
 #p B2PLYPD3/Def2QZVP
 --------------------

 --------
 acrolein
 --------
 Symbolic Z-matrix:
 Charge =  0 Multiplicity = 1

                         Standard orientation:
 ---------------------------------------------------------------------
 Center     Atomic      Atomic             Coordinates (Angstroms)
 Number     Number       Type             X           Y           Z
 ---------------------------------------------------------------------
      1          6           0        0.680548    0.354845   -0.016104
      2          8           0        1.776712   -0.129563    0.011026
      3          6           0       -0.556657   -0.443334   -0.008647
      4          6           0       -1.744086    0.139140   -0.002601
      5          1           0       -0.480849   -1.483851   -0.001090
      6          1           0       -1.841902    1.219366    0.018881
      7          1           0       -2.692250   -0.429104    0.044537
      8          1           0        0.522477    1.426189    0.013571
 ---------------------------------------------------------------------

 SCF Done:  E(RB2PLYPD3) =  -191.615967643     A.U. after   12 cycles
 E2(B2PLYPD3) =    -0.2459950916D+00 E(B2PLYPD3) =    -0.19186196273502D+03

 The electronic state is 1-A.
 Alpha  occ. eigenvalues --  -19.72773 -10.71237 -10.65317 -10.63625  -1.20267
 Alpha  occ. eigenvalues --   -0.93115  -0.75152  -0.67729  -0.56937  -0.56335
 Alpha  occ. eigenvalues --   -0.50855  -0.47184  -0.46769  -0.34783  -0.33870
 Alpha virt. eigenvalues --   -0.01359   0.05750   0.07369   0.08295   0.09718
 Alpha virt. eigenvalues --    0.12578   0.14109   0.15408   0.17888   0.19744
 Alpha virt. eigenvalues --    0.19921   0.21404   0.25720   0.26450   0.28695

 Mulliken charges:
               1
     1  C    0.152399
     2  O   -0.342272
     3  C   -0.042340
     4  C   -0.129938
     5  H    0.108298
     6  H    0.080158
     7  H    0.096528
     8  H    0.077166
 Sum of Mulliken charges =   0.00000

 Dipole moment (field-independent basis, Debye):
    X=             -3.3712    Y=              0.7980    Z=              0.0150  Tot=              3.4644
 Quadrupole moment (field-independent basis, Debye-Ang):
   XX=            -27.3388   YY=            -21.7549   ZZ=            -25.1072
   XY=              1.0317   XZ=             -0.1915   YZ=              0.0034

 Normal termination of Gaussian 09 at Wed Aug 26 15:47:28 2020.
