 Gaussian 09, Revision D.01,
 Gaussian 09:  ES64L-G09RevD.01 24-Apr-2013

 --------------------
 #p B2PLYPD3/Def2QZVP
 --------------------

 --------
 acrolein
 --------
 Symbolic Z-matrix:
 Charge =  0 Multiplicity = 1

                         Standard orientation:
 ---------------------------------------------------------------------
 Center     Atomic      Atomic             Coordinates (Angstroms)
 Number     Number       Type             X           Y           Z
 ---------------------------------------------------------------------
      1          6           0        0.658985    0.358548    0.056044
      2          8           0        1.792513   -0.132394   -0.063753
      3          6           0       -0.547661   -0.403958    0.037483
      4          6           0       -1.751716    0.114814   -0.023133
      5          1           0       -0.458925   -1.493618    0.083937
      6          1           0       -1.767493    1.218061   -0.263861
      7          1           0       -2.764927   -0.421794   -0.003907
      8          1           0        0.493594    1.340079    0.271488
 ---------------------------------------------------------------------

 SCF Done:  E(RB2PLYPD3) =  -191.598567519     A.U. after   14 cycles
 E2(B2PLYPD3) =    -0.2486524721D+00 E(B2PLYPD3) =    -0.19184721999099D+03

 The electronic state is 1-A.
 Alpha  occ. eigenvalues --  -19.72878 -10.70964 -10.66486 -10.63923  -1.17816
 Alpha  occ. eigenvalues --   -0.94041  -0.76633  -0.67609  -0.56734  -0.56161
 Alpha  occ. eigenvalues --   -0.50815  -0.45952  -0.45010  -0.34846  -0.34402
 Alpha virt. eigenvalues --   -0.02528   0.05410   0.07128   0.07967   0.09627
 Alpha virt. eigenvalues --    0.12489   0.14181   0.15341   0.17563   0.18330
 Alpha virt. eigenvalues --    0.20413   0.21060   0.24945   0.27084   0.29132

 Mulliken charges:
               1
     1  C    0.152290
     2  O   -0.365322
     3  C   -0.030051
     4  C   -0.120606
     5  H    0.100783
     6  H    0.066244
     7  H    0.106744
     8  H    0.089917
 Sum of Mulliken charges =   0.00000

 Dipole moment (field-independent basis, Debye):
    X=             -3.6660    Y=              0.8370    Z=              0.1808  Tot=              3.7647
 Quadrupole moment (field-independent basis, Debye-Ang):
   XX=            -27.4102   YY=            -22.0332   ZZ=            -25.0807
   XY=              1.2885   XZ=              0.6599   YZ=             -0.2638

 Normal termination of Gaussian 09 at Wed Aug 26 11:03:57 2020.
