 Gaussian 09, Revision D.01,
 Gaussian 09:  ES64L-G09RevD.01 24-Apr-2013

 --------------------
 #p B2PLYPD3/Def2QZVP
 --------------------

 --------
 acrolein
 --------
 Symbolic Z-matrix:
 Charge =  0 Multiplicity = 1

                         Standard orientation:
 ---------------------------------------------------------------------
 Center     Atomic      Atomic             Coordinates (Angstroms)
 Number     Number       Type             X           Y           Z
 ---------------------------------------------------------------------
      1          6           0        0.662131    0.383767    0.068313
      2          8           0        1.765158   -0.155084   -0.073716
      3          6           0       -0.558205   -0.412449    0.087183
      4          6           0       -1.733254    0.134672   -0.063640
      5          1           0       -0.346867   -1.537369    0.041078
      6          1           0       -1.687101    1.163450   -0.148660
      7          1           0       -2.871690   -0.456195   -0.023683
      8          1           0        0.560365    1.434851    0.169861
 ---------------------------------------------------------------------

 SCF Done:  E(RB2PLYPD3) =  -191.584127449     A.U. after   13 cycles
 E2(B2PLYPD3) =    -0.2491737460D+00 E(B2PLYPD3) =    -0.19183330119465D+03

 The electronic state is 1-A.
 Alpha  occ. eigenvalues --  -19.72880 -10.71561 -10.66365 -10.64463  -1.18237
 Alpha  occ. eigenvalues --   -0.93793  -0.75099  -0.67317  -0.56993  -0.54637
 Alpha  occ. eigenvalues --   -0.49862  -0.46182  -0.44798  -0.35088  -0.34143
 Alpha virt. eigenvalues --   -0.01910   0.05038   0.06706   0.07873   0.09806
 Alpha virt. eigenvalues --    0.11926   0.13536   0.15312   0.17277   0.19079
 Alpha virt. eigenvalues --    0.20258   0.20560   0.25373   0.26574   0.28671

 Mulliken charges:
               1
     1  C    0.155598
     2  O   -0.364853
     3  C   -0.039253
     4  C   -0.123359
     5  H    0.104786
     6  H    0.080362
     7  H    0.101414
     8  H    0.085305
 Sum of Mulliken charges =   0.00000

 Dipole moment (field-independent basis, Debye):
    X=             -3.3963    Y=              0.9959    Z=              0.2029  Tot=              3.5452
 Quadrupole moment (field-independent basis, Debye-Ang):
   XX=            -27.4998   YY=            -21.8160   ZZ=            -25.3155
   XY=              1.3235   XZ=              0.5979   YZ=             -0.0695

 Normal termination of Gaussian 09 at Wed Aug 26 11:24:35 2020.
