 Gaussian 09, Revision D.01,
 Gaussian 09:  ES64L-G09RevD.01 24-Apr-2013

 --------------------
 #p B2PLYPD3/Def2QZVP
 --------------------

 --------
 acrolein
 --------
 Symbolic Z-matrix:
 Charge =  0 Multiplicity = 1

                         Standard orientation:
 ---------------------------------------------------------------------
 Center     Atomic      Atomic             Coordinates (Angstroms)
 Number     Number       Type             X           Y           Z
 ---------------------------------------------------------------------
      1          6           0       -0.644354    0.298793    0.078287
      2          8           0       -1.785904   -0.072300   -0.056106
      3          6           0        0.546978   -0.470641    0.055863
      4          6           0        1.761518    0.170400   -0.057253
      5          1           0        0.376735   -1.567255    0.031280
      6          1           0        1.852133    1.312518    0.065679
      7          1           0        2.660941   -0.455674   -0.084627
      8          1           0       -0.587429    1.297492   -0.024864
 ---------------------------------------------------------------------

 SCF Done:  E(RB2PLYPD3) =  -191.593327142     A.U. after   14 cycles
 E2(B2PLYPD3) =    -0.2481993994D+00 E(B2PLYPD3) =    -0.19184152654109D+03

 The electronic state is 1-A.
 Alpha  occ. eigenvalues --  -19.71854 -10.69336 -10.67614 -10.65319  -1.19286
 Alpha  occ. eigenvalues --   -0.92806  -0.76088  -0.67791  -0.56607  -0.55916
 Alpha  occ. eigenvalues --   -0.49612  -0.47296  -0.46674  -0.34196  -0.33247
 Alpha virt. eigenvalues --   -0.02716   0.05464   0.07028   0.08351   0.09727
 Alpha virt. eigenvalues --    0.12474   0.13751   0.15173   0.17647   0.19342
 Alpha virt. eigenvalues --    0.20026   0.21487   0.24318   0.26933   0.29153

 Mulliken charges:
               1
     1  C    0.161851
     2  O   -0.358639
     3  C   -0.035234
     4  C   -0.131793
     5  H    0.102919
     6  H    0.098437
     7  H    0.105969
     8  H    0.056489
 Sum of Mulliken charges =   0.00000

 Dipole moment (field-independent basis, Debye):
    X=              3.7128    Y=              0.6186    Z=              0.2128  Tot=              3.7700
 Quadrupole moment (field-independent basis, Debye-Ang):
   XX=            -27.6063   YY=            -21.5638   ZZ=            -25.2705
   XY=             -0.6699   XZ=             -0.3453   YZ=              0.0961

 Normal termination of Gaussian 09 at Wed Aug 26 11:45:07 2020.
