 Gaussian 09, Revision D.01,
 Gaussian 09:  ES64L-G09RevD.01 24-Apr-2013

 --------------------
 #p B2PLYPD3/Def2QZVP
 --------------------

 --------
 acrolein
 --------
 Symbolic Z-matrix:
 Charge =  0 Multiplicity = 1

                         Standard orientation:
 ---------------------------------------------------------------------
 Center     Atomic      Atomic             Coordinates (Angstroms)
 Number     Number       Type             X           Y           Z
 ---------------------------------------------------------------------
      1          6           0       -0.697552    0.337629    0.036494
      2          8           0       -1.789760   -0.105419   -0.042902
      3          6           0        0.569217   -0.459820    0.087928
      4          6           0        1.757951    0.157848   -0.060645
      5          1           0        0.545603   -1.537917   -0.054511
      6          1           0        1.913540    1.292704    0.031231
      7          1           0        2.635678   -0.420188   -0.050518
      8          1           0       -0.554433    1.294814    0.034352
 ---------------------------------------------------------------------

 SCF Done:  E(RB2PLYPD3) =  -191.595555201     A.U. after   12 cycles
 E2(B2PLYPD3) =    -0.2456092479D+00 E(B2PLYPD3) =    -0.19184116444916D+03

 The electronic state is 1-A.
 Alpha  occ. eigenvalues --  -19.72559 -10.69958 -10.65670 -10.64481  -1.21196
 Alpha  occ. eigenvalues --   -0.92265  -0.75977  -0.68286  -0.57032  -0.56269
 Alpha  occ. eigenvalues --   -0.50943  -0.47485  -0.46374  -0.34572  -0.33716
 Alpha virt. eigenvalues --   -0.01381   0.05776   0.07402   0.08025   0.09560
 Alpha virt. eigenvalues --    0.12713   0.14003   0.15501   0.18129   0.19429
 Alpha virt. eigenvalues --    0.19816   0.21702   0.24337   0.27126   0.27980

 Mulliken charges:
               1
     1  C    0.165145
     2  O   -0.334411
     3  C   -0.061576
     4  C   -0.125347
     5  H    0.099637
     6  H    0.074862
     7  H    0.097768
     8  H    0.083922
 Sum of Mulliken charges =   0.00000

 Dipole moment (field-independent basis, Debye):
    X=              3.3116    Y=              0.8108    Z=              0.0797  Tot=              3.4103
 Quadrupole moment (field-independent basis, Debye-Ang):
   XX=            -27.4106   YY=            -21.6087   ZZ=            -25.1228
   XY=             -0.9750   XZ=             -0.3385   YZ=              0.2260

 Normal termination of Gaussian 09 at Wed Aug 26 11:10:12 2020.
