 Gaussian 09, Revision D.01,
 Gaussian 09:  ES64L-G09RevD.01 24-Apr-2013

 --------------------
 #p B2PLYPD3/Def2QZVP
 --------------------

 --------
 acrolein
 --------
 Symbolic Z-matrix:
 Charge =  0 Multiplicity = 1

                         Standard orientation:
 ---------------------------------------------------------------------
 Center     Atomic      Atomic             Coordinates (Angstroms)
 Number     Number       Type             X           Y           Z
 ---------------------------------------------------------------------
      1          6           0       -0.672398    0.360207   -0.004727
      2          8           0       -1.784310   -0.131199    0.014504
      3          6           0        0.554103   -0.439819   -0.032164
      4          6           0        1.750802    0.134011    0.003563
      5          1           0        0.448440   -1.531183    0.007000
      6          1           0        1.826123    1.208546    0.010397
      7          1           0        2.679555   -0.440352    0.084628
      8          1           0       -0.474684    1.486193   -0.018089
 ---------------------------------------------------------------------

 SCF Done:  E(RB2PLYPD3) =  -191.614801304     A.U. after   12 cycles
 E2(B2PLYPD3) =    -0.2478116134D+00 E(B2PLYPD3) =    -0.19186261291747D+03

 The electronic state is 1-A.
 Alpha  occ. eigenvalues --  -19.73038 -10.72125 -10.65445 -10.64364  -1.19359
 Alpha  occ. eigenvalues --   -0.93141  -0.75329  -0.66480  -0.56427  -0.56188
 Alpha  occ. eigenvalues --   -0.50511  -0.46788  -0.46559  -0.34754  -0.33959
 Alpha virt. eigenvalues --   -0.01814   0.05719   0.06968   0.08140   0.09792
 Alpha virt. eigenvalues --    0.12523   0.13841   0.15334   0.17348   0.19843
 Alpha virt. eigenvalues --    0.19914   0.21572   0.25487   0.26391   0.28714

 Mulliken charges:
               1
     1  C    0.157278
     2  O   -0.347717
     3  C   -0.033577
     4  C   -0.129657
     5  H    0.103260
     6  H    0.082031
     7  H    0.102863
     8  H    0.065519
 Sum of Mulliken charges =   0.00000

 Dipole moment (field-independent basis, Debye):
    X=              3.4856    Y=              0.7618    Z=              0.0476  Tot=              3.5682
 Quadrupole moment (field-independent basis, Debye-Ang):
   XX=            -27.4338   YY=            -21.8094   ZZ=            -25.2555
   XY=             -0.9721   XZ=              0.3118   YZ=             -0.0730

 Normal termination of Gaussian 09 at Wed Aug 26 15:56:26 2020.
