 Gaussian 09, Revision D.01,
 Gaussian 09:  ES64L-G09RevD.01 24-Apr-2013

 --------------------
 #p B2PLYPD3/Def2QZVP
 --------------------

 --------
 acrolein
 --------
 Symbolic Z-matrix:
 Charge =  0 Multiplicity = 1

                         Standard orientation:
 ---------------------------------------------------------------------
 Center     Atomic      Atomic             Coordinates (Angstroms)
 Number     Number       Type             X           Y           Z
 ---------------------------------------------------------------------
      1          6           0       -0.658192    0.332430    0.004759
      2          8           0       -1.791644   -0.106252   -0.022474
      3          6           0        0.554516   -0.474170    0.046841
      4          6           0        1.742394    0.158112   -0.032526
      5          1           0        0.437098   -1.518706    0.034237
      6          1           0        1.815618    1.232545    0.070136
      7          1           0        2.771340   -0.399570   -0.085553
      8          1           0       -0.523214    1.437511    0.046531
 ---------------------------------------------------------------------

 SCF Done:  E(RB2PLYPD3) =  -191.608994967     A.U. after   13 cycles
 E2(B2PLYPD3) =    -0.2481366200D+00 E(B2PLYPD3) =    -0.19185713158723D+03

 The electronic state is 1-A.
 Alpha  occ. eigenvalues --  -19.72555 -10.71470 -10.66868 -10.64589  -1.19073
 Alpha  occ. eigenvalues --   -0.93024  -0.74895  -0.67397  -0.56523  -0.55727
 Alpha  occ. eigenvalues --   -0.50166  -0.46986  -0.46475  -0.34542  -0.33681
 Alpha virt. eigenvalues --   -0.02051   0.05499   0.07069   0.08033   0.09630
 Alpha virt. eigenvalues --    0.12308   0.14004   0.15247   0.17565   0.19936
 Alpha virt. eigenvalues --    0.20017   0.20931   0.24880   0.26312   0.28892

 Mulliken charges:
               1
     1  C    0.153063
     2  O   -0.353913
     3  C   -0.036218
     4  C   -0.124458
     5  H    0.113336
     6  H    0.090885
     7  H    0.092089
     8  H    0.065216
 Sum of Mulliken charges =   0.00000

 Dipole moment (field-independent basis, Debye):
    X=              3.6037    Y=              0.6987    Z=              0.0867  Tot=              3.6718
 Quadrupole moment (field-independent basis, Debye-Ang):
   XX=            -27.4848   YY=            -21.7683   ZZ=            -25.3064
   XY=             -0.7654   XZ=             -0.2051   YZ=              0.1247

 Normal termination of Gaussian 09 at Wed Aug 26 21:03:11 2020.
