 Gaussian 09, Revision D.01,
 Gaussian 09:  ES64L-G09RevD.01 24-Apr-2013

 --------------------
 #p B2PLYPD3/Def2QZVP
 --------------------

 --------
 acrolein
 --------
 Symbolic Z-matrix:
 Charge =  0 Multiplicity = 1

                         Standard orientation:
 ---------------------------------------------------------------------
 Center     Atomic      Atomic             Coordinates (Angstroms)
 Number     Number       Type             X           Y           Z
 ---------------------------------------------------------------------
      1          6           0        0.680687    0.352357   -0.018716
      2          8           0        1.794643   -0.114004    0.026366
      3          6           0       -0.574685   -0.471455   -0.033044
      4          6           0       -1.765595    0.156862    0.001384
      5          1           0       -0.432151   -1.539776   -0.027788
      6          1           0       -1.849460    1.240167    0.029287
      7          1           0       -2.634737   -0.429316    0.128715
      8          1           0        0.516760    1.414380   -0.038892
 ---------------------------------------------------------------------

 SCF Done:  E(RB2PLYPD3) =  -191.614431171     A.U. after   12 cycles
 E2(B2PLYPD3) =    -0.2470837128D+00 E(B2PLYPD3) =    -0.19186151488353D+03

 The electronic state is 1-A.
 Alpha  occ. eigenvalues --  -19.72823 -10.71405 -10.65310 -10.64712  -1.19605
 Alpha  occ. eigenvalues --   -0.92413  -0.75262  -0.67444  -0.56549  -0.56195
 Alpha  occ. eigenvalues --   -0.50664  -0.47556  -0.46603  -0.34424  -0.33702
 Alpha virt. eigenvalues --   -0.01598   0.05797   0.07332   0.07840   0.09726
 Alpha virt. eigenvalues --    0.12663   0.13917   0.15385   0.17571   0.19665
 Alpha virt. eigenvalues --    0.19874   0.21820   0.25104   0.26659   0.28471

 Mulliken charges:
               1
     1  C    0.157807
     2  O   -0.348173
     3  C   -0.050908
     4  C   -0.135028
     5  H    0.108089
     6  H    0.088360
     7  H    0.101748
     8  H    0.078104
 Sum of Mulliken charges =   0.00000

 Dipole moment (field-independent basis, Debye):
    X=             -3.3983    Y=              0.7777    Z=              0.0213  Tot=              3.4862
 Quadrupole moment (field-independent basis, Debye-Ang):
   XX=            -27.7321   YY=            -21.5217   ZZ=            -25.2443
   XY=              0.8276   XZ=             -0.4926   YZ=             -0.0286

 Normal termination of Gaussian 09 at Wed Aug 26 09:34:06 2020.
