 Gaussian 09, Revision D.01,
 Gaussian 09:  ES64L-G09RevD.01 24-Apr-2013

 --------------------
 #p B2PLYPD3/Def2QZVP
 --------------------

 --------
 acrolein
 --------
 Symbolic Z-matrix:
 Charge =  0 Multiplicity = 1

                         Standard orientation:
 ---------------------------------------------------------------------
 Center     Atomic      Atomic             Coordinates (Angstroms)
 Number     Number       Type             X           Y           Z
 ---------------------------------------------------------------------
      1          6           0        0.662875    0.339231   -0.003457
      2          8           0        1.795567   -0.104191    0.004694
      3          6           0       -0.564946   -0.459889   -0.002596
      4          6           0       -1.754382    0.147581    0.002254
      5          1           0       -0.400863   -1.588794    0.014610
      6          1           0       -1.852959    1.221776    0.067857
      7          1           0       -2.666669   -0.397017   -0.044579
      8          1           0        0.494669    1.436022   -0.052646
 ---------------------------------------------------------------------

 SCF Done:  E(RB2PLYPD3) =  -191.613601584     A.U. after   13 cycles
 E2(B2PLYPD3) =    -0.2477696478D+00 E(B2PLYPD3) =    -0.19186137123170D+03

 The electronic state is 1-A.
 Alpha  occ. eigenvalues --  -19.72777 -10.71563 -10.65553 -10.65176  -1.19099
 Alpha  occ. eigenvalues --   -0.93052  -0.75779  -0.66362  -0.56748  -0.56124
 Alpha  occ. eigenvalues --   -0.50457  -0.46734  -0.46473  -0.34724  -0.33768
 Alpha virt. eigenvalues --   -0.01957   0.05742   0.06941   0.08163   0.09706
 Alpha virt. eigenvalues --    0.12611   0.14061   0.15314   0.17001   0.19727
 Alpha virt. eigenvalues --    0.20112   0.21772   0.25286   0.26550   0.28622

 Mulliken charges:
               1
     1  C    0.159753
     2  O   -0.352848
     3  C   -0.035215
     4  C   -0.128521
     5  H    0.100519
     6  H    0.087634
     7  H    0.104197
     8  H    0.064482
 Sum of Mulliken charges =   0.00000

 Dipole moment (field-independent basis, Debye):
    X=             -3.5872    Y=              0.7136    Z=              0.0011  Tot=              3.6575
 Quadrupole moment (field-independent basis, Debye-Ang):
   XX=            -27.4621   YY=            -21.7494   ZZ=            -25.2651
   XY=              0.6439   XZ=             -0.0342   YZ=              0.0627

 Normal termination of Gaussian 09 at Wed Aug 26 11:25:48 2020.
