 Gaussian 09, Revision D.01,
 Gaussian 09:  ES64L-G09RevD.01 24-Apr-2013

 --------------------
 #p B2PLYPD3/Def2QZVP
 --------------------

 --------
 acrolein
 --------
 Symbolic Z-matrix:
 Charge =  0 Multiplicity = 1

                         Standard orientation:
 ---------------------------------------------------------------------
 Center     Atomic      Atomic             Coordinates (Angstroms)
 Number     Number       Type             X           Y           Z
 ---------------------------------------------------------------------
      1          6           0        0.643795    0.316147    0.074676
      2          8           0        1.819642   -0.078424   -0.067597
      3          6           0       -0.563468   -0.489462    0.014773
      4          6           0       -1.736692    0.144303   -0.062110
      5          1           0       -0.507181   -1.596759    0.227357
      6          1           0       -1.944897    1.434351   -0.019387
      7          1           0       -2.583817   -0.448968   -0.035176
      8          1           0        0.416945    1.412840    0.203950
 ---------------------------------------------------------------------

 SCF Done:  E(RB2PLYPD3) =  -191.579712202     A.U. after   14 cycles
 E2(B2PLYPD3) =    -0.2512290912D+00 E(B2PLYPD3) =    -0.19183094129329D+03

 The electronic state is 1-A.
 Alpha  occ. eigenvalues --  -19.72866 -10.72133 -10.67476 -10.65450  -1.17168
 Alpha  occ. eigenvalues --   -0.93518  -0.75800  -0.65329  -0.56576  -0.54415
 Alpha  occ. eigenvalues --   -0.49980  -0.46034  -0.44790  -0.34864  -0.33814
 Alpha virt. eigenvalues --   -0.02453   0.04514   0.06192   0.07802   0.09339
 Alpha virt. eigenvalues --    0.11863   0.13835   0.14862   0.17523   0.18485
 Alpha virt. eigenvalues --    0.20062   0.21617   0.24509   0.26784   0.28087

 Mulliken charges:
               1
     1  C    0.158665
     2  O   -0.362809
     3  C   -0.031299
     4  C   -0.122922
     5  H    0.100066
     6  H    0.084372
     7  H    0.105114
     8  H    0.068811
 Sum of Mulliken charges =   0.00000

 Dipole moment (field-independent basis, Debye):
    X=             -3.8512    Y=              0.5547    Z=              0.4789  Tot=              3.9203
 Quadrupole moment (field-independent basis, Debye-Ang):
   XX=            -28.0876   YY=            -21.4915   ZZ=            -25.4770
   XY=              0.5383   XZ=              0.2744   YZ=             -0.2633

 Normal termination of Gaussian 09 at Wed Aug 26 13:59:49 2020.
