 Gaussian 09, Revision D.01,
 Gaussian 09:  ES64L-G09RevD.01 24-Apr-2013

 --------------------
 #p B2PLYPD3/Def2QZVP
 --------------------

 --------
 acrolein
 --------
 Symbolic Z-matrix:
 Charge =  0 Multiplicity = 1

                         Standard orientation:
 ---------------------------------------------------------------------
 Center     Atomic      Atomic             Coordinates (Angstroms)
 Number     Number       Type             X           Y           Z
 ---------------------------------------------------------------------
      1          6           0       -0.646070    0.325855   -0.040248
      2          8           0       -1.790801   -0.137546    0.063503
      3          6           0        0.565872   -0.408502   -0.084897
      4          6           0        1.727630    0.146867    0.031553
      5          1           0        0.452078   -1.460284   -0.158582
      6          1           0        1.733953    1.093812   -0.077090
      7          1           0        2.711141   -0.501120    0.332224
      8          1           0       -0.455360    1.582635   -0.043023
 ---------------------------------------------------------------------

 SCF Done:  E(RB2PLYPD3) =  -191.568917089     A.U. after   14 cycles
 E2(B2PLYPD3) =    -0.2499552777D+00 E(B2PLYPD3) =    -0.19181887236670D+03

 The electronic state is 1-A.
 Alpha  occ. eigenvalues --  -19.73382 -10.73234 -10.65412 -10.63700  -1.18169
 Alpha  occ. eigenvalues --   -0.95602  -0.76399  -0.66867  -0.56467  -0.55876
 Alpha  occ. eigenvalues --   -0.49428  -0.48028  -0.45986  -0.35323  -0.33663
 Alpha virt. eigenvalues --   -0.02503   0.05321   0.06288   0.08393   0.09926
 Alpha virt. eigenvalues --    0.11750   0.13423   0.15058   0.16929   0.19267
 Alpha virt. eigenvalues --    0.21139   0.21392   0.24774   0.26434   0.28898

 Mulliken charges:
               1
     1  C    0.157666
     2  O   -0.355374
     3  C    0.005360
     4  C   -0.132796
     5  H    0.097527
     6  H    0.101135
     7  H    0.108714
     8  H    0.017768
 Sum of Mulliken charges =   0.00000

 Dipole moment (field-independent basis, Debye):
    X=              3.7309    Y=              0.5071    Z=             -0.1167  Tot=              3.7670
 Quadrupole moment (field-independent basis, Debye-Ang):
   XX=            -27.4301   YY=            -22.3745   ZZ=            -25.0197
   XY=             -1.0437   XZ=              0.8936   YZ=             -0.1269

 Normal termination of Gaussian 09 at Wed Aug 26 10:42:51 2020.
