 Gaussian 09, Revision D.01,
 Gaussian 09:  ES64L-G09RevD.01 24-Apr-2013

 --------------------
 #p B2PLYPD3/Def2QZVP
 --------------------

 --------
 acrolein
 --------
 Symbolic Z-matrix:
 Charge =  0 Multiplicity = 1

                         Standard orientation:
 ---------------------------------------------------------------------
 Center     Atomic      Atomic             Coordinates (Angstroms)
 Number     Number       Type             X           Y           Z
 ---------------------------------------------------------------------
      1          6           0       -0.671615    0.361965   -0.011631
      2          8           0       -1.779964   -0.144005    0.017485
      3          6           0        0.541681   -0.444179   -0.025493
      4          6           0        1.751063    0.150408   -0.010282
      5          1           0        0.495587   -1.485663   -0.031045
      6          1           0        1.772827    1.173434   -0.024910
      7          1           0        2.773119   -0.458821    0.169163
      8          1           0       -0.528595    1.513923    0.031351
 ---------------------------------------------------------------------

 SCF Done:  E(RB2PLYPD3) =  -191.599841987     A.U. after   13 cycles
 E2(B2PLYPD3) =    -0.2486664541D+00 E(B2PLYPD3) =    -0.19184850844092D+03

 The electronic state is 1-A.
 Alpha  occ. eigenvalues --  -19.72877 -10.72303 -10.66186 -10.64177  -1.19179
 Alpha  occ. eigenvalues --   -0.93046  -0.74796  -0.67385  -0.56782  -0.55332
 Alpha  occ. eigenvalues --   -0.49611  -0.47287  -0.46626  -0.34377  -0.33920
 Alpha virt. eigenvalues --   -0.02092   0.05470   0.06865   0.07941   0.09765
 Alpha virt. eigenvalues --    0.12166   0.13766   0.15327   0.17670   0.19538
 Alpha virt. eigenvalues --    0.20245   0.21101   0.25207   0.26040   0.29166

 Mulliken charges:
               1
     1  C    0.146847
     2  O   -0.348396
     3  C   -0.032002
     4  C   -0.131681
     5  H    0.112476
     6  H    0.089039
     7  H    0.095518
     8  H    0.068199
 Sum of Mulliken charges =   0.00000

 Dipole moment (field-independent basis, Debye):
    X=              3.4735    Y=              0.7941    Z=              0.0564  Tot=              3.5636
 Quadrupole moment (field-independent basis, Debye-Ang):
   XX=            -27.5043   YY=            -21.7734   ZZ=            -25.3186
   XY=             -1.2469   XZ=              0.4552   YZ=             -0.0782

 Normal termination of Gaussian 09 at Wed Aug 26 09:58:52 2020.
