 Gaussian 09, Revision D.01,
 Gaussian 09:  ES64L-G09RevD.01 24-Apr-2013

 --------------------
 #p B2PLYPD3/Def2QZVP
 --------------------

 --------
 acrolein
 --------
 Symbolic Z-matrix:
 Charge =  0 Multiplicity = 1

                         Standard orientation:
 ---------------------------------------------------------------------
 Center     Atomic      Atomic             Coordinates (Angstroms)
 Number     Number       Type             X           Y           Z
 ---------------------------------------------------------------------
      1          6           0        0.659945    0.335619    0.042751
      2          8           0        1.805714   -0.118172   -0.026014
      3          6           0       -0.564354   -0.459267    0.034628
      4          6           0       -1.752753    0.144896   -0.024854
      5          1           0       -0.485048   -1.475987   -0.022797
      6          1           0       -1.831462    1.258674    0.034182
      7          1           0       -2.716857   -0.427040   -0.054433
      8          1           0        0.530624    1.462243   -0.063991
 ---------------------------------------------------------------------

 SCF Done:  E(RB2PLYPD3) =  -191.608141001     A.U. after   13 cycles
 E2(B2PLYPD3) =    -0.2487996970D+00 E(B2PLYPD3) =    -0.19185694069828D+03

 The electronic state is 1-A.
 Alpha  occ. eigenvalues --  -19.72812 -10.72120 -10.66535 -10.64171  -1.18100
 Alpha  occ. eigenvalues --   -0.93415  -0.75155  -0.67305  -0.56341  -0.56030
 Alpha  occ. eigenvalues --   -0.50009  -0.47066  -0.46095  -0.34815  -0.33765
 Alpha virt. eigenvalues --   -0.02236   0.05543   0.07103   0.07809   0.09646
 Alpha virt. eigenvalues --    0.12320   0.13848   0.15239   0.17838   0.19482
 Alpha virt. eigenvalues --    0.19992   0.21219   0.24850   0.26554   0.29046

 Mulliken charges:
               1
     1  C    0.155300
     2  O   -0.358972
     3  C   -0.039951
     4  C   -0.119703
     5  H    0.113711
     6  H    0.084815
     7  H    0.098417
     8  H    0.066384
 Sum of Mulliken charges =   0.00000

 Dipole moment (field-independent basis, Debye):
    X=             -3.6859    Y=              0.6948    Z=              0.0416  Tot=              3.7510
 Quadrupole moment (field-independent basis, Debye-Ang):
   XX=            -27.5611   YY=            -21.7885   ZZ=            -25.2887
   XY=              0.9959   XZ=              0.2010   YZ=              0.0846

 Normal termination of Gaussian 09 at Wed Aug 26 08:44:33 2020.
