 Gaussian 09, Revision D.01,
 Gaussian 09:  ES64L-G09RevD.01 24-Apr-2013

 --------------------
 #p B2PLYPD3/Def2QZVP
 --------------------

 --------
 acrolein
 --------
 Symbolic Z-matrix:
 Charge =  0 Multiplicity = 1

                         Standard orientation:
 ---------------------------------------------------------------------
 Center     Atomic      Atomic             Coordinates (Angstroms)
 Number     Number       Type             X           Y           Z
 ---------------------------------------------------------------------
      1          6           0       -0.671429    0.322661    0.045930
      2          8           0       -1.786045   -0.107041   -0.029835
      3          6           0        0.545332   -0.463499    0.036484
      4          6           0        1.756081    0.157209   -0.023847
      5          1           0        0.488833   -1.507299   -0.020013
      6          1           0        1.818973    1.253171    0.023686
      7          1           0        2.708170   -0.434864   -0.062740
      8          1           0       -0.507519    1.447095   -0.053656
 ---------------------------------------------------------------------

 SCF Done:  E(RB2PLYPD3) =  -191.611166728     A.U. after   13 cycles
 E2(B2PLYPD3) =    -0.2475857723D+00 E(B2PLYPD3) =    -0.19185875250010D+03

 The electronic state is 1-A.
 Alpha  occ. eigenvalues --  -19.72676 -10.71470 -10.66643 -10.64403  -1.20294
 Alpha  occ. eigenvalues --   -0.92749  -0.75143  -0.66904  -0.56474  -0.56079
 Alpha  occ. eigenvalues --   -0.50074  -0.47525  -0.47219  -0.34417  -0.33563
 Alpha virt. eigenvalues --   -0.02092   0.05673   0.07074   0.08260   0.09696
 Alpha virt. eigenvalues --    0.12491   0.13896   0.15317   0.17818   0.19615
 Alpha virt. eigenvalues --    0.20058   0.21136   0.24930   0.26541   0.28885

 Mulliken charges:
               1
     1  C    0.154302
     2  O   -0.338928
     3  C   -0.035963
     4  C   -0.130629
     5  H    0.108002
     6  H    0.090061
     7  H    0.100934
     8  H    0.052222
 Sum of Mulliken charges =   0.00000

 Dipole moment (field-independent basis, Debye):
    X=              3.5292    Y=              0.6042    Z=              0.0456  Tot=              3.5809
 Quadrupole moment (field-independent basis, Debye-Ang):
   XX=            -27.2850   YY=            -21.8754   ZZ=            -25.2941
   XY=             -0.9053   XZ=             -0.2694   YZ=              0.0825

 Normal termination of Gaussian 09 at Wed Aug 26 09:29:45 2020.
