 Gaussian 09, Revision D.01,
 Gaussian 09:  ES64L-G09RevD.01 24-Apr-2013

 --------------------
 #p B2PLYPD3/Def2QZVP
 --------------------

 --------
 acrolein
 --------
 Symbolic Z-matrix:
 Charge =  0 Multiplicity = 1

                         Standard orientation:
 ---------------------------------------------------------------------
 Center     Atomic      Atomic             Coordinates (Angstroms)
 Number     Number       Type             X           Y           Z
 ---------------------------------------------------------------------
      1          6           0       -0.670289    0.341146    0.010670
      2          8           0       -1.799057   -0.107819   -0.011915
      3          6           0        0.558650   -0.460075    0.032385
      4          6           0        1.761234    0.148427   -0.017909
      5          1           0        0.448778   -1.577525   -0.036270
      6          1           0        1.869171    1.242262    0.016532
      7          1           0        2.670483   -0.416038   -0.025340
      8          1           0       -0.493550    1.436870   -0.010486
 ---------------------------------------------------------------------

 SCF Done:  E(RB2PLYPD3) =  -191.614136764     A.U. after   12 cycles
 E2(B2PLYPD3) =    -0.2480502523D+00 E(B2PLYPD3) =    -0.19186218701665D+03

 The electronic state is 1-A.
 Alpha  occ. eigenvalues --  -19.72804 -10.71663 -10.65946 -10.65181  -1.19206
 Alpha  occ. eigenvalues --   -0.92683  -0.75604  -0.66428  -0.56458  -0.56074
 Alpha  occ. eigenvalues --   -0.50348  -0.46803  -0.46529  -0.34534  -0.33821
 Alpha virt. eigenvalues --   -0.02060   0.05705   0.06943   0.08083   0.09660
 Alpha virt. eigenvalues --    0.12551   0.14002   0.15290   0.17294   0.19751
 Alpha virt. eigenvalues --    0.19973   0.21625   0.25070   0.26534   0.28568

 Mulliken charges:
               1
     1  C    0.157634
     2  O   -0.349690
     3  C   -0.038164
     4  C   -0.128997
     5  H    0.101774
     6  H    0.085895
     7  H    0.103672
     8  H    0.067876
 Sum of Mulliken charges =   0.00000

 Dipole moment (field-independent basis, Debye):
    X=              3.5846    Y=              0.7212    Z=             -0.0081  Tot=              3.6565
 Quadrupole moment (field-independent basis, Debye-Ang):
   XX=            -27.4764   YY=            -21.7134   ZZ=            -25.3340
   XY=             -0.7613   XZ=             -0.1187   YZ=              0.1058

 Normal termination of Gaussian 09 at Wed Aug 26 19:14:33 2020.
