 Gaussian 09, Revision D.01,
 Gaussian 09:  ES64L-G09RevD.01 24-Apr-2013

 --------------------
 #p B2PLYPD3/Def2QZVP
 --------------------

 --------
 acrolein
 --------
 Symbolic Z-matrix:
 Charge =  0 Multiplicity = 1

                         Standard orientation:
 ---------------------------------------------------------------------
 Center     Atomic      Atomic             Coordinates (Angstroms)
 Number     Number       Type             X           Y           Z
 ---------------------------------------------------------------------
      1          6           0        0.683199    0.365602    0.047979
      2          8           0        1.792051   -0.162856   -0.061154
      3          6           0       -0.563105   -0.411485    0.031604
      4          6           0       -1.737312    0.136307   -0.076041
      5          1           0       -0.494553   -1.448978    0.244229
      6          1           0       -1.718128    1.019230   -0.081758
      7          1           0       -2.862227   -0.416304    0.048569
      8          1           0        0.441809    1.606356    0.256936
 ---------------------------------------------------------------------

 SCF Done:  E(RB2PLYPD3) =  -191.537916188     A.U. after   13 cycles
 E2(B2PLYPD3) =    -0.2501152862D+00 E(B2PLYPD3) =    -0.19178803147412D+03

 The electronic state is 1-A.
 Alpha  occ. eigenvalues --  -19.74088 -10.74189 -10.64309 -10.63890  -1.19053
 Alpha  occ. eigenvalues --   -0.94807  -0.75814  -0.67246  -0.56356  -0.55517
 Alpha  occ. eigenvalues --   -0.50288  -0.47119  -0.45670  -0.35414  -0.34090
 Alpha virt. eigenvalues --   -0.02083   0.05239   0.06000   0.08030   0.09754
 Alpha virt. eigenvalues --    0.12034   0.13353   0.14989   0.17299   0.19323
 Alpha virt. eigenvalues --    0.20149   0.22170   0.24811   0.26079   0.28643

 Mulliken charges:
               1
     1  C    0.148369
     2  O   -0.339112
     3  C   -0.000173
     4  C   -0.162851
     5  H    0.101781
     6  H    0.115423
     7  H    0.093345
     8  H    0.043219
 Sum of Mulliken charges =   0.00000

 Dipole moment (field-independent basis, Debye):
    X=             -3.4061    Y=              0.7458    Z=              0.4321  Tot=              3.5135
 Quadrupole moment (field-independent basis, Debye-Ang):
   XX=            -27.1253   YY=            -22.4281   ZZ=            -25.1625
   XY=              1.0560   XZ=              0.0840   YZ=             -0.3131

 Normal termination of Gaussian 09 at Wed Aug 26 12:00:59 2020.
