 Gaussian 09, Revision D.01,
 Gaussian 09:  ES64L-G09RevD.01 24-Apr-2013

 --------------------
 #p B2PLYPD3/Def2QZVP
 --------------------

 --------
 acrolein
 --------
 Symbolic Z-matrix:
 Charge =  0 Multiplicity = 1

                         Standard orientation:
 ---------------------------------------------------------------------
 Center     Atomic      Atomic             Coordinates (Angstroms)
 Number     Number       Type             X           Y           Z
 ---------------------------------------------------------------------
      1          6           0        0.653140    0.340358    0.019762
      2          8           0        1.797955   -0.102420   -0.033215
      3          6           0       -0.582426   -0.473580    0.054016
      4          6           0       -1.741103    0.153571   -0.039822
      5          1           0       -0.439277   -1.611876    0.035892
      6          1           0       -1.839852    1.309000    0.036267
      7          1           0       -2.625650   -0.392998   -0.082384
      8          1           0        0.543477    1.393144    0.072217
 ---------------------------------------------------------------------

 SCF Done:  E(RB2PLYPD3) =  -191.605224176     A.U. after   13 cycles
 E2(B2PLYPD3) =    -0.2481008565D+00 E(B2PLYPD3) =    -0.19185332503216D+03

 The electronic state is 1-A.
 Alpha  occ. eigenvalues --  -19.72541 -10.71243 -10.65780 -10.65237  -1.18242
 Alpha  occ. eigenvalues --   -0.93235  -0.75482  -0.66679  -0.56579  -0.55920
 Alpha  occ. eigenvalues --   -0.50235  -0.46319  -0.45864  -0.34946  -0.33739
 Alpha virt. eigenvalues --   -0.01672   0.05579   0.06779   0.07868   0.09607
 Alpha virt. eigenvalues --    0.12428   0.14088   0.15246   0.17107   0.19460
 Alpha virt. eigenvalues --    0.20005   0.21740   0.24962   0.26551   0.28746

 Mulliken charges:
               1
     1  C    0.160240
     2  O   -0.360771
     3  C   -0.044877
     4  C   -0.121522
     5  H    0.101961
     6  H    0.083024
     7  H    0.103873
     8  H    0.078072
 Sum of Mulliken charges =   0.00000

 Dipole moment (field-independent basis, Debye):
    X=             -3.6110    Y=              0.7419    Z=              0.1153  Tot=              3.6883
 Quadrupole moment (field-independent basis, Debye-Ang):
   XX=            -27.8562   YY=            -21.4369   ZZ=            -25.2876
   XY=              0.8267   XZ=              0.3063   YZ=              0.1039

 Normal termination of Gaussian 09 at Wed Aug 26 09:53:16 2020.
