 Gaussian 09, Revision D.01,
 Gaussian 09:  ES64L-G09RevD.01 24-Apr-2013

 --------------------
 #p B2PLYPD3/Def2QZVP
 --------------------

 --------
 acrolein
 --------
 Symbolic Z-matrix:
 Charge =  0 Multiplicity = 1

                         Standard orientation:
 ---------------------------------------------------------------------
 Center     Atomic      Atomic             Coordinates (Angstroms)
 Number     Number       Type             X           Y           Z
 ---------------------------------------------------------------------
      1          6           0       -0.664756    0.342456   -0.008492
      2          8           0       -1.782757   -0.110594   -0.002796
      3          6           0        0.569798   -0.471196    0.015928
      4          6           0        1.755695    0.162745   -0.017916
      5          1           0        0.457505   -1.603742    0.036051
      6          1           0        1.806920    1.266070    0.087940
      7          1           0        2.600081   -0.407816   -0.043205
      8          1           0       -0.566873    1.426210    0.004459
 ---------------------------------------------------------------------

 SCF Done:  E(RB2PLYPD3) =  -191.609453849     A.U. after   13 cycles
 E2(B2PLYPD3) =    -0.2471920964D+00 E(B2PLYPD3) =    -0.19185664594544D+03

 The electronic state is 1-A.
 Alpha  occ. eigenvalues --  -19.72475 -10.71197 -10.65264 -10.65144  -1.19595
 Alpha  occ. eigenvalues --   -0.92700  -0.75424  -0.66539  -0.56892  -0.56157
 Alpha  occ. eigenvalues --   -0.50232  -0.47276  -0.46579  -0.34461  -0.33607
 Alpha virt. eigenvalues --   -0.01630   0.05840   0.06872   0.08058   0.09711
 Alpha virt. eigenvalues --    0.12571   0.14155   0.15327   0.17076   0.19738
 Alpha virt. eigenvalues --    0.20049   0.21906   0.25126   0.26257   0.28830

 Mulliken charges:
               1
     1  C    0.154777
     2  O   -0.346248
     3  C   -0.044835
     4  C   -0.132264
     5  H    0.100290
     6  H    0.090292
     7  H    0.106399
     8  H    0.071589
 Sum of Mulliken charges =   0.00000

 Dipole moment (field-independent basis, Debye):
    X=              3.4547    Y=              0.7283    Z=              0.0678  Tot=              3.5313
 Quadrupole moment (field-independent basis, Debye-Ang):
   XX=            -27.7183   YY=            -21.4431   ZZ=            -25.2694
   XY=             -0.9957   XZ=              0.0328   YZ=              0.0987

 Normal termination of Gaussian 09 at Wed Aug 26 10:10:20 2020.
