 Gaussian 09, Revision D.01,
 Gaussian 09:  ES64L-G09RevD.01 24-Apr-2013

 --------------------
 #p B2PLYPD3/Def2QZVP
 --------------------

 --------
 acrolein
 --------
 Symbolic Z-matrix:
 Charge =  0 Multiplicity = 1

                         Standard orientation:
 ---------------------------------------------------------------------
 Center     Atomic      Atomic             Coordinates (Angstroms)
 Number     Number       Type             X           Y           Z
 ---------------------------------------------------------------------
      1          6           0       -0.690128    0.373256    0.035772
      2          8           0       -1.776237   -0.150213   -0.032759
      3          6           0        0.556618   -0.433826    0.023008
      4          6           0        1.766262    0.125379   -0.034190
      5          1           0        0.461410   -1.490330    0.070612
      6          1           0        1.794414    1.198115   -0.018983
      7          1           0        2.686680   -0.418670    0.000893
      8          1           0       -0.529118    1.523734    0.062007
 ---------------------------------------------------------------------

 SCF Done:  E(RB2PLYPD3) =  -191.613220087     A.U. after   12 cycles
 E2(B2PLYPD3) =    -0.2473921663D+00 E(B2PLYPD3) =    -0.19186061225327D+03

 The electronic state is 1-A.
 Alpha  occ. eigenvalues --  -19.73211 -10.72478 -10.64934 -10.64099  -1.20034
 Alpha  occ. eigenvalues --   -0.92696  -0.75023  -0.66651  -0.56797  -0.56106
 Alpha  occ. eigenvalues --   -0.50943  -0.47132  -0.46577  -0.34547  -0.33977
 Alpha virt. eigenvalues --   -0.01618   0.05822   0.07144   0.08057   0.09840
 Alpha virt. eigenvalues --    0.12403   0.13913   0.15440   0.17486   0.19823
 Alpha virt. eigenvalues --    0.19870   0.21591   0.25558   0.26193   0.29023

 Mulliken charges:
               1
     1  C    0.156449
     2  O   -0.338120
     3  C   -0.041386
     4  C   -0.131305
     5  H    0.105852
     6  H    0.076448
     7  H    0.104790
     8  H    0.067272
 Sum of Mulliken charges =   0.00000

 Dipole moment (field-independent basis, Debye):
    X=              3.3102    Y=              0.8025    Z=              0.1801  Tot=              3.4108
 Quadrupole moment (field-independent basis, Debye-Ang):
   XX=            -27.2457   YY=            -21.8609   ZZ=            -25.2571
   XY=             -1.2389   XZ=             -0.1319   YZ=             -0.0790

 Normal termination of Gaussian 09 at Wed Aug 26 09:15:53 2020.
