 Gaussian 09, Revision D.01,
 Gaussian 09:  ES64L-G09RevD.01 24-Apr-2013

 --------------------
 #p B2PLYPD3/Def2QZVP
 --------------------

 --------
 acrolein
 --------
 Symbolic Z-matrix:
 Charge =  0 Multiplicity = 1

                         Standard orientation:
 ---------------------------------------------------------------------
 Center     Atomic      Atomic             Coordinates (Angstroms)
 Number     Number       Type             X           Y           Z
 ---------------------------------------------------------------------
      1          6           0       -0.665532    0.351968   -0.017044
      2          8           0       -1.784714   -0.130478    0.023881
      3          6           0        0.564750   -0.426163   -0.028412
      4          6           0        1.742631    0.140180    0.002055
      5          1           0        0.457340   -1.482579   -0.049521
      6          1           0        1.810489    1.146014   -0.004488
      7          1           0        2.669928   -0.431518    0.138798
      8          1           0       -0.511138    1.415989   -0.015422
 ---------------------------------------------------------------------

 SCF Done:  E(RB2PLYPD3) =  -191.611152411     A.U. after   12 cycles
 E2(B2PLYPD3) =    -0.2463745621D+00 E(B2PLYPD3) =    -0.19185752697273D+03

 The electronic state is 1-A.
 Alpha  occ. eigenvalues --  -19.72791 -10.71264 -10.64424 -10.63586  -1.18983
 Alpha  occ. eigenvalues --   -0.94087  -0.76153  -0.68058  -0.57490  -0.56509
 Alpha  occ. eigenvalues --   -0.50677  -0.47289  -0.46517  -0.35050  -0.33963
 Alpha virt. eigenvalues --   -0.01743   0.05794   0.07318   0.08350   0.09829
 Alpha virt. eigenvalues --    0.12744   0.14050   0.15323   0.17642   0.19751
 Alpha virt. eigenvalues --    0.20230   0.21837   0.25697   0.26533   0.28767

 Mulliken charges:
               1
     1  C    0.146638
     2  O   -0.355936
     3  C   -0.023322
     4  C   -0.132509
     5  H    0.104409
     6  H    0.084991
     7  H    0.099376
     8  H    0.076354
 Sum of Mulliken charges =   0.00000

 Dipole moment (field-independent basis, Debye):
    X=              3.5302    Y=              0.8276    Z=             -0.0066  Tot=              3.6260
 Quadrupole moment (field-independent basis, Debye-Ang):
   XX=            -27.4504   YY=            -21.7979   ZZ=            -24.9587
   XY=             -1.0109   XZ=              0.4271   YZ=             -0.0337

 Normal termination of Gaussian 09 at Wed Aug 26 09:29:03 2020.
