 Gaussian 09, Revision D.01,
 Gaussian 09:  ES64L-G09RevD.01 24-Apr-2013

 --------------------
 #p B2PLYPD3/Def2QZVP
 --------------------

 --------
 acrolein
 --------
 Symbolic Z-matrix:
 Charge =  0 Multiplicity = 1

                         Standard orientation:
 ---------------------------------------------------------------------
 Center     Atomic      Atomic             Coordinates (Angstroms)
 Number     Number       Type             X           Y           Z
 ---------------------------------------------------------------------
      1          6           0        0.677657    0.359782   -0.012164
      2          8           0        1.768439   -0.134416   -0.006541
      3          6           0       -0.505671   -0.405874    0.040765
      4          6           0       -1.762691    0.113113   -0.032544
      5          1           0       -0.394777   -1.502263    0.028726
      6          1           0       -1.811184    1.182267    0.161144
      7          1           0       -2.866964   -0.445197   -0.083371
      8          1           0        0.469651    1.438397   -0.030516
 ---------------------------------------------------------------------

 SCF Done:  E(RB2PLYPD3) =  -191.592722637     A.U. after   13 cycles
 E2(B2PLYPD3) =    -0.2486968318D+00 E(B2PLYPD3) =    -0.19184141946874D+03

 The electronic state is 1-A.
 Alpha  occ. eigenvalues --  -19.72755 -10.71025 -10.67681 -10.64426  -1.20467
 Alpha  occ. eigenvalues --   -0.92861  -0.75626  -0.66834  -0.56706  -0.55336
 Alpha  occ. eigenvalues --   -0.50079  -0.47674  -0.45091  -0.34247  -0.34033
 Alpha virt. eigenvalues --   -0.02591   0.05099   0.07015   0.08528   0.09644
 Alpha virt. eigenvalues --    0.12016   0.14116   0.15243   0.17524   0.19625
 Alpha virt. eigenvalues --    0.19999   0.20669   0.24792   0.26542   0.28676

 Mulliken charges:
               1
     1  C    0.156490
     2  O   -0.343070
     3  C   -0.028001
     4  C   -0.131609
     5  H    0.102805
     6  H    0.076627
     7  H    0.102123
     8  H    0.064635
 Sum of Mulliken charges =   0.00000

 Dipole moment (field-independent basis, Debye):
    X=             -3.5213    Y=              0.7903    Z=              0.0714  Tot=              3.6095
 Quadrupole moment (field-independent basis, Debye-Ang):
   XX=            -26.7615   YY=            -22.2618   ZZ=            -25.3146
   XY=              1.0734   XZ=              0.0048   YZ=              0.2193

 Normal termination of Gaussian 09 at Wed Aug 26 11:13:41 2020.
