 Gaussian 09, Revision D.01,
 Gaussian 09:  ES64L-G09RevD.01 24-Apr-2013

 --------------------
 #p B2PLYPD3/Def2QZVP
 --------------------

 --------
 acrolein
 --------
 Symbolic Z-matrix:
 Charge =  0 Multiplicity = 1

                         Standard orientation:
 ---------------------------------------------------------------------
 Center     Atomic      Atomic             Coordinates (Angstroms)
 Number     Number       Type             X           Y           Z
 ---------------------------------------------------------------------
      1          6           0        0.678780    0.346476   -0.017497
      2          8           0        1.784166   -0.107434    0.023434
      3          6           0       -0.576803   -0.477452   -0.008136
      4          6           0       -1.739831    0.164434    0.000266
      5          1           0       -0.453577   -1.582536   -0.089134
      6          1           0       -1.873453    1.269211    0.012228
      7          1           0       -2.677971   -0.402664    0.101764
      8          1           0        0.558798    1.374711   -0.060126
 ---------------------------------------------------------------------

 SCF Done:  E(RB2PLYPD3) =  -191.610492102     A.U. after   12 cycles
 E2(B2PLYPD3) =    -0.2462338188D+00 E(B2PLYPD3) =    -0.19185672592088D+03

 The electronic state is 1-A.
 Alpha  occ. eigenvalues --  -19.72533 -10.70712 -10.65644 -10.64840  -1.20272
 Alpha  occ. eigenvalues --   -0.92466  -0.74749  -0.67474  -0.56803  -0.55835
 Alpha  occ. eigenvalues --   -0.50755  -0.47082  -0.46226  -0.34746  -0.33542
 Alpha virt. eigenvalues --   -0.01070   0.05719   0.07118   0.07997   0.09591
 Alpha virt. eigenvalues --    0.12541   0.14186   0.15324   0.17551   0.19593
 Alpha virt. eigenvalues --    0.19871   0.21534   0.25341   0.26688   0.28483

 Mulliken charges:
               1
     1  C    0.158045
     2  O   -0.342494
     3  C   -0.053720
     4  C   -0.129140
     5  H    0.106721
     6  H    0.085333
     7  H    0.094151
     8  H    0.081103
 Sum of Mulliken charges =   0.00000

 Dipole moment (field-independent basis, Debye):
    X=             -3.3392    Y=              0.7993    Z=             -0.0791  Tot=              3.4345
 Quadrupole moment (field-independent basis, Debye-Ang):
   XX=            -27.6480   YY=            -21.4712   ZZ=            -25.2139
   XY=              0.7622   XZ=             -0.3448   YZ=              0.0760

 Normal termination of Gaussian 09 at Wed Aug 26 10:24:29 2020.
