 Gaussian 09, Revision D.01,
 Gaussian 09:  ES64L-G09RevD.01 24-Apr-2013

 --------------------
 #p B2PLYPD3/Def2QZVP
 --------------------

 --------
 acrolein
 --------
 Symbolic Z-matrix:
 Charge =  0 Multiplicity = 1

                         Standard orientation:
 ---------------------------------------------------------------------
 Center     Atomic      Atomic             Coordinates (Angstroms)
 Number     Number       Type             X           Y           Z
 ---------------------------------------------------------------------
      1          6           0        0.674162    0.358897   -0.006582
      2          8           0        1.776467   -0.132403    0.004104
      3          6           0       -0.548039   -0.435956   -0.018819
      4          6           0       -1.757226    0.133233    0.008810
      5          1           0       -0.473528   -1.502560    0.036978
      6          1           0       -1.809567    1.202643   -0.023172
      7          1           0       -2.653949   -0.424107    0.016488
      8          1           0        0.511926    1.446202    0.036424
 ---------------------------------------------------------------------

 SCF Done:  E(RB2PLYPD3) =  -191.616215871     A.U. after   12 cycles
 E2(B2PLYPD3) =    -0.2467127947D+00 E(B2PLYPD3) =    -0.19186292866564D+03

 The electronic state is 1-A.
 Alpha  occ. eigenvalues --  -19.72778 -10.71443 -10.65001 -10.63999  -1.19784
 Alpha  occ. eigenvalues --   -0.93118  -0.75806  -0.67278  -0.56927  -0.56620
 Alpha  occ. eigenvalues --   -0.50784  -0.47124  -0.46813  -0.34549  -0.33962
 Alpha virt. eigenvalues --   -0.01785   0.05845   0.07235   0.08274   0.09803
 Alpha virt. eigenvalues --    0.12630   0.14095   0.15359   0.17622   0.19794
 Alpha virt. eigenvalues --    0.20014   0.21698   0.25484   0.26482   0.28931

 Mulliken charges:
               1
     1  C    0.150815
     2  O   -0.345669
     3  C   -0.034986
     4  C   -0.133540
     5  H    0.103906
     6  H    0.080063
     7  H    0.105005
     8  H    0.074407
 Sum of Mulliken charges =   0.00000

 Dipole moment (field-independent basis, Debye):
    X=             -3.4538    Y=              0.7923    Z=              0.0261  Tot=              3.5436
 Quadrupole moment (field-independent basis, Debye-Ang):
   XX=            -27.3247   YY=            -21.7659   ZZ=            -25.1377
   XY=              1.1366   XZ=             -0.0498   YZ=             -0.0873

 Normal termination of Gaussian 09 at Wed Aug 26 09:04:29 2020.
