 Gaussian 09, Revision D.01,
 Gaussian 09:  ES64L-G09RevD.01 24-Apr-2013

 --------------------
 #p B2PLYPD3/Def2QZVP
 --------------------

 --------
 acrolein
 --------
 Symbolic Z-matrix:
 Charge =  0 Multiplicity = 1

                         Standard orientation:
 ---------------------------------------------------------------------
 Center     Atomic      Atomic             Coordinates (Angstroms)
 Number     Number       Type             X           Y           Z
 ---------------------------------------------------------------------
      1          6           0        0.681437    0.360259    0.015218
      2          8           0        1.788795   -0.132649   -0.028787
      3          6           0       -0.555320   -0.424143    0.058150
      4          6           0       -1.749037    0.119593   -0.035472
      5          1           0       -0.465404   -1.503718    0.007287
      6          1           0       -1.903702    1.221214    0.016997
      7          1           0       -2.677650   -0.448577   -0.068890
      8          1           0        0.473920    1.458019    0.047523
 ---------------------------------------------------------------------

 SCF Done:  E(RB2PLYPD3) =  -191.614033647     A.U. after   12 cycles
 E2(B2PLYPD3) =    -0.2473310778D+00 E(B2PLYPD3) =    -0.19186136472439D+03

 The electronic state is 1-A.
 Alpha  occ. eigenvalues --  -19.73118 -10.71934 -10.65545 -10.64021  -1.19569
 Alpha  occ. eigenvalues --   -0.93286  -0.75565  -0.66663  -0.56837  -0.55983
 Alpha  occ. eigenvalues --   -0.50928  -0.46917  -0.45827  -0.35001  -0.34038
 Alpha virt. eigenvalues --   -0.01746   0.05673   0.07143   0.08249   0.09701
 Alpha virt. eigenvalues --    0.12485   0.13887   0.15300   0.17677   0.19661
 Alpha virt. eigenvalues --    0.19866   0.21604   0.25294   0.26511   0.28389

 Mulliken charges:
               1
     1  C    0.160333
     2  O   -0.345937
     3  C   -0.038325
     4  C   -0.121871
     5  H    0.102221
     6  H    0.073875
     7  H    0.099372
     8  H    0.070332
 Sum of Mulliken charges =   0.00000

 Dipole moment (field-independent basis, Debye):
    X=             -3.4828    Y=              0.7844    Z=              0.0553  Tot=              3.5705
 Quadrupole moment (field-independent basis, Debye-Ang):
   XX=            -27.2640   YY=            -21.9309   ZZ=            -25.1879
   XY=              0.9395   XZ=              0.2840   YZ=              0.1123

 Normal termination of Gaussian 09 at Wed Aug 26 20:46:58 2020.
