 Gaussian 09, Revision D.01,
 Gaussian 09:  ES64L-G09RevD.01 24-Apr-2013

 --------------------
 #p B2PLYPD3/Def2QZVP
 --------------------

 --------
 acrolein
 --------
 Symbolic Z-matrix:
 Charge =  0 Multiplicity = 1

                         Standard orientation:
 ---------------------------------------------------------------------
 Center     Atomic      Atomic             Coordinates (Angstroms)
 Number     Number       Type             X           Y           Z
 ---------------------------------------------------------------------
      1          6           0        0.649073    0.302914    0.014793
      2          8           0        1.796901   -0.074496    0.022024
      3          6           0       -0.539334   -0.467866   -0.059117
      4          6           0       -1.740760    0.142792    0.008456
      5          1           0       -0.440788   -1.587816   -0.037345
      6          1           0       -1.899045    1.328881   -0.058142
      7          1           0       -2.766503   -0.359753    0.205143
      8          1           0        0.517250    1.347617   -0.070636
 ---------------------------------------------------------------------

 SCF Done:  E(RB2PLYPD3) =  -191.594781106     A.U. after   13 cycles
 E2(B2PLYPD3) =    -0.2485671558D+00 E(B2PLYPD3) =    -0.19184334826225D+03

 The electronic state is 1-A.
 Alpha  occ. eigenvalues --  -19.72194 -10.70326 -10.68340 -10.65262  -1.19310
 Alpha  occ. eigenvalues --   -0.93244  -0.75445  -0.66729  -0.56869  -0.55360
 Alpha  occ. eigenvalues --   -0.50038  -0.46980  -0.45103  -0.34630  -0.33528
 Alpha virt. eigenvalues --   -0.02516   0.05131   0.06736   0.08537   0.09412
 Alpha virt. eigenvalues --    0.12052   0.14435   0.15199   0.17402   0.19283
 Alpha virt. eigenvalues --    0.19718   0.21027   0.24903   0.26584   0.28641

 Mulliken charges:
               1
     1  C    0.159037
     2  O   -0.354036
     3  C   -0.029199
     4  C   -0.114364
     5  H    0.102155
     6  H    0.077150
     7  H    0.098560
     8  H    0.060698
 Sum of Mulliken charges =   0.00000

 Dipole moment (field-independent basis, Debye):
    X=             -3.7959    Y=              0.6086    Z=              0.0387  Tot=              3.8446
 Quadrupole moment (field-independent basis, Debye-Ang):
   XX=            -27.2277   YY=            -21.9357   ZZ=            -25.3017
   XY=              0.4873   XZ=             -0.5510   YZ=             -0.1643

 Normal termination of Gaussian 09 at Wed Aug 26 14:59:23 2020.
