 Gaussian 09, Revision D.01,
 Gaussian 09:  ES64L-G09RevD.01 24-Apr-2013

 --------------------
 #p B2PLYPD3/Def2QZVP
 --------------------

 --------
 acrolein
 --------
 Symbolic Z-matrix:
 Charge =  0 Multiplicity = 1

                         Standard orientation:
 ---------------------------------------------------------------------
 Center     Atomic      Atomic             Coordinates (Angstroms)
 Number     Number       Type             X           Y           Z
 ---------------------------------------------------------------------
      1          6           0        0.659383    0.351531    0.035147
      2          8           0        1.797598   -0.110806   -0.034479
      3          6           0       -0.589179   -0.469797    0.042395
      4          6           0       -1.751384    0.160701   -0.021988
      5          1           0       -0.428160   -1.563207   -0.003416
      6          1           0       -1.809025    1.226194   -0.060054
      7          1           0       -2.560960   -0.421095   -0.053005
      8          1           0        0.504443    1.389948    0.058985
 ---------------------------------------------------------------------

 SCF Done:  E(RB2PLYPD3) =  -191.606527635     A.U. after   13 cycles
 E2(B2PLYPD3) =    -0.2473317127D+00 E(B2PLYPD3) =    -0.19185385934723D+03

 The electronic state is 1-A.
 Alpha  occ. eigenvalues --  -19.72729 -10.71276 -10.64680 -10.64226  -1.18183
 Alpha  occ. eigenvalues --   -0.93493  -0.76114  -0.67588  -0.57521  -0.56202
 Alpha  occ. eigenvalues --   -0.50415  -0.47641  -0.45914  -0.34826  -0.33765
 Alpha virt. eigenvalues --   -0.01627   0.05869   0.07210   0.07750   0.09782
 Alpha virt. eigenvalues --    0.12832   0.13878   0.15304   0.17309   0.19707
 Alpha virt. eigenvalues --    0.20105   0.22222   0.25231   0.26755   0.28604

 Mulliken charges:
               1
     1  C    0.155391
     2  O   -0.362815
     3  C   -0.041651
     4  C   -0.134203
     5  H    0.104297
     6  H    0.091516
     7  H    0.104635
     8  H    0.082830
 Sum of Mulliken charges =   0.00000

 Dipole moment (field-independent basis, Debye):
    X=             -3.5424    Y=              0.7986    Z=              0.0379  Tot=              3.6316
 Quadrupole moment (field-independent basis, Debye-Ang):
   XX=            -28.0020   YY=            -21.3698   ZZ=            -25.1249
   XY=              0.8347   XZ=              0.4043   YZ=              0.0111

 Normal termination of Gaussian 09 at Wed Aug 26 09:48:20 2020.
