 Gaussian 09, Revision D.01,
 Gaussian 09:  ES64L-G09RevD.01 24-Apr-2013

 --------------------
 #p B2PLYPD3/Def2QZVP
 --------------------

 --------
 acrolein
 --------
 Symbolic Z-matrix:
 Charge =  0 Multiplicity = 1

                         Standard orientation:
 ---------------------------------------------------------------------
 Center     Atomic      Atomic             Coordinates (Angstroms)
 Number     Number       Type             X           Y           Z
 ---------------------------------------------------------------------
      1          6           0       -0.686043    0.356941    0.041871
      2          8           0       -1.749968   -0.151932   -0.042556
      3          6           0        0.530349   -0.412831    0.075309
      4          6           0        1.766545    0.127982   -0.056697
      5          1           0        0.526982   -1.441151   -0.039776
      6          1           0        1.718792    1.112519   -0.013447
      7          1           0        2.653548   -0.380849   -0.000206
      8          1           0       -0.564681    1.492390    0.030982
 ---------------------------------------------------------------------

 SCF Done:  E(RB2PLYPD3) =  -191.596062178     A.U. after   13 cycles
 E2(B2PLYPD3) =    -0.2459885185D+00 E(B2PLYPD3) =    -0.19184205069691D+03

 The electronic state is 1-A.
 Alpha  occ. eigenvalues --  -19.72778 -10.71483 -10.63835 -10.63471  -1.21461
 Alpha  occ. eigenvalues --   -0.93416  -0.76382  -0.67571  -0.58154  -0.56979
 Alpha  occ. eigenvalues --   -0.51682  -0.47975  -0.46649  -0.34457  -0.33746
 Alpha virt. eigenvalues --   -0.01957   0.06092   0.07360   0.08523   0.10003
 Alpha virt. eigenvalues --    0.12694   0.14043   0.15277   0.17936   0.19488
 Alpha virt. eigenvalues --    0.20424   0.21888   0.25008   0.26193   0.29423

 Mulliken charges:
               1
     1  C    0.141118
     2  O   -0.325974
     3  C   -0.029606
     4  C   -0.125776
     5  H    0.101404
     6  H    0.073763
     7  H    0.104639
     8  H    0.060433
 Sum of Mulliken charges =   0.00000

 Dipole moment (field-independent basis, Debye):
    X=              3.2997    Y=              0.7706    Z=              0.0883  Tot=              3.3896
 Quadrupole moment (field-independent basis, Debye-Ang):
   XX=            -26.7374   YY=            -22.1039   ZZ=            -24.9762
   XY=             -1.4827   XZ=             -0.2774   YZ=              0.0989

 Normal termination of Gaussian 09 at Wed Aug 26 12:43:34 2020.
