 Gaussian 09, Revision D.01,
 Gaussian 09:  ES64L-G09RevD.01 24-Apr-2013

 --------------------
 #p B2PLYPD3/Def2QZVP
 --------------------

 --------
 acrolein
 --------
 Symbolic Z-matrix:
 Charge =  0 Multiplicity = 1

                         Standard orientation:
 ---------------------------------------------------------------------
 Center     Atomic      Atomic             Coordinates (Angstroms)
 Number     Number       Type             X           Y           Z
 ---------------------------------------------------------------------
      1          6           0        0.669543    0.372754    0.083740
      2          8           0        1.793325   -0.138344   -0.074735
      3          6           0       -0.552406   -0.414874    0.083843
      4          6           0       -1.754320    0.126949   -0.067216
      5          1           0       -0.445622   -1.428907    0.080740
      6          1           0       -1.902826    1.141281    0.004713
      7          1           0       -2.722838   -0.458134   -0.122394
      8          1           0        0.547787    1.343537    0.032616
 ---------------------------------------------------------------------

 SCF Done:  E(RB2PLYPD3) =  -191.594691323     A.U. after   14 cycles
 E2(B2PLYPD3) =    -0.2476720416D+00 E(B2PLYPD3) =    -0.19184236336418D+03

 The electronic state is 1-A.
 Alpha  occ. eigenvalues --  -19.72728 -10.70649 -10.65368 -10.63626  -1.17563
 Alpha  occ. eigenvalues --   -0.93642  -0.76914  -0.69790  -0.57902  -0.56036
 Alpha  occ. eigenvalues --   -0.50475  -0.46949  -0.45780  -0.34651  -0.34177
 Alpha virt. eigenvalues --   -0.02385   0.05555   0.07505   0.07952   0.09713
 Alpha virt. eigenvalues --    0.12549   0.14178   0.15340   0.18219   0.19789
 Alpha virt. eigenvalues --    0.20099   0.21459   0.24588   0.27038   0.28727

 Mulliken charges:
               1
     1  C    0.151849
     2  O   -0.370875
     3  C   -0.037645
     4  C   -0.127994
     5  H    0.115326
     6  H    0.082618
     7  H    0.090400
     8  H    0.096322
 Sum of Mulliken charges =   0.00000

 Dipole moment (field-independent basis, Debye):
    X=             -3.6291    Y=              0.9815    Z=              0.2556  Tot=              3.7682
 Quadrupole moment (field-independent basis, Debye-Ang):
   XX=            -27.4277   YY=            -21.7032   ZZ=            -25.0092
   XY=              1.0466   XZ=              0.5914   YZ=              0.0436

 Normal termination of Gaussian 09 at Wed Aug 26 13:28:53 2020.
