 Gaussian 09, Revision D.01,
 Gaussian 09:  ES64L-G09RevD.01 24-Apr-2013

 --------------------
 #p B2PLYPD3/Def2QZVP
 --------------------

 --------
 acrolein
 --------
 Symbolic Z-matrix:
 Charge =  0 Multiplicity = 1

                         Standard orientation:
 ---------------------------------------------------------------------
 Center     Atomic      Atomic             Coordinates (Angstroms)
 Number     Number       Type             X           Y           Z
 ---------------------------------------------------------------------
      1          6           0        0.685712    0.354954   -0.042281
      2          8           0        1.782786   -0.125114    0.029365
      3          6           0       -0.546457   -0.449549   -0.004639
      4          6           0       -1.767473    0.148100   -0.000334
      5          1           0       -0.432616   -1.554899   -0.019404
      6          1           0       -1.863602    1.225466    0.135215
      7          1           0       -2.739121   -0.452344   -0.005009
      8          1           0        0.542357    1.461662   -0.062200
 ---------------------------------------------------------------------

 SCF Done:  E(RB2PLYPD3) =  -191.611429800     A.U. after   13 cycles
 E2(B2PLYPD3) =    -0.2478166203D+00 E(B2PLYPD3) =    -0.19185924642059D+03

 The electronic state is 1-A.
 Alpha  occ. eigenvalues --  -19.72802 -10.71606 -10.66495 -10.65076  -1.20254
 Alpha  occ. eigenvalues --   -0.92007  -0.74815  -0.66501  -0.56473  -0.55650
 Alpha  occ. eigenvalues --   -0.50198  -0.47133  -0.46494  -0.34228  -0.33776
 Alpha virt. eigenvalues --   -0.01920   0.05605   0.06998   0.08073   0.09692
 Alpha virt. eigenvalues --    0.12308   0.13983   0.15381   0.17408   0.19640
 Alpha virt. eigenvalues --    0.20024   0.21213   0.25073   0.26322   0.28671

 Mulliken charges:
               1
     1  C    0.159291
     2  O   -0.340025
     3  C   -0.046640
     4  C   -0.133121
     5  H    0.105462
     6  H    0.087406
     7  H    0.098657
     8  H    0.068971
 Sum of Mulliken charges =   0.00000

 Dipole moment (field-independent basis, Debye):
    X=             -3.3813    Y=              0.7733    Z=             -0.0390  Tot=              3.4688
 Quadrupole moment (field-independent basis, Debye-Ang):
   XX=            -27.3621   YY=            -21.7452   ZZ=            -25.3983
   XY=              0.9581   XZ=             -0.3376   YZ=              0.1831

 Normal termination of Gaussian 09 at Wed Aug 26 10:02:27 2020.
