 Gaussian 09, Revision D.01,
 Gaussian 09:  ES64L-G09RevD.01 24-Apr-2013

 --------------------
 #p B2PLYPD3/Def2QZVP
 --------------------

 --------
 acrolein
 --------
 Symbolic Z-matrix:
 Charge =  0 Multiplicity = 1

                         Standard orientation:
 ---------------------------------------------------------------------
 Center     Atomic      Atomic             Coordinates (Angstroms)
 Number     Number       Type             X           Y           Z
 ---------------------------------------------------------------------
      1          6           0       -0.662837    0.340971   -0.012980
      2          8           0       -1.788259   -0.114536    0.006043
      3          6           0        0.571906   -0.455489   -0.007897
      4          6           0        1.749811    0.152477    0.006439
      5          1           0        0.417196   -1.560556    0.000577
      6          1           0        1.800065    1.220229   -0.035833
      7          1           0        2.676686   -0.406803    0.030576
      8          1           0       -0.541157    1.435668    0.042963
 ---------------------------------------------------------------------

 SCF Done:  E(RB2PLYPD3) =  -191.615641152     A.U. after   12 cycles
 E2(B2PLYPD3) =    -0.2472009167D+00 E(B2PLYPD3) =    -0.19186284206890D+03

 The electronic state is 1-A.
 Alpha  occ. eigenvalues --  -19.72687 -10.71443 -10.65346 -10.64744  -1.19223
 Alpha  occ. eigenvalues --   -0.93249  -0.75410  -0.66742  -0.56620  -0.56434
 Alpha  occ. eigenvalues --   -0.50419  -0.46841  -0.46617  -0.34869  -0.33726
 Alpha virt. eigenvalues --   -0.01688   0.05794   0.07014   0.08167   0.09766
 Alpha virt. eigenvalues --    0.12580   0.14012   0.15300   0.17182   0.19782
 Alpha virt. eigenvalues --    0.20131   0.21604   0.25397   0.26509   0.28941

 Mulliken charges:
               1
     1  C    0.156088
     2  O   -0.351956
     3  C   -0.035755
     4  C   -0.130521
     5  H    0.102726
     6  H    0.088666
     7  H    0.104227
     8  H    0.066524
 Sum of Mulliken charges =   0.00000

 Dipole moment (field-independent basis, Debye):
    X=              3.5158    Y=              0.7379    Z=             -0.0171  Tot=              3.5925
 Quadrupole moment (field-independent basis, Debye-Ang):
   XX=            -27.5233   YY=            -21.7076   ZZ=            -25.2117
   XY=             -0.8880   XZ=              0.0393   YZ=             -0.0472

 Normal termination of Gaussian 09 at Wed Aug 26 20:18:57 2020.
