 Gaussian 09, Revision D.01,
 Gaussian 09:  ES64L-G09RevD.01 24-Apr-2013

 --------------------
 #p B2PLYPD3/Def2QZVP
 --------------------

 --------
 acrolein
 --------
 Symbolic Z-matrix:
 Charge =  0 Multiplicity = 1

                         Standard orientation:
 ---------------------------------------------------------------------
 Center     Atomic      Atomic             Coordinates (Angstroms)
 Number     Number       Type             X           Y           Z
 ---------------------------------------------------------------------
      1          6           0        0.683416    0.366662   -0.058458
      2          8           0        1.747225   -0.141389    0.080325
      3          6           0       -0.529738   -0.438190   -0.079966
      4          6           0       -1.735402    0.138405    0.025754
      5          1           0       -0.480997   -1.380921   -0.188033
      6          1           0       -1.839970    1.158205    0.010091
      7          1           0       -2.756070   -0.426348    0.318491
      8          1           0        0.589579    1.378908   -0.107131
 ---------------------------------------------------------------------

 SCF Done:  E(RB2PLYPD3) =  -191.583090453     A.U. after   14 cycles
 E2(B2PLYPD3) =    -0.2453018288D+00 E(B2PLYPD3) =    -0.19182839228162D+03

 The electronic state is 1-A.
 Alpha  occ. eigenvalues --  -19.72319 -10.70188 -10.65728 -10.62711  -1.20923
 Alpha  occ. eigenvalues --   -0.93155  -0.75251  -0.70240  -0.58549  -0.55680
 Alpha  occ. eigenvalues --   -0.51042  -0.47836  -0.46619  -0.34277  -0.33662
 Alpha virt. eigenvalues --   -0.01381   0.05540   0.07589   0.08268   0.09626
 Alpha virt. eigenvalues --    0.12322   0.14218   0.15314   0.18620   0.19288
 Alpha virt. eigenvalues --    0.20114   0.21272   0.25282   0.26367   0.29031

 Mulliken charges:
               1
     1  C    0.143043
     2  O   -0.342083
     3  C   -0.049770
     4  C   -0.132489
     5  H    0.123574
     6  H    0.081487
     7  H    0.084662
     8  H    0.091577
 Sum of Mulliken charges =   0.00000

 Dipole moment (field-independent basis, Debye):
    X=             -3.2307    Y=              0.9488    Z=             -0.1809  Tot=              3.3720
 Quadrupole moment (field-independent basis, Debye-Ang):
   XX=            -27.2408   YY=            -21.7640   ZZ=            -24.8638
   XY=              1.0978   XZ=             -1.0877   YZ=              0.0278

 Normal termination of Gaussian 09 at Wed Aug 26 11:09:43 2020.
