 Gaussian 09, Revision D.01,
 Gaussian 09:  ES64L-G09RevD.01 24-Apr-2013

 --------------------
 #p B2PLYPD3/Def2QZVP
 --------------------

 --------
 acrolein
 --------
 Symbolic Z-matrix:
 Charge =  0 Multiplicity = 1

                         Standard orientation:
 ---------------------------------------------------------------------
 Center     Atomic      Atomic             Coordinates (Angstroms)
 Number     Number       Type             X           Y           Z
 ---------------------------------------------------------------------
      1          6           0        0.673343    0.343371    0.000864
      2          8           0        1.791539   -0.139584    0.035899
      3          6           0       -0.536464   -0.425728   -0.079038
      4          6           0       -1.769242    0.137317    0.013996
      5          1           0       -0.444836   -1.404251   -0.023279
      6          1           0       -1.746750    1.059921    0.019755
      7          1           0       -2.826850   -0.418518    0.196054
      8          1           0        0.480296    1.549760   -0.094654
 ---------------------------------------------------------------------

 SCF Done:  E(RB2PLYPD3) =  -191.563918700     A.U. after   13 cycles
 E2(B2PLYPD3) =    -0.2492022048D+00 E(B2PLYPD3) =    -0.19181312090483D+03

 The electronic state is 1-A.
 Alpha  occ. eigenvalues --  -19.73256 -10.72770 -10.65748 -10.63675  -1.19391
 Alpha  occ. eigenvalues --   -0.93981  -0.76636  -0.67869  -0.56554  -0.55889
 Alpha  occ. eigenvalues --   -0.49941  -0.48154  -0.46954  -0.34481  -0.33839
 Alpha virt. eigenvalues --   -0.02746   0.05450   0.06960   0.08180   0.09751
 Alpha virt. eigenvalues --    0.12146   0.13585   0.15256   0.17705   0.19405
 Alpha virt. eigenvalues --    0.20595   0.21416   0.24874   0.25837   0.28973

 Mulliken charges:
               1
     1  C    0.153989
     2  O   -0.346481
     3  C   -0.018302
     4  C   -0.143814
     5  H    0.109573
     6  H    0.103999
     7  H    0.104257
     8  H    0.036779
 Sum of Mulliken charges =   0.00000

 Dipole moment (field-independent basis, Debye):
    X=             -3.6358    Y=              0.6480    Z=              0.0754  Tot=              3.6938
 Quadrupole moment (field-independent basis, Debye-Ang):
   XX=            -26.7798   YY=            -22.3798   ZZ=            -25.1708
   XY=              1.0152   XZ=             -0.7274   YZ=             -0.1274

 Normal termination of Gaussian 09 at Wed Aug 26 10:44:56 2020.
