 Gaussian 09, Revision D.01,
 Gaussian 09:  ES64L-G09RevD.01 24-Apr-2013

 --------------------
 #p B2PLYPD3/Def2QZVP
 --------------------

 --------
 acrolein
 --------
 Symbolic Z-matrix:
 Charge =  0 Multiplicity = 1

                         Standard orientation:
 ---------------------------------------------------------------------
 Center     Atomic      Atomic             Coordinates (Angstroms)
 Number     Number       Type             X           Y           Z
 ---------------------------------------------------------------------
      1          6           0        0.676094    0.348499   -0.012942
      2          8           0        1.783338   -0.104339    0.031247
      3          6           0       -0.562161   -0.471787   -0.047820
      4          6           0       -1.751426    0.150913    0.010546
      5          1           0       -0.452763   -1.607121   -0.019983
      6          1           0       -1.904072    1.334841    0.041121
      7          1           0       -2.638126   -0.427000    0.122585
      8          1           0        0.553215    1.368245   -0.092403
 ---------------------------------------------------------------------

 SCF Done:  E(RB2PLYPD3) =  -191.602324857     A.U. after   12 cycles
 E2(B2PLYPD3) =    -0.2470357878D+00 E(B2PLYPD3) =    -0.19184936064470D+03

 The electronic state is 1-A.
 Alpha  occ. eigenvalues --  -19.72459 -10.70594 -10.66380 -10.65200  -1.20160
 Alpha  occ. eigenvalues --   -0.92190  -0.75126  -0.66987  -0.56365  -0.55752
 Alpha  occ. eigenvalues --   -0.50559  -0.46958  -0.45835  -0.34494  -0.33689
 Alpha virt. eigenvalues --   -0.01408   0.05499   0.06926   0.08073   0.09510
 Alpha virt. eigenvalues --    0.12322   0.14202   0.15382   0.17414   0.19093
 Alpha virt. eigenvalues --    0.19926   0.21627   0.25156   0.26606   0.28541

 Mulliken charges:
               1
     1  C    0.164827
     2  O   -0.344239
     3  C   -0.057526
     4  C   -0.128398
     5  H    0.101747
     6  H    0.080291
     7  H    0.102370
     8  H    0.080928
 Sum of Mulliken charges =   0.00000

 Dipole moment (field-independent basis, Debye):
    X=             -3.3949    Y=              0.7670    Z=              0.0062  Tot=              3.4805
 Quadrupole moment (field-independent basis, Debye-Ang):
   XX=            -27.6575   YY=            -21.4163   ZZ=            -25.3293
   XY=              0.8412   XZ=             -0.5421   YZ=             -0.0490

 Normal termination of Gaussian 09 at Wed Aug 26 08:38:41 2020.
