 Gaussian 09, Revision D.01,
 Gaussian 09:  ES64L-G09RevD.01 24-Apr-2013

 --------------------
 #p B2PLYPD3/Def2QZVP
 --------------------

 --------
 acrolein
 --------
 Symbolic Z-matrix:
 Charge =  0 Multiplicity = 1

                         Standard orientation:
 ---------------------------------------------------------------------
 Center     Atomic      Atomic             Coordinates (Angstroms)
 Number     Number       Type             X           Y           Z
 ---------------------------------------------------------------------
      1          6           0        0.661740    0.330405    0.022467
      2          8           0        1.807936   -0.103558   -0.023055
      3          6           0       -0.581808   -0.481371    0.017620
      4          6           0       -1.749655    0.145576   -0.034351
      5          1           0       -0.487355   -1.486392    0.015879
      6          1           0       -1.853309    1.290310   -0.069442
      7          1           0       -2.588921   -0.386795    0.089297
      8          1           0        0.484437    1.443674    0.114293
 ---------------------------------------------------------------------

 SCF Done:  E(RB2PLYPD3) =  -191.602707762     A.U. after   13 cycles
 E2(B2PLYPD3) =    -0.2477882133D+00 E(B2PLYPD3) =    -0.19185049597527D+03

 The electronic state is 1-A.
 Alpha  occ. eigenvalues --  -19.72915 -10.72050 -10.65258 -10.63979  -1.18522
 Alpha  occ. eigenvalues --   -0.93586  -0.75736  -0.67440  -0.57370  -0.55641
 Alpha  occ. eigenvalues --   -0.50639  -0.47720  -0.46111  -0.34906  -0.33699
 Alpha virt. eigenvalues --   -0.01873   0.05690   0.07248   0.07929   0.09657
 Alpha virt. eigenvalues --    0.12572   0.13929   0.15361   0.17656   0.19099
 Alpha virt. eigenvalues --    0.20084   0.21922   0.25062   0.26680   0.28651

 Mulliken charges:
               1
     1  C    0.158577
     2  O   -0.354433
     3  C   -0.047589
     4  C   -0.116911
     5  H    0.110217
     6  H    0.081987
     7  H    0.101448
     8  H    0.066705
 Sum of Mulliken charges =   0.00000

 Dipole moment (field-independent basis, Debye):
    X=             -3.6121    Y=              0.6365    Z=              0.1511  Tot=              3.6709
 Quadrupole moment (field-independent basis, Debye-Ang):
   XX=            -27.7366   YY=            -21.6419   ZZ=            -25.1542
   XY=              0.7567   XZ=             -0.0057   YZ=             -0.1040

 Normal termination of Gaussian 09 at Wed Aug 26 10:27:32 2020.
