 Gaussian 09, Revision D.01,
 Gaussian 09:  ES64L-G09RevD.01 24-Apr-2013

 --------------------
 #p B2PLYPD3/Def2QZVP
 --------------------

 --------
 acrolein
 --------
 Symbolic Z-matrix:
 Charge =  0 Multiplicity = 1

                         Standard orientation:
 ---------------------------------------------------------------------
 Center     Atomic      Atomic             Coordinates (Angstroms)
 Number     Number       Type             X           Y           Z
 ---------------------------------------------------------------------
      1          6           0        0.684391    0.353841   -0.047362
      2          8           0        1.755109   -0.142236    0.068044
      3          6           0       -0.542462   -0.434493   -0.057930
      4          6           0       -1.729020    0.167179    0.014234
      5          1           0       -0.398342   -1.537011   -0.163581
      6          1           0       -1.759564    1.099344    0.046005
      7          1           0       -2.952356   -0.440447    0.241735
      8          1           0        0.591940    1.496838   -0.122160
 ---------------------------------------------------------------------

 SCF Done:  E(RB2PLYPD3) =  -191.555928039     A.U. after   12 cycles
 E2(B2PLYPD3) =    -0.2478826687D+00 E(B2PLYPD3) =    -0.19180381070814D+03

 The electronic state is 1-A.
 Alpha  occ. eigenvalues --  -19.72879 -10.71757 -10.66422 -10.64837  -1.21344
 Alpha  occ. eigenvalues --   -0.93312  -0.74950  -0.67103  -0.58144  -0.54748
 Alpha  occ. eigenvalues --   -0.49920  -0.47760  -0.44739  -0.34828  -0.33718
 Alpha virt. eigenvalues --   -0.01453   0.04230   0.06662   0.08307   0.09510
 Alpha virt. eigenvalues --    0.11525   0.14091   0.15096   0.17271   0.19166
 Alpha virt. eigenvalues --    0.20171   0.21368   0.25223   0.25445   0.27977

 Mulliken charges:
               1
     1  C    0.145383
     2  O   -0.331120
     3  C   -0.025495
     4  C   -0.150661
     5  H    0.108480
     6  H    0.110253
     7  H    0.082543
     8  H    0.060618
 Sum of Mulliken charges =   0.00000

 Dipole moment (field-independent basis, Debye):
    X=             -3.1087    Y=              0.8374    Z=             -0.1463  Tot=              3.2228
 Quadrupole moment (field-independent basis, Debye-Ang):
   XX=            -27.3466   YY=            -22.0125   ZZ=            -25.2869
   XY=              0.9356   XZ=             -0.9085   YZ=              0.1235

 Normal termination of Gaussian 09 at Wed Aug 26 11:26:47 2020.
