 Gaussian 09, Revision D.01,
 Gaussian 09:  ES64L-G09RevD.01 24-Apr-2013

 --------------------
 #p B2PLYPD3/Def2QZVP
 --------------------

 --------
 acrolein
 --------
 Symbolic Z-matrix:
 Charge =  0 Multiplicity = 1

                         Standard orientation:
 ---------------------------------------------------------------------
 Center     Atomic      Atomic             Coordinates (Angstroms)
 Number     Number       Type             X           Y           Z
 ---------------------------------------------------------------------
      1          6           0       -0.652438    0.357547   -0.045324
      2          8           0       -1.800671   -0.129364    0.045804
      3          6           0        0.574569   -0.446277   -0.088794
      4          6           0        1.732463    0.144102    0.037009
      5          1           0        0.445898   -1.562051    0.050244
      6          1           0        1.711952    1.205021   -0.022171
      7          1           0        2.753071   -0.417653    0.157196
      8          1           0       -0.433114    1.477366    0.030956
 ---------------------------------------------------------------------

 SCF Done:  E(RB2PLYPD3) =  -191.600156986     A.U. after   13 cycles
 E2(B2PLYPD3) =    -0.2501645664D+00 E(B2PLYPD3) =    -0.19185032155245D+03

 The electronic state is 1-A.
 Alpha  occ. eigenvalues --  -19.73198 -10.72769 -10.65990 -10.64692  -1.17358
 Alpha  occ. eigenvalues --   -0.94055  -0.74968  -0.66376  -0.55852  -0.55736
 Alpha  occ. eigenvalues --   -0.49908  -0.46035  -0.45642  -0.35242  -0.34095
 Alpha virt. eigenvalues --   -0.02065   0.05499   0.06479   0.07529   0.09812
 Alpha virt. eigenvalues --    0.12409   0.13483   0.14985   0.17131   0.19712
 Alpha virt. eigenvalues --    0.20349   0.21096   0.24383   0.26856   0.29141

 Mulliken charges:
               1
     1  C    0.155433
     2  O   -0.364445
     3  C   -0.026906
     4  C   -0.120024
     5  H    0.103964
     6  H    0.082613
     7  H    0.103186
     8  H    0.066178
 Sum of Mulliken charges =   0.00000

 Dipole moment (field-independent basis, Debye):
    X=              3.6713    Y=              0.7877    Z=              0.0214  Tot=              3.7549
 Quadrupole moment (field-independent basis, Debye-Ang):
   XX=            -27.7460   YY=            -21.8739   ZZ=            -25.3266
   XY=             -1.0375   XZ=              0.6032   YZ=             -0.2270

 Normal termination of Gaussian 09 at Wed Aug 26 12:21:52 2020.
