 Gaussian 09, Revision D.01,
 Gaussian 09:  ES64L-G09RevD.01 24-Apr-2013

 --------------------
 #p B2PLYPD3/Def2QZVP
 --------------------

 --------
 acrolein
 --------
 Symbolic Z-matrix:
 Charge =  0 Multiplicity = 1

                         Standard orientation:
 ---------------------------------------------------------------------
 Center     Atomic      Atomic             Coordinates (Angstroms)
 Number     Number       Type             X           Y           Z
 ---------------------------------------------------------------------
      1          6           0       -0.661879    0.331306    0.019108
      2          8           0       -1.794104   -0.105201   -0.018046
      3          6           0        0.557751   -0.474128    0.050205
      4          6           0        1.745877    0.163074   -0.028143
      5          1           0        0.477515   -1.576506   -0.073649
      6          1           0        1.794417    1.276517    0.019298
      7          1           0        2.751518   -0.403965   -0.024743
      8          1           0       -0.521108    1.424048   -0.023560
 ---------------------------------------------------------------------

 SCF Done:  E(RB2PLYPD3) =  -191.609190856     A.U. after   13 cycles
 E2(B2PLYPD3) =    -0.2485257635D+00 E(B2PLYPD3) =    -0.19185771661929D+03

 The electronic state is 1-A.
 Alpha  occ. eigenvalues --  -19.72582 -10.71477 -10.67013 -10.65157  -1.19174
 Alpha  occ. eigenvalues --   -0.92714  -0.74699  -0.66639  -0.56270  -0.55614
 Alpha  occ. eigenvalues --   -0.49822  -0.46788  -0.46261  -0.34599  -0.33708
 Alpha virt. eigenvalues --   -0.02012   0.05513   0.06772   0.07921   0.09618
 Alpha virt. eigenvalues --    0.12343   0.13853   0.15203   0.17522   0.19756
 Alpha virt. eigenvalues --    0.19876   0.21011   0.24730   0.26530   0.29053

 Mulliken charges:
               1
     1  C    0.151325
     2  O   -0.349633
     3  C   -0.037217
     4  C   -0.122695
     5  H    0.106998
     6  H    0.085345
     7  H    0.097958
     8  H    0.067921
 Sum of Mulliken charges =   0.00000

 Dipole moment (field-independent basis, Debye):
    X=              3.5895    Y=              0.7062    Z=             -0.0223  Tot=              3.6584
 Quadrupole moment (field-independent basis, Debye-Ang):
   XX=            -27.5810   YY=            -21.6935   ZZ=            -25.4045
   XY=             -0.9036   XZ=             -0.1626   YZ=              0.1687

 Normal termination of Gaussian 09 at Wed Aug 26 09:59:53 2020.
