 Gaussian 09, Revision D.01,
 Gaussian 09:  ES64L-G09RevD.01 24-Apr-2013

 --------------------
 #p B2PLYPD3/Def2QZVP
 --------------------

 --------
 acrolein
 --------
 Symbolic Z-matrix:
 Charge =  0 Multiplicity = 1

                         Standard orientation:
 ---------------------------------------------------------------------
 Center     Atomic      Atomic             Coordinates (Angstroms)
 Number     Number       Type             X           Y           Z
 ---------------------------------------------------------------------
      1          6           0       -0.691571    0.391538   -0.021441
      2          8           0       -1.775873   -0.152447    0.016821
      3          6           0        0.550094   -0.428751   -0.051982
      4          6           0        1.777045    0.108218    0.023870
      5          1           0        0.411475   -1.510709    0.103847
      6          1           0        1.892077    1.225695    0.021790
      7          1           0        2.692783   -0.402747    0.001661
      8          1           0       -0.602757    1.481306    0.035444
 ---------------------------------------------------------------------

 SCF Done:  E(RB2PLYPD3) =  -191.610791932     A.U. after   13 cycles
 E2(B2PLYPD3) =    -0.2476249650D+00 E(B2PLYPD3) =    -0.19185841689658D+03

 The electronic state is 1-A.
 Alpha  occ. eigenvalues --  -19.72884 -10.71853 -10.65437 -10.64769  -1.19529
 Alpha  occ. eigenvalues --   -0.92097  -0.75310  -0.66935  -0.56912  -0.55961
 Alpha  occ. eigenvalues --   -0.50907  -0.46836  -0.45476  -0.34520  -0.33859
 Alpha virt. eigenvalues --   -0.01781   0.05728   0.07238   0.07807   0.09676
 Alpha virt. eigenvalues --    0.12156   0.14011   0.15405   0.17728   0.19505
 Alpha virt. eigenvalues --    0.19772   0.21744   0.24995   0.26581   0.29136

 Mulliken charges:
               1
     1  C    0.159428
     2  O   -0.345971
     3  C   -0.060888
     4  C   -0.120732
     5  H    0.109911
     6  H    0.066828
     7  H    0.104532
     8  H    0.086891
 Sum of Mulliken charges =   0.00000

 Dipole moment (field-independent basis, Debye):
    X=              3.3363    Y=              0.9504    Z=              0.0709  Tot=              3.4697
 Quadrupole moment (field-independent basis, Debye-Ang):
   XX=            -27.1664   YY=            -21.7560   ZZ=            -25.2985
   XY=             -1.2263   XZ=              0.1794   YZ=             -0.1450

 Normal termination of Gaussian 09 at Wed Aug 26 13:33:05 2020.
