 Gaussian 09, Revision D.01,
 Gaussian 09:  ES64L-G09RevD.01 24-Apr-2013

 --------------------
 #p B2PLYPD3/Def2QZVP
 --------------------

 --------
 acrolein
 --------
 Symbolic Z-matrix:
 Charge =  0 Multiplicity = 1

                         Standard orientation:
 ---------------------------------------------------------------------
 Center     Atomic      Atomic             Coordinates (Angstroms)
 Number     Number       Type             X           Y           Z
 ---------------------------------------------------------------------
      1          6           0        0.679731    0.362530   -0.039101
      2          8           0        1.768829   -0.132106    0.037442
      3          6           0       -0.531424   -0.438883   -0.041349
      4          6           0       -1.756963    0.131084    0.036699
      5          1           0       -0.430751   -1.514241   -0.073016
      6          1           0       -1.822411    1.240915   -0.068317
      7          1           0       -2.743753   -0.457557    0.099708
      8          1           0        0.498222    1.459349    0.004596
 ---------------------------------------------------------------------

 SCF Done:  E(RB2PLYPD3) =  -191.610051936     A.U. after   13 cycles
 E2(B2PLYPD3) =    -0.2477579955D+00 E(B2PLYPD3) =    -0.19185780993163D+03

 The electronic state is 1-A.
 Alpha  occ. eigenvalues --  -19.72794 -10.71440 -10.66733 -10.64374  -1.20362
 Alpha  occ. eigenvalues --   -0.92404  -0.74898  -0.66798  -0.56294  -0.55832
 Alpha  occ. eigenvalues --   -0.50361  -0.47403  -0.46157  -0.34202  -0.33957
 Alpha virt. eigenvalues --   -0.01893   0.05538   0.07060   0.08150   0.09747
 Alpha virt. eigenvalues --    0.12259   0.13910   0.15376   0.17685   0.19567
 Alpha virt. eigenvalues --    0.20036   0.21050   0.25146   0.26500   0.28914

 Mulliken charges:
               1
     1  C    0.157496
     2  O   -0.340995
     3  C   -0.039720
     4  C   -0.133542
     5  H    0.107024
     6  H    0.079748
     7  H    0.101608
     8  H    0.068383
 Sum of Mulliken charges =   0.00000

 Dipole moment (field-independent basis, Debye):
    X=             -3.3889    Y=              0.7654    Z=             -0.1591  Tot=              3.4779
 Quadrupole moment (field-independent basis, Debye-Ang):
   XX=            -27.2549   YY=            -21.8443   ZZ=            -25.3369
   XY=              1.0925   XZ=             -0.2848   YZ=             -0.0643

 Normal termination of Gaussian 09 at Wed Aug 26 10:23:47 2020.
