 Gaussian 09, Revision D.01,
 Gaussian 09:  ES64L-G09RevD.01 24-Apr-2013

 --------------------
 #p B2PLYPD3/Def2QZVP
 --------------------

 --------
 acrolein
 --------
 Symbolic Z-matrix:
 Charge =  0 Multiplicity = 1

                         Standard orientation:
 ---------------------------------------------------------------------
 Center     Atomic      Atomic             Coordinates (Angstroms)
 Number     Number       Type             X           Y           Z
 ---------------------------------------------------------------------
      1          6           0       -0.665640    0.329959   -0.042450
      2          8           0       -1.809404   -0.110314    0.034577
      3          6           0        0.573616   -0.462444   -0.012780
      4          6           0        1.747503    0.156540    0.005202
      5          1           0        0.470949   -1.486535   -0.042452
      6          1           0        1.819613    1.255124    0.116551
      7          1           0        2.711447   -0.462560    0.033141
      8          1           0       -0.459656    1.432157   -0.083686
 ---------------------------------------------------------------------

 SCF Done:  E(RB2PLYPD3) =  -191.609305264     A.U. after   13 cycles
 E2(B2PLYPD3) =    -0.2484330368D+00 E(B2PLYPD3) =    -0.19185773830096D+03

 The electronic state is 1-A.
 Alpha  occ. eigenvalues --  -19.73016 -10.72004 -10.66477 -10.64040  -1.18506
 Alpha  occ. eigenvalues --   -0.93460  -0.75034  -0.67432  -0.56051  -0.55917
 Alpha  occ. eigenvalues --   -0.50373  -0.47027  -0.46274  -0.34934  -0.33839
 Alpha virt. eigenvalues --   -0.02015   0.05504   0.07104   0.07929   0.09697
 Alpha virt. eigenvalues --    0.12481   0.13609   0.15215   0.17797   0.19414
 Alpha virt. eigenvalues --    0.20025   0.21254   0.25079   0.26563   0.28653

 Mulliken charges:
               1
     1  C    0.157683
     2  O   -0.356468
     3  C   -0.033585
     4  C   -0.125159
     5  H    0.108610
     6  H    0.089318
     7  H    0.096073
     8  H    0.063528
 Sum of Mulliken charges =   0.00000

 Dipole moment (field-independent basis, Debye):
    X=              3.6112    Y=              0.6677    Z=             -0.0664  Tot=              3.6730
 Quadrupole moment (field-independent basis, Debye-Ang):
   XX=            -27.7800   YY=            -21.7698   ZZ=            -25.2633
   XY=             -0.8339   XZ=              0.4014   YZ=              0.1626

 Normal termination of Gaussian 09 at Wed Aug 26 09:07:55 2020.
