 Gaussian 09, Revision D.01,
 Gaussian 09:  ES64L-G09RevD.01 24-Apr-2013

 --------------------
 #p B2PLYPD3/Def2QZVP
 --------------------

 --------
 acrolein
 --------
 Symbolic Z-matrix:
 Charge =  0 Multiplicity = 1

                         Standard orientation:
 ---------------------------------------------------------------------
 Center     Atomic      Atomic             Coordinates (Angstroms)
 Number     Number       Type             X           Y           Z
 ---------------------------------------------------------------------
      1          6           0       -0.670438    0.331770    0.031593
      2          8           0       -1.778975   -0.110615   -0.019942
      3          6           0        0.540171   -0.443572   -0.018534
      4          6           0        1.757764    0.136816   -0.023328
      5          1           0        0.404874   -1.510439    0.098241
      6          1           0        1.812835    1.239310   -0.035869
      7          1           0        2.739393   -0.429425    0.078175
      8          1           0       -0.490282    1.435384    0.080603
 ---------------------------------------------------------------------

 SCF Done:  E(RB2PLYPD3) =  -191.611725236     A.U. after   13 cycles
 E2(B2PLYPD3) =    -0.2473207293D+00 E(B2PLYPD3) =    -0.19185904596577D+03

 The electronic state is 1-A.
 Alpha  occ. eigenvalues --  -19.72737 -10.71164 -10.66733 -10.64369  -1.20501
 Alpha  occ. eigenvalues --   -0.92918  -0.75421  -0.66664  -0.56513  -0.56008
 Alpha  occ. eigenvalues --   -0.50612  -0.47487  -0.46382  -0.34532  -0.33781
 Alpha virt. eigenvalues --   -0.02082   0.05614   0.07062   0.08570   0.09745
 Alpha virt. eigenvalues --    0.12411   0.13875   0.15268   0.17689   0.19599
 Alpha virt. eigenvalues --    0.19897   0.21230   0.25235   0.26629   0.28977

 Mulliken charges:
               1
     1  C    0.156132
     2  O   -0.340585
     3  C   -0.028090
     4  C   -0.129855
     5  H    0.102333
     6  H    0.083220
     7  H    0.103656
     8  H    0.053189
 Sum of Mulliken charges =   0.00000

 Dipole moment (field-independent basis, Debye):
    X=              3.4934    Y=              0.6628    Z=              0.2323  Tot=              3.5633
 Quadrupole moment (field-independent basis, Debye-Ang):
   XX=            -27.1325   YY=            -22.0411   ZZ=            -25.2472
   XY=             -0.8217   XZ=              0.1144   YZ=             -0.2190

 Normal termination of Gaussian 09 at Wed Aug 26 10:14:35 2020.
