 Gaussian 09, Revision D.01,
 Gaussian 09:  ES64L-G09RevD.01 24-Apr-2013

 --------------------
 #p B2PLYPD3/Def2QZVP
 --------------------

 --------
 acrolein
 --------
 Symbolic Z-matrix:
 Charge =  0 Multiplicity = 1

                         Standard orientation:
 ---------------------------------------------------------------------
 Center     Atomic      Atomic             Coordinates (Angstroms)
 Number     Number       Type             X           Y           Z
 ---------------------------------------------------------------------
      1          6           0        0.684765    0.387176    0.061008
      2          8           0        1.793057   -0.161317   -0.072217
      3          6           0       -0.544118   -0.417865    0.020685
      4          6           0       -1.787200    0.119915   -0.027183
      5          1           0       -0.433773   -1.530424    0.274219
      6          1           0       -1.779279    1.150204   -0.175160
      7          1           0       -2.675037   -0.499477   -0.098280
      8          1           0        0.422954    1.634874    0.249896
 ---------------------------------------------------------------------

 SCF Done:  E(RB2PLYPD3) =  -191.584921730     A.U. after   13 cycles
 E2(B2PLYPD3) =    -0.2522278160D+00 E(B2PLYPD3) =    -0.19183714954592D+03

 The electronic state is 1-A.
 Alpha  occ. eigenvalues --  -19.73953 -10.74306 -10.65498 -10.65384  -1.18364
 Alpha  occ. eigenvalues --   -0.92622  -0.75494  -0.64699  -0.56709  -0.54785
 Alpha  occ. eigenvalues --   -0.50458  -0.47078  -0.44926  -0.34517  -0.33964
 Alpha virt. eigenvalues --   -0.02717   0.05354   0.06016   0.07530   0.09768
 Alpha virt. eigenvalues --    0.12344   0.12861   0.14515   0.17252   0.19108
 Alpha virt. eigenvalues --    0.20339   0.21611   0.24138   0.26485   0.28654

 Mulliken charges:
               1
     1  C    0.160781
     2  O   -0.344142
     3  C   -0.026497
     4  C   -0.130285
     5  H    0.097949
     6  H    0.080262
     7  H    0.111835
     8  H    0.050098
 Sum of Mulliken charges =   0.00000

 Dipole moment (field-independent basis, Debye):
    X=             -3.4850    Y=              0.7401    Z=              0.2910  Tot=              3.5746
 Quadrupole moment (field-independent basis, Debye-Ang):
   XX=            -27.5076   YY=            -22.1001   ZZ=            -25.4862
   XY=              1.2023   XZ=              0.6592   YZ=             -0.3847

 Normal termination of Gaussian 09 at Wed Aug 26 11:40:17 2020.
