 Gaussian 09, Revision D.01,
 Gaussian 09:  ES64L-G09RevD.01 24-Apr-2013

 --------------------
 #p B2PLYPD3/Def2QZVP
 --------------------

 --------
 acrolein
 --------
 Symbolic Z-matrix:
 Charge =  0 Multiplicity = 1

                         Standard orientation:
 ---------------------------------------------------------------------
 Center     Atomic      Atomic             Coordinates (Angstroms)
 Number     Number       Type             X           Y           Z
 ---------------------------------------------------------------------
      1          6           0       -0.668958    0.338286    0.021313
      2          8           0       -1.782144   -0.116077   -0.015533
      3          6           0        0.552677   -0.441241    0.012502
      4          6           0        1.760034    0.137954   -0.008962
      5          1           0        0.410492   -1.528689    0.012901
      6          1           0        1.815848    1.205948   -0.004917
      7          1           0        2.676488   -0.415695   -0.030075
      8          1           0       -0.508196    1.457058   -0.002758
 ---------------------------------------------------------------------

 SCF Done:  E(RB2PLYPD3) =  -191.616190063     A.U. after   12 cycles
 E2(B2PLYPD3) =    -0.2470175964D+00 E(B2PLYPD3) =    -0.19186320765928D+03

 The electronic state is 1-A.
 Alpha  occ. eigenvalues --  -19.72796 -10.71473 -10.65505 -10.64492  -1.20005
 Alpha  occ. eigenvalues --   -0.93151  -0.75898  -0.66527  -0.56811  -0.56439
 Alpha  occ. eigenvalues --   -0.50740  -0.47151  -0.46901  -0.34671  -0.33774
 Alpha virt. eigenvalues --   -0.01955   0.05810   0.07110   0.08515   0.09809
 Alpha virt. eigenvalues --    0.12591   0.13973   0.15358   0.17310   0.19885
 Alpha virt. eigenvalues --    0.19987   0.21657   0.25549   0.26411   0.28870

 Mulliken charges:
               1
     1  C    0.158299
     2  O   -0.344842
     3  C   -0.029862
     4  C   -0.132450
     5  H    0.100579
     6  H    0.086197
     7  H    0.107199
     8  H    0.054881
 Sum of Mulliken charges =   0.00000

 Dipole moment (field-independent basis, Debye):
    X=              3.5110    Y=              0.6829    Z=              0.0376  Tot=              3.5770
 Quadrupole moment (field-independent basis, Debye-Ang):
   XX=            -27.1943   YY=            -21.9359   ZZ=            -25.1933
   XY=             -0.8613   XZ=             -0.1491   YZ=             -0.0066

 Normal termination of Gaussian 09 at Wed Aug 26 21:21:19 2020.
