 Gaussian 09, Revision D.01,
 Gaussian 09:  ES64L-G09RevD.01 24-Apr-2013

 --------------------
 #p B2PLYPD3/Def2QZVP
 --------------------

 --------
 acrolein
 --------
 Symbolic Z-matrix:
 Charge =  0 Multiplicity = 1

                         Standard orientation:
 ---------------------------------------------------------------------
 Center     Atomic      Atomic             Coordinates (Angstroms)
 Number     Number       Type             X           Y           Z
 ---------------------------------------------------------------------
      1          6           0        0.682494    0.352198    0.037572
      2          8           0        1.788812   -0.149752   -0.040133
      3          6           0       -0.527097   -0.395246   -0.002258
      4          6           0       -1.782844    0.108855   -0.005812
      5          1           0       -0.436978   -1.398309    0.152872
      6          1           0       -1.829734    1.091543   -0.182358
      7          1           0       -2.707084   -0.486879   -0.003197
      8          1           0        0.427977    1.596823    0.176741
 ---------------------------------------------------------------------

 SCF Done:  E(RB2PLYPD3) =  -191.586921312     A.U. after   13 cycles
 E2(B2PLYPD3) =    -0.2495829311D+00 E(B2PLYPD3) =    -0.19183650424360D+03

 The electronic state is 1-A.
 Alpha  occ. eigenvalues --  -19.73692 -10.73240 -10.65436 -10.63743  -1.19774
 Alpha  occ. eigenvalues --   -0.93685  -0.76886  -0.66505  -0.57002  -0.55848
 Alpha  occ. eigenvalues --   -0.50940  -0.47758  -0.46448  -0.34608  -0.33876
 Alpha virt. eigenvalues --   -0.02939   0.05702   0.06789   0.08346   0.09926
 Alpha virt. eigenvalues --    0.12427   0.13187   0.14933   0.17658   0.19449
 Alpha virt. eigenvalues --    0.20432   0.21613   0.24465   0.26527   0.28667

 Mulliken charges:
               1
     1  C    0.157754
     2  O   -0.338184
     3  C   -0.015023
     4  C   -0.128237
     5  H    0.102972
     6  H    0.085588
     7  H    0.106633
     8  H    0.028497
 Sum of Mulliken charges =   0.00000

 Dipole moment (field-independent basis, Debye):
    X=             -3.5971    Y=              0.5611    Z=              0.1422  Tot=              3.6434
 Quadrupole moment (field-independent basis, Debye-Ang):
   XX=            -26.7569   YY=            -22.5485   ZZ=            -25.1746
   XY=              1.0261   XZ=              0.3501   YZ=             -0.3597

 Normal termination of Gaussian 09 at Wed Aug 26 14:14:50 2020.
