 Gaussian 09, Revision D.01,
 Gaussian 09:  ES64L-G09RevD.01 24-Apr-2013

 --------------------
 #p B2PLYPD3/Def2QZVP
 --------------------

 --------
 acrolein
 --------
 Symbolic Z-matrix:
 Charge =  0 Multiplicity = 1

                         Standard orientation:
 ---------------------------------------------------------------------
 Center     Atomic      Atomic             Coordinates (Angstroms)
 Number     Number       Type             X           Y           Z
 ---------------------------------------------------------------------
      1          6           0        0.696296    0.381669   -0.052234
      2          8           0        1.762858   -0.147952    0.062696
      3          6           0       -0.550963   -0.441820   -0.071608
      4          6           0       -1.783828    0.142797    0.026990
      5          1           0       -0.413359   -1.498816   -0.103739
      6          1           0       -1.834515    1.189294    0.009941
      7          1           0       -2.641987   -0.461900    0.228710
      8          1           0        0.617965    1.459162   -0.055370
 ---------------------------------------------------------------------

 SCF Done:  E(RB2PLYPD3) =  -191.611563637     A.U. after   13 cycles
 E2(B2PLYPD3) =    -0.2467293343D+00 E(B2PLYPD3) =    -0.19185829297112D+03

 The electronic state is 1-A.
 Alpha  occ. eigenvalues --  -19.72654 -10.71312 -10.65077 -10.64585  -1.20458
 Alpha  occ. eigenvalues --   -0.91747  -0.75116  -0.67679  -0.57180  -0.56001
 Alpha  occ. eigenvalues --   -0.50496  -0.47951  -0.46891  -0.33878  -0.33631
 Alpha virt. eigenvalues --   -0.01587   0.05884   0.07416   0.07842   0.09844
 Alpha virt. eigenvalues --    0.12408   0.13899   0.15487   0.17752   0.19676
 Alpha virt. eigenvalues --    0.19873   0.21837   0.25004   0.26405   0.29036

 Mulliken charges:
               1
     1  C    0.153749
     2  O   -0.340911
     3  C   -0.057487
     4  C   -0.144658
     5  H    0.112223
     6  H    0.089131
     7  H    0.105124
     8  H    0.082828
 Sum of Mulliken charges =   0.00000

 Dipole moment (field-independent basis, Debye):
    X=             -3.1876    Y=              0.9057    Z=             -0.0893  Tot=              3.3149
 Quadrupole moment (field-independent basis, Debye-Ang):
   XX=            -27.4717   YY=            -21.5168   ZZ=            -25.2352
   XY=              1.2668   XZ=             -0.8612   YZ=             -0.0430

 Normal termination of Gaussian 09 at Wed Aug 26 11:58:36 2020.
