 Gaussian 09, Revision D.01,
 Gaussian 09:  ES64L-G09RevD.01 24-Apr-2013

 --------------------
 #p B2PLYPD3/Def2QZVP
 --------------------

 --------
 acrolein
 --------
 Symbolic Z-matrix:
 Charge =  0 Multiplicity = 1

                         Standard orientation:
 ---------------------------------------------------------------------
 Center     Atomic      Atomic             Coordinates (Angstroms)
 Number     Number       Type             X           Y           Z
 ---------------------------------------------------------------------
      1          6           0        0.662202    0.349050    0.016593
      2          8           0        1.789233   -0.128169   -0.020876
      3          6           0       -0.550313   -0.434407    0.012378
      4          6           0       -1.754085    0.131030   -0.008721
      5          1           0       -0.448095   -1.516336    0.059818
      6          1           0       -1.795080    1.206097   -0.032020
      7          1           0       -2.701779   -0.428089   -0.044795
      8          1           0        0.484268    1.489644    0.062506
 ---------------------------------------------------------------------

 SCF Done:  E(RB2PLYPD3) =  -191.613277664     A.U. after   12 cycles
 E2(B2PLYPD3) =    -0.2483700249D+00 E(B2PLYPD3) =    -0.19186164768907D+03

 The electronic state is 1-A.
 Alpha  occ. eigenvalues --  -19.72967 -10.72142 -10.65780 -10.64342  -1.18806
 Alpha  occ. eigenvalues --   -0.93510  -0.75713  -0.66462  -0.56546  -0.56161
 Alpha  occ. eigenvalues --   -0.50353  -0.46842  -0.46351  -0.34788  -0.33980
 Alpha virt. eigenvalues --   -0.02186   0.05684   0.06899   0.08292   0.09785
 Alpha virt. eigenvalues --    0.12467   0.13838   0.15278   0.17339   0.19793
 Alpha virt. eigenvalues --    0.20027   0.21401   0.25550   0.26291   0.29045

 Mulliken charges:
               1
     1  C    0.155133
     2  O   -0.353204
     3  C   -0.025273
     4  C   -0.127183
     5  H    0.102898
     6  H    0.081707
     7  H    0.106144
     8  H    0.059779
 Sum of Mulliken charges =   0.00000

 Dipole moment (field-independent basis, Debye):
    X=             -3.6159    Y=              0.7145    Z=              0.0717  Tot=              3.6865
 Quadrupole moment (field-independent basis, Debye-Ang):
   XX=            -27.3393   YY=            -21.9264   ZZ=            -25.2532
   XY=              1.0278   XZ=              0.2299   YZ=             -0.0671

 Normal termination of Gaussian 09 at Wed Aug 26 09:17:44 2020.
