 Gaussian 09, Revision D.01,
 Gaussian 09:  ES64L-G09RevD.01 24-Apr-2013

 --------------------
 #p B2PLYPD3/Def2QZVP
 --------------------

 --------
 acrolein
 --------
 Symbolic Z-matrix:
 Charge =  0 Multiplicity = 1

                         Standard orientation:
 ---------------------------------------------------------------------
 Center     Atomic      Atomic             Coordinates (Angstroms)
 Number     Number       Type             X           Y           Z
 ---------------------------------------------------------------------
      1          6           0       -0.691109    0.358109    0.004343
      2          8           0       -1.780549   -0.132547   -0.016549
      3          6           0        0.550588   -0.453196    0.003481
      4          6           0        1.763682    0.127863   -0.032258
      5          1           0        0.463733   -1.418419    0.107705
      6          1           0        1.846116    1.216241   -0.005020
      7          1           0        2.694329   -0.411814    0.049916
      8          1           0       -0.498746    1.477708    0.126390
 ---------------------------------------------------------------------

 SCF Done:  E(RB2PLYPD3) =  -191.605682564     A.U. after   13 cycles
 E2(B2PLYPD3) =    -0.2465767460D+00 E(B2PLYPD3) =    -0.19185225931015D+03

 The electronic state is 1-A.
 Alpha  occ. eigenvalues --  -19.73097 -10.71956 -10.65440 -10.63352  -1.20709
 Alpha  occ. eigenvalues --   -0.92703  -0.75105  -0.67913  -0.56761  -0.56327
 Alpha  occ. eigenvalues --   -0.51196  -0.47748  -0.47027  -0.34439  -0.33784
 Alpha virt. eigenvalues --   -0.01610   0.05790   0.07382   0.08220   0.09744
 Alpha virt. eigenvalues --    0.12527   0.13910   0.15422   0.18172   0.19514
 Alpha virt. eigenvalues --    0.19955   0.21374   0.25216   0.26601   0.28784

 Mulliken charges:
               1
     1  C    0.156777
     2  O   -0.334858
     3  C   -0.050928
     4  C   -0.127180
     5  H    0.115033
     6  H    0.076900
     7  H    0.096993
     8  H    0.067263
 Sum of Mulliken charges =   0.00000

 Dipole moment (field-independent basis, Debye):
    X=              3.3179    Y=              0.7357    Z=              0.2218  Tot=              3.4057
 Quadrupole moment (field-independent basis, Debye-Ang):
   XX=            -27.1493   YY=            -21.9439   ZZ=            -25.1427
   XY=             -0.9622   XZ=              0.1139   YZ=             -0.1269

 Normal termination of Gaussian 09 at Wed Aug 26 09:45:28 2020.
