 Gaussian 09, Revision D.01,
 Gaussian 09:  ES64L-G09RevD.01 24-Apr-2013

 --------------------
 #p B2PLYPD3/Def2QZVP
 --------------------

 --------
 acrolein
 --------
 Symbolic Z-matrix:
 Charge =  0 Multiplicity = 1

                         Standard orientation:
 ---------------------------------------------------------------------
 Center     Atomic      Atomic             Coordinates (Angstroms)
 Number     Number       Type             X           Y           Z
 ---------------------------------------------------------------------
      1          6           0        0.689763    0.386202   -0.026488
      2          8           0        1.775316   -0.158903    0.047489
      3          6           0       -0.540244   -0.428459   -0.063550
      4          6           0       -1.769568    0.111384    0.007499
      5          1           0       -0.365741   -1.492603   -0.097048
      6          1           0       -1.814663    1.155178   -0.018771
      7          1           0       -2.798334   -0.427898    0.265728
      8          1           0        0.496505    1.621783   -0.034592
 ---------------------------------------------------------------------

 SCF Done:  E(RB2PLYPD3) =  -191.592707740     A.U. after   13 cycles
 E2(B2PLYPD3) =    -0.2499624853D+00 E(B2PLYPD3) =    -0.19184267022550D+03

 The electronic state is 1-A.
 Alpha  occ. eigenvalues --  -19.73556 -10.73449 -10.66283 -10.64758  -1.19764
 Alpha  occ. eigenvalues --   -0.92439  -0.74630  -0.65754  -0.55953  -0.55397
 Alpha  occ. eigenvalues --   -0.50146  -0.47183  -0.45988  -0.34430  -0.33879
 Alpha virt. eigenvalues --   -0.02121   0.05370   0.06703   0.07794   0.09828
 Alpha virt. eigenvalues --    0.11822   0.13496   0.15315   0.17176   0.19244
 Alpha virt. eigenvalues --    0.20139   0.21444   0.25038   0.26119   0.28824

 Mulliken charges:
               1
     1  C    0.165815
     2  O   -0.340740
     3  C   -0.039934
     4  C   -0.127367
     5  H    0.110847
     6  H    0.081768
     7  H    0.101101
     8  H    0.048510
 Sum of Mulliken charges =   0.00000

 Dipole moment (field-independent basis, Debye):
    X=             -3.3452    Y=              0.7835    Z=             -0.0045  Tot=              3.4357
 Quadrupole moment (field-independent basis, Debye-Ang):
   XX=            -27.0968   YY=            -22.1559   ZZ=            -25.4339
   XY=              0.9574   XZ=             -0.8466   YZ=             -0.0688

 Normal termination of Gaussian 09 at Wed Aug 26 13:51:17 2020.
