 Gaussian 09, Revision D.01,
 Gaussian 09:  ES64L-G09RevD.01 24-Apr-2013

 --------------------
 #p B2PLYPD3/Def2QZVP
 --------------------

 --------
 acrolein
 --------
 Symbolic Z-matrix:
 Charge =  0 Multiplicity = 1

                         Standard orientation:
 ---------------------------------------------------------------------
 Center     Atomic      Atomic             Coordinates (Angstroms)
 Number     Number       Type             X           Y           Z
 ---------------------------------------------------------------------
      1          6           0       -0.673055    0.356851    0.003764
      2          8           0       -1.783426   -0.120938   -0.015562
      3          6           0        0.549718   -0.458302    0.025756
      4          6           0        1.760671    0.137992   -0.020398
      5          1           0        0.421799   -1.538829    0.033449
      6          1           0        1.844358    1.236214    0.018469
      7          1           0        2.694334   -0.410433   -0.035885
      8          1           0       -0.517087    1.461308    0.053727
 ---------------------------------------------------------------------

 SCF Done:  E(RB2PLYPD3) =  -191.615708368     A.U. after   12 cycles
 E2(B2PLYPD3) =    -0.2476434960D+00 E(B2PLYPD3) =    -0.19186335186421D+03

 The electronic state is 1-A.
 Alpha  occ. eigenvalues --  -19.72766 -10.71648 -10.65952 -10.64747  -1.19631
 Alpha  occ. eigenvalues --   -0.92470  -0.75235  -0.66783  -0.56437  -0.56092
 Alpha  occ. eigenvalues --   -0.50502  -0.46991  -0.46646  -0.34364  -0.33835
 Alpha virt. eigenvalues --   -0.01868   0.05699   0.07127   0.08076   0.09712
 Alpha virt. eigenvalues --    0.12431   0.14047   0.15376   0.17413   0.19726
 Alpha virt. eigenvalues --    0.19975   0.21460   0.25315   0.26372   0.28857

 Mulliken charges:
               1
     1  C    0.158418
     2  O   -0.347342
     3  C   -0.044778
     4  C   -0.130168
     5  H    0.108202
     6  H    0.082265
     7  H    0.102628
     8  H    0.070776
 Sum of Mulliken charges =   0.00000

 Dipole moment (field-independent basis, Debye):
    X=              3.4715    Y=              0.7582    Z=              0.0692  Tot=              3.5540
 Quadrupole moment (field-independent basis, Debye-Ang):
   XX=            -27.3722   YY=            -21.7146   ZZ=            -25.3202
   XY=             -0.8933   XZ=             -0.1289   YZ=              0.0333

 Normal termination of Gaussian 09 at Wed Aug 26 15:48:29 2020.
