 Gaussian 09, Revision D.01,
 Gaussian 09:  ES64L-G09RevD.01 24-Apr-2013

 --------------------
 #p B2PLYPD3/Def2QZVP
 --------------------

 --------
 acrolein
 --------
 Symbolic Z-matrix:
 Charge =  0 Multiplicity = 1

                         Standard orientation:
 ---------------------------------------------------------------------
 Center     Atomic      Atomic             Coordinates (Angstroms)
 Number     Number       Type             X           Y           Z
 ---------------------------------------------------------------------
      1          6           0       -0.669859    0.324378    0.059304
      2          8           0       -1.787558   -0.110505   -0.044543
      3          6           0        0.550222   -0.452785    0.016587
      4          6           0        1.757288    0.155968   -0.031596
      5          1           0        0.475066   -1.517233    0.061390
      6          1           0        1.831965    1.171258   -0.101873
      7          1           0        2.670881   -0.414354    0.032503
      8          1           0       -0.503358    1.479003    0.098553
 ---------------------------------------------------------------------

 SCF Done:  E(RB2PLYPD3) =  -191.610699281     A.U. after   13 cycles
 E2(B2PLYPD3) =    -0.2473546845D+00 E(B2PLYPD3) =    -0.19185805396583D+03

 The electronic state is 1-A.
 Alpha  occ. eigenvalues --  -19.72843 -10.71842 -10.65284 -10.64503  -1.19954
 Alpha  occ. eigenvalues --   -0.93175  -0.76069  -0.66739  -0.56831  -0.56498
 Alpha  occ. eigenvalues --   -0.50321  -0.48022  -0.47046  -0.34468  -0.33639
 Alpha virt. eigenvalues --   -0.02209   0.05852   0.07051   0.08404   0.09782
 Alpha virt. eigenvalues --    0.12681   0.14020   0.15338   0.17369   0.19816
 Alpha virt. eigenvalues --    0.20250   0.21656   0.25207   0.26280   0.28803

 Mulliken charges:
               1
     1  C    0.153395
     2  O   -0.340737
     3  C   -0.025725
     4  C   -0.132265
     5  H    0.102684
     6  H    0.093064
     7  H    0.101881
     8  H    0.047704
 Sum of Mulliken charges =   0.00000

 Dipole moment (field-independent basis, Debye):
    X=              3.5576    Y=              0.6144    Z=              0.1848  Tot=              3.6150
 Quadrupole moment (field-independent basis, Debye-Ang):
   XX=            -27.1930   YY=            -21.9385   ZZ=            -25.1879
   XY=             -0.7960   XZ=             -0.2517   YZ=             -0.2104

 Normal termination of Gaussian 09 at Wed Aug 26 21:13:10 2020.
