 Gaussian 09, Revision D.01,
 Gaussian 09:  ES64L-G09RevD.01 24-Apr-2013

 --------------------
 #p B2PLYPD3/Def2QZVP
 --------------------

 --------
 acrolein
 --------
 Symbolic Z-matrix:
 Charge =  0 Multiplicity = 1

                         Standard orientation:
 ---------------------------------------------------------------------
 Center     Atomic      Atomic             Coordinates (Angstroms)
 Number     Number       Type             X           Y           Z
 ---------------------------------------------------------------------
      1          6           0        0.660994    0.341915    0.007709
      2          8           0        1.796110   -0.106931   -0.011045
      3          6           0       -0.570074   -0.455600   -0.007523
      4          6           0       -1.750755    0.152246    0.000014
      5          1           0       -0.436100   -1.595546    0.061487
      6          1           0       -1.814473    1.220371   -0.043514
      7          1           0       -2.657725   -0.393461   -0.005045
      8          1           0        0.498426    1.392718    0.074232
 ---------------------------------------------------------------------

 SCF Done:  E(RB2PLYPD3) =  -191.612378598     A.U. after   12 cycles
 E2(B2PLYPD3) =    -0.2474542014D+00 E(B2PLYPD3) =    -0.19185983279979D+03

 The electronic state is 1-A.
 Alpha  occ. eigenvalues --  -19.72718 -10.71228 -10.65196 -10.65013  -1.18802
 Alpha  occ. eigenvalues --   -0.93312  -0.75987  -0.66933  -0.56702  -0.56521
 Alpha  occ. eigenvalues --   -0.50518  -0.46699  -0.46219  -0.34833  -0.33888
 Alpha virt. eigenvalues --   -0.01860   0.05793   0.06916   0.08111   0.09700
 Alpha virt. eigenvalues --    0.12732   0.14144   0.15237   0.17128   0.19775
 Alpha virt. eigenvalues --    0.20130   0.21796   0.25258   0.26744   0.28763

 Mulliken charges:
               1
     1  C    0.155280
     2  O   -0.355926
     3  C   -0.032288
     4  C   -0.130638
     5  H    0.097776
     6  H    0.085179
     7  H    0.105121
     8  H    0.075497
 Sum of Mulliken charges =   0.00000

 Dipole moment (field-independent basis, Debye):
    X=             -3.5892    Y=              0.7740    Z=              0.0741  Tot=              3.6725
 Quadrupole moment (field-independent basis, Debye-Ang):
   XX=            -27.5965   YY=            -21.6612   ZZ=            -25.1959
   XY=              0.7987   XZ=              0.1091   YZ=             -0.1192

 Normal termination of Gaussian 09 at Wed Aug 26 08:54:49 2020.
