 Gaussian 09, Revision D.01,
 Gaussian 09:  ES64L-G09RevD.01 24-Apr-2013

 --------------------
 #p B2PLYPD3/Def2QZVP
 --------------------

 --------
 acrolein
 --------
 Symbolic Z-matrix:
 Charge =  0 Multiplicity = 1

                         Standard orientation:
 ---------------------------------------------------------------------
 Center     Atomic      Atomic             Coordinates (Angstroms)
 Number     Number       Type             X           Y           Z
 ---------------------------------------------------------------------
      1          6           0        0.675829    0.336341   -0.028421
      2          8           0        1.787256   -0.113045    0.024186
      3          6           0       -0.563143   -0.451164   -0.017114
      4          6           0       -1.756285    0.150248    0.004548
      5          1           0       -0.461215   -1.526545   -0.012364
      6          1           0       -1.862876    1.209148    0.067793
      7          1           0       -2.653709   -0.411076    0.037013
      8          1           0        0.541348    1.420283   -0.040013
 ---------------------------------------------------------------------

 SCF Done:  E(RB2PLYPD3) =  -191.616960884     A.U. after   12 cycles
 E2(B2PLYPD3) =    -0.2462286656D+00 E(B2PLYPD3) =    -0.19186318954987D+03

 The electronic state is 1-A.
 Alpha  occ. eigenvalues --  -19.72662 -10.71157 -10.65099 -10.64406  -1.20082
 Alpha  occ. eigenvalues --   -0.93002  -0.75752  -0.67213  -0.56960  -0.56604
 Alpha  occ. eigenvalues --   -0.50715  -0.47306  -0.47043  -0.34668  -0.33708
 Alpha virt. eigenvalues --   -0.01675   0.05840   0.07286   0.08389   0.09718
 Alpha virt. eigenvalues --    0.12717   0.14170   0.15382   0.17535   0.19828
 Alpha virt. eigenvalues --    0.20019   0.21759   0.25445   0.26396   0.28571

 Mulliken charges:
               1
     1  C    0.153985
     2  O   -0.343646
     3  C   -0.038589
     4  C   -0.131311
     5  H    0.103488
     6  H    0.087115
     7  H    0.100952
     8  H    0.068006
 Sum of Mulliken charges =   0.00000

 Dipole moment (field-independent basis, Debye):
    X=             -3.4720    Y=              0.7273    Z=             -0.0193  Tot=              3.5474
 Quadrupole moment (field-independent basis, Debye-Ang):
   XX=            -27.3137   YY=            -21.7592   ZZ=            -25.1300
   XY=              0.8529   XZ=             -0.3161   YZ=              0.0644

 Normal termination of Gaussian 09 at Wed Aug 26 13:27:25 2020.
