 Gaussian 09, Revision D.01,
 Gaussian 09:  ES64L-G09RevD.01 24-Apr-2013

 --------------------
 #p B2PLYPD3/Def2QZVP
 --------------------

 --------
 acrolein
 --------
 Symbolic Z-matrix:
 Charge =  0 Multiplicity = 1

                         Standard orientation:
 ---------------------------------------------------------------------
 Center     Atomic      Atomic             Coordinates (Angstroms)
 Number     Number       Type             X           Y           Z
 ---------------------------------------------------------------------
      1          6           0        0.666040    0.340798    0.002573
      2          8           0        1.793976   -0.110475   -0.012046
      3          6           0       -0.569800   -0.470819    0.005007
      4          6           0       -1.747096    0.152168   -0.002756
      5          1           0       -0.459698   -1.542159    0.041974
      6          1           0       -1.846497    1.268273   -0.052621
      7          1           0       -2.649437   -0.418070   -0.010517
      8          1           0        0.508956    1.442874    0.088591
 ---------------------------------------------------------------------

 SCF Done:  E(RB2PLYPD3) =  -191.615000479     A.U. after   12 cycles
 E2(B2PLYPD3) =    -0.2475227112D+00 E(B2PLYPD3) =    -0.19186252319028D+03

 The electronic state is 1-A.
 Alpha  occ. eigenvalues --  -19.72766 -10.71704 -10.65716 -10.64556  -1.19184
 Alpha  occ. eigenvalues --   -0.93006  -0.75129  -0.66779  -0.56473  -0.56091
 Alpha  occ. eigenvalues --   -0.50438  -0.47058  -0.46507  -0.34775  -0.33699
 Alpha virt. eigenvalues --   -0.01654   0.05702   0.07067   0.07985   0.09674
 Alpha virt. eigenvalues --    0.12538   0.13983   0.15294   0.17460   0.19503
 Alpha virt. eigenvalues --    0.20056   0.21580   0.25235   0.26557   0.28645

 Mulliken charges:
               1
     1  C    0.157424
     2  O   -0.350117
     3  C   -0.044691
     4  C   -0.127045
     5  H    0.107680
     6  H    0.086641
     7  H    0.101009
     8  H    0.069099
 Sum of Mulliken charges =   0.00000

 Dipole moment (field-independent basis, Debye):
    X=             -3.5266    Y=              0.6974    Z=              0.0446  Tot=              3.5951
 Quadrupole moment (field-independent basis, Debye-Ang):
   XX=            -27.6434   YY=            -21.6123   ZZ=            -25.2628
   XY=              0.8247   XZ=              0.1561   YZ=             -0.0858

 Normal termination of Gaussian 09 at Wed Aug 26 18:59:37 2020.
