 Gaussian 09, Revision D.01,
 Gaussian 09:  ES64L-G09RevD.01 24-Apr-2013

 --------------------
 #p B2PLYPD3/Def2QZVP
 --------------------

 --------
 acrolein
 --------
 Symbolic Z-matrix:
 Charge =  0 Multiplicity = 1

                         Standard orientation:
 ---------------------------------------------------------------------
 Center     Atomic      Atomic             Coordinates (Angstroms)
 Number     Number       Type             X           Y           Z
 ---------------------------------------------------------------------
      1          6           0        0.680554    0.357666   -0.021996
      2          8           0        1.785283   -0.118186    0.028154
      3          6           0       -0.571333   -0.466666   -0.020122
      4          6           0       -1.756521    0.144663    0.008922
      5          1           0       -0.429098   -1.557747   -0.007807
      6          1           0       -1.908851    1.283112    0.142713
      7          1           0       -2.646710   -0.415549   -0.023569
      8          1           0        0.586195    1.421699   -0.137395
 ---------------------------------------------------------------------

 SCF Done:  E(RB2PLYPD3) =  -191.610386575     A.U. after   13 cycles
 E2(B2PLYPD3) =    -0.2468767044D+00 E(B2PLYPD3) =    -0.19185726327909D+03

 The electronic state is 1-A.
 Alpha  occ. eigenvalues --  -19.72626 -10.71231 -10.65691 -10.64855  -1.19848
 Alpha  occ. eigenvalues --   -0.92317  -0.74894  -0.66930  -0.56497  -0.56045
 Alpha  occ. eigenvalues --   -0.50758  -0.46747  -0.46320  -0.34576  -0.33636
 Alpha virt. eigenvalues --   -0.01355   0.05657   0.07217   0.07868   0.09599
 Alpha virt. eigenvalues --    0.12389   0.14125   0.15458   0.17453   0.19104
 Alpha virt. eigenvalues --    0.20113   0.21713   0.25141   0.26493   0.28568

 Mulliken charges:
               1
     1  C    0.160896
     2  O   -0.345128
     3  C   -0.063341
     4  C   -0.125713
     5  H    0.108833
     6  H    0.082498
     7  H    0.100669
     8  H    0.081287
 Sum of Mulliken charges =   0.00000

 Dipole moment (field-independent basis, Debye):
    X=             -3.3675    Y=              0.7880    Z=             -0.0444  Tot=              3.4588
 Quadrupole moment (field-independent basis, Debye-Ang):
   XX=            -27.5400   YY=            -21.5173   ZZ=            -25.2725
   XY=              0.8889   XZ=             -0.3366   YZ=              0.1396

 Normal termination of Gaussian 09 at Wed Aug 26 19:46:05 2020.
