 Gaussian 09, Revision D.01,
 Gaussian 09:  ES64L-G09RevD.01 24-Apr-2013

 --------------------
 #p B2PLYPD3/Def2QZVP
 --------------------

 --------
 acrolein
 --------
 Symbolic Z-matrix:
 Charge =  0 Multiplicity = 1

                         Standard orientation:
 ---------------------------------------------------------------------
 Center     Atomic      Atomic             Coordinates (Angstroms)
 Number     Number       Type             X           Y           Z
 ---------------------------------------------------------------------
      1          6           0        0.674665    0.327953   -0.053044
      2          8           0        1.802621   -0.106132    0.027420
      3          6           0       -0.592835   -0.462832    0.024994
      4          6           0       -1.748004    0.153562    0.004981
      5          1           0       -0.465095   -1.449209   -0.042438
      6          1           0       -1.939587    1.257420    0.155164
      7          1           0       -2.611170   -0.431564   -0.111238
      8          1           0        0.591928    1.360309   -0.082436
 ---------------------------------------------------------------------

 SCF Done:  E(RB2PLYPD3) =  -191.601564729     A.U. after   14 cycles
 E2(B2PLYPD3) =    -0.2458742481D+00 E(B2PLYPD3) =    -0.19184743897746D+03

 The electronic state is 1-A.
 Alpha  occ. eigenvalues --  -19.72545 -10.70693 -10.65187 -10.63518  -1.19300
 Alpha  occ. eigenvalues --   -0.93545  -0.75530  -0.68571  -0.57076  -0.56739
 Alpha  occ. eigenvalues --   -0.51117  -0.47271  -0.46370  -0.35070  -0.33448
 Alpha virt. eigenvalues --   -0.01423   0.05717   0.07658   0.07957   0.09660
 Alpha virt. eigenvalues --    0.12599   0.14094   0.15316   0.18084   0.19144
 Alpha virt. eigenvalues --    0.20087   0.21969   0.24885   0.26757   0.28235

 Mulliken charges:
               1
     1  C    0.157521
     2  O   -0.351815
     3  C   -0.057958
     4  C   -0.122597
     5  H    0.112402
     6  H    0.091561
     7  H    0.093216
     8  H    0.077671
 Sum of Mulliken charges =   0.00000

 Dipole moment (field-independent basis, Debye):
    X=             -3.5040    Y=              0.7525    Z=             -0.1588  Tot=              3.5874
 Quadrupole moment (field-independent basis, Debye-Ang):
   XX=            -27.6029   YY=            -21.6162   ZZ=            -24.9590
   XY=              0.7670   XZ=             -0.1034   YZ=              0.3192

 Normal termination of Gaussian 09 at Wed Aug 26 10:57:47 2020.
