 Gaussian 09, Revision D.01,
 Gaussian 09:  ES64L-G09RevD.01 24-Apr-2013

 --------------------
 #p B2PLYPD3/Def2QZVP
 --------------------

 --------
 acrolein
 --------
 Symbolic Z-matrix:
 Charge =  0 Multiplicity = 1

                         Standard orientation:
 ---------------------------------------------------------------------
 Center     Atomic      Atomic             Coordinates (Angstroms)
 Number     Number       Type             X           Y           Z
 ---------------------------------------------------------------------
      1          6           0       -0.679483    0.343810    0.021637
      2          8           0       -1.788745   -0.111494   -0.013479
      3          6           0        0.558358   -0.457720    0.013371
      4          6           0        1.761660    0.137909   -0.013019
      5          1           0        0.463493   -1.524461    0.002584
      6          1           0        1.873927    1.263844    0.013917
      7          1           0        2.644033   -0.399119   -0.019004
      8          1           0       -0.514703    1.407691   -0.021594
 ---------------------------------------------------------------------

 SCF Done:  E(RB2PLYPD3) =  -191.613746174     A.U. after   12 cycles
 E2(B2PLYPD3) =    -0.2465062094D+00 E(B2PLYPD3) =    -0.19186025238321D+03

 The electronic state is 1-A.
 Alpha  occ. eigenvalues --  -19.72735 -10.71141 -10.65524 -10.64385  -1.20144
 Alpha  occ. eigenvalues --   -0.92677  -0.75711  -0.67276  -0.56905  -0.56309
 Alpha  occ. eigenvalues --   -0.50982  -0.47049  -0.46833  -0.34534  -0.33812
 Alpha virt. eigenvalues --   -0.01679   0.05754   0.07358   0.08247   0.09652
 Alpha virt. eigenvalues --    0.12576   0.14241   0.15404   0.17650   0.19535
 Alpha virt. eigenvalues --    0.19991   0.21729   0.25376   0.26592   0.28637

 Mulliken charges:
               1
     1  C    0.158589
     2  O   -0.343089
     3  C   -0.046358
     4  C   -0.130733
     5  H    0.104635
     6  H    0.078719
     7  H    0.104356
     8  H    0.073882
 Sum of Mulliken charges =   0.00000

 Dipole moment (field-independent basis, Debye):
    X=              3.4504    Y=              0.7287    Z=              0.0440  Tot=              3.5268
 Quadrupole moment (field-independent basis, Debye-Ang):
   XX=            -27.3326   YY=            -21.7272   ZZ=            -25.1889
   XY=             -0.8731   XZ=             -0.0856   YZ=              0.0232

 Normal termination of Gaussian 09 at Wed Aug 26 21:22:54 2020.
