 Gaussian 09, Revision D.01,
 Gaussian 09:  ES64L-G09RevD.01 24-Apr-2013

 --------------------
 #p B2PLYPD3/Def2QZVP
 --------------------

 --------
 acrolein
 --------
 Symbolic Z-matrix:
 Charge =  0 Multiplicity = 1

                         Standard orientation:
 ---------------------------------------------------------------------
 Center     Atomic      Atomic             Coordinates (Angstroms)
 Number     Number       Type             X           Y           Z
 ---------------------------------------------------------------------
      1          6           0       -0.660973    0.348235   -0.032626
      2          8           0       -1.773626   -0.131805    0.030745
      3          6           0        0.554377   -0.423403   -0.042260
      4          6           0        1.746388    0.142349    0.020740
      5          1           0        0.432746   -1.489832   -0.028203
      6          1           0        1.790050    1.165415   -0.041802
      7          1           0        2.700178   -0.444549    0.122958
      8          1           0       -0.572720    1.420315    0.025964
 ---------------------------------------------------------------------

 SCF Done:  E(RB2PLYPD3) =  -191.611627458     A.U. after   12 cycles
 E2(B2PLYPD3) =    -0.2465674948D+00 E(B2PLYPD3) =    -0.19185819495257D+03

 The electronic state is 1-A.
 Alpha  occ. eigenvalues --  -19.72489 -10.70917 -10.65211 -10.63866  -1.19262
 Alpha  occ. eigenvalues --   -0.93800  -0.75909  -0.67727  -0.57543  -0.56202
 Alpha  occ. eigenvalues --   -0.50322  -0.47107  -0.46723  -0.34808  -0.33858
 Alpha virt. eigenvalues --   -0.01841   0.05743   0.07201   0.08424   0.09848
 Alpha virt. eigenvalues --    0.12519   0.14033   0.15318   0.17596   0.19723
 Alpha virt. eigenvalues --    0.20318   0.21508   0.25349   0.26612   0.29153

 Mulliken charges:
               1
     1  C    0.146963
     2  O   -0.354759
     3  C   -0.026347
     4  C   -0.135326
     5  H    0.105470
     6  H    0.089666
     7  H    0.102970
     8  H    0.071364
 Sum of Mulliken charges =   0.00000

 Dipole moment (field-independent basis, Debye):
    X=              3.5293    Y=              0.8104    Z=             -0.0503  Tot=              3.6215
 Quadrupole moment (field-independent basis, Debye-Ang):
   XX=            -27.3343   YY=            -21.8026   ZZ=            -25.0446
   XY=             -1.1536   XZ=              0.3674   YZ=             -0.0896

 Normal termination of Gaussian 09 at Wed Aug 26 09:18:10 2020.
