 Gaussian 09, Revision D.01,
 Gaussian 09:  ES64L-G09RevD.01 24-Apr-2013

 --------------------
 #p B2PLYPD3/Def2QZVP
 --------------------

 --------
 acrolein
 --------
 Symbolic Z-matrix:
 Charge =  0 Multiplicity = 1

                         Standard orientation:
 ---------------------------------------------------------------------
 Center     Atomic      Atomic             Coordinates (Angstroms)
 Number     Number       Type             X           Y           Z
 ---------------------------------------------------------------------
      1          6           0        0.688364    0.352100   -0.040201
      2          8           0        1.774603   -0.132341    0.038376
      3          6           0       -0.539543   -0.411105   -0.040897
      4          6           0       -1.776334    0.123882    0.003886
      5          1           0       -0.391627   -1.498076   -0.009175
      6          1           0       -1.797136    1.159397    0.087958
      7          1           0       -2.737551   -0.436981    0.109403
      8          1           0        0.494567    1.445125   -0.031917
 ---------------------------------------------------------------------

 SCF Done:  E(RB2PLYPD3) =  -191.610592996     A.U. after   12 cycles
 E2(B2PLYPD3) =    -0.2469005355D+00 E(B2PLYPD3) =    -0.19185749353129D+03

 The electronic state is 1-A.
 Alpha  occ. eigenvalues --  -19.73015 -10.71338 -10.65668 -10.64304  -1.20878
 Alpha  occ. eigenvalues --   -0.92859  -0.76028  -0.66845  -0.56805  -0.56349
 Alpha  occ. eigenvalues --   -0.51207  -0.47662  -0.46168  -0.34463  -0.33991
 Alpha virt. eigenvalues --   -0.02086   0.05752   0.07258   0.08651   0.09869
 Alpha virt. eigenvalues --    0.12538   0.13915   0.15452   0.17510   0.19595
 Alpha virt. eigenvalues --    0.20015   0.21578   0.25536   0.26398   0.28809

 Mulliken charges:
               1
     1  C    0.157875
     2  O   -0.338203
     3  C   -0.026908
     4  C   -0.136443
     5  H    0.097325
     6  H    0.080298
     7  H    0.107834
     8  H    0.058221
 Sum of Mulliken charges =   0.00000

 Dipole moment (field-independent basis, Debye):
    X=             -3.3816    Y=              0.7637    Z=              0.0278  Tot=              3.4668
 Quadrupole moment (field-independent basis, Debye-Ang):
   XX=            -26.9173   YY=            -22.1728   ZZ=            -25.1713
   XY=              1.0245   XZ=             -0.6073   YZ=              0.0257

 Normal termination of Gaussian 09 at Wed Aug 26 09:13:59 2020.
