 Gaussian 09, Revision D.01,
 Gaussian 09:  ES64L-G09RevD.01 24-Apr-2013

 --------------------
 #p B2PLYPD3/Def2QZVP
 --------------------

 --------
 acrolein
 --------
 Symbolic Z-matrix:
 Charge =  0 Multiplicity = 1

                         Standard orientation:
 ---------------------------------------------------------------------
 Center     Atomic      Atomic             Coordinates (Angstroms)
 Number     Number       Type             X           Y           Z
 ---------------------------------------------------------------------
      1          6           0       -0.646442    0.335940   -0.053842
      2          8           0       -1.792897   -0.109821    0.056063
      3          6           0        0.569456   -0.437069   -0.100954
      4          6           0        1.757207    0.145624    0.006906
      5          1           0        0.305909   -1.608804    0.074853
      6          1           0        1.803369    1.172043    0.096462
      7          1           0        2.620358   -0.468000    0.257658
      8          1           0       -0.467786    1.516358    0.009862
 ---------------------------------------------------------------------

 SCF Done:  E(RB2PLYPD3) =  -191.592275956     A.U. after   13 cycles
 E2(B2PLYPD3) =    -0.2502547625D+00 E(B2PLYPD3) =    -0.19184253071800D+03

 The electronic state is 1-A.
 Alpha  occ. eigenvalues --  -19.73111 -10.72543 -10.65853 -10.65604  -1.18226
 Alpha  occ. eigenvalues --   -0.93910  -0.76249  -0.64964  -0.56473  -0.56364
 Alpha  occ. eigenvalues --   -0.49986  -0.46555  -0.45418  -0.35079  -0.33757
 Alpha virt. eigenvalues --   -0.02630   0.05662   0.06148   0.08097   0.09867
 Alpha virt. eigenvalues --    0.12574   0.13414   0.15113   0.16517   0.19366
 Alpha virt. eigenvalues --    0.20190   0.22047   0.24290   0.26595   0.28254

 Mulliken charges:
               1
     1  C    0.164705
     2  O   -0.359294
     3  C   -0.025255
     4  C   -0.113235
     5  H    0.095340
     6  H    0.092286
     7  H    0.106735
     8  H    0.038717
 Sum of Mulliken charges =   0.00000

 Dipole moment (field-independent basis, Debye):
    X=              3.6412    Y=              0.6517    Z=              0.1868  Tot=              3.7038
 Quadrupole moment (field-independent basis, Debye-Ang):
   XX=            -27.7212   YY=            -22.0383   ZZ=            -25.2788
   XY=             -0.5900   XZ=              1.0680   YZ=             -0.1886

 Normal termination of Gaussian 09 at Wed Aug 26 11:03:58 2020.
