 Gaussian 09, Revision D.01,
 Gaussian 09:  ES64L-G09RevD.01 24-Apr-2013

 --------------------
 #p B2PLYPD3/Def2QZVP
 --------------------

 --------
 acrolein
 --------
 Symbolic Z-matrix:
 Charge =  0 Multiplicity = 1

                         Standard orientation:
 ---------------------------------------------------------------------
 Center     Atomic      Atomic             Coordinates (Angstroms)
 Number     Number       Type             X           Y           Z
 ---------------------------------------------------------------------
      1          6           0       -0.669244    0.346858   -0.005147
      2          8           0       -1.761208   -0.141644   -0.022397
      3          6           0        0.505455   -0.398869    0.069578
      4          6           0        1.756994    0.115089   -0.055228
      5          1           0        0.376061   -1.478527    0.040808
      6          1           0        1.800635    1.193634    0.154482
      7          1           0        2.880156   -0.485104   -0.086919
      8          1           0       -0.526419    1.524681    0.015584
 ---------------------------------------------------------------------

 SCF Done:  E(RB2PLYPD3) =  -191.582314005     A.U. after   13 cycles
 E2(B2PLYPD3) =    -0.2496286789D+00 E(B2PLYPD3) =    -0.19183194268428D+03

 The electronic state is 1-A.
 Alpha  occ. eigenvalues --  -19.72786 -10.71603 -10.68260 -10.64418  -1.20629
 Alpha  occ. eigenvalues --   -0.93215  -0.75390  -0.65844  -0.56247  -0.55411
 Alpha  occ. eigenvalues --   -0.49517  -0.47900  -0.45097  -0.34360  -0.33897
 Alpha virt. eigenvalues --   -0.02800   0.04826   0.06716   0.08666   0.09736
 Alpha virt. eigenvalues --    0.11629   0.13798   0.15065   0.17458   0.19607
 Alpha virt. eigenvalues --    0.20177   0.20325   0.24362   0.26318   0.28574

 Mulliken charges:
               1
     1  C    0.160188
     2  O   -0.338356
     3  C   -0.026992
     4  C   -0.122031
     5  H    0.105199
     6  H    0.082922
     7  H    0.100275
     8  H    0.038796
 Sum of Mulliken charges =   0.00000

 Dipole moment (field-independent basis, Debye):
    X=              3.5378    Y=              0.6487    Z=              0.1260  Tot=              3.5990
 Quadrupole moment (field-independent basis, Debye-Ang):
   XX=            -26.6510   YY=            -22.4299   ZZ=            -25.3856
   XY=             -1.1735   XZ=             -0.0957   YZ=              0.2422

 Normal termination of Gaussian 09 at Wed Aug 26 10:57:38 2020.
