 Gaussian 09, Revision D.01,
 Gaussian 09:  ES64L-G09RevD.01 24-Apr-2013

 --------------------
 #p B2PLYPD3/Def2QZVP
 --------------------

 --------
 acrolein
 --------
 Symbolic Z-matrix:
 Charge =  0 Multiplicity = 1

                         Standard orientation:
 ---------------------------------------------------------------------
 Center     Atomic      Atomic             Coordinates (Angstroms)
 Number     Number       Type             X           Y           Z
 ---------------------------------------------------------------------
      1          6           0       -0.673762    0.354994    0.009093
      2          8           0       -1.777003   -0.125468   -0.015861
      3          6           0        0.557561   -0.446563    0.008579
      4          6           0        1.752840    0.146953   -0.010695
      5          1           0        0.432272   -1.558200    0.039143
      6          1           0        1.834940    1.232506   -0.052948
      7          1           0        2.699340   -0.434121    0.009682
      8          1           0       -0.570360    1.431251    0.089141
 ---------------------------------------------------------------------

 SCF Done:  E(RB2PLYPD3) =  -191.615188312     A.U. after   12 cycles
 E2(B2PLYPD3) =    -0.2468910643D+00 E(B2PLYPD3) =    -0.19186207937668D+03

 The electronic state is 1-A.
 Alpha  occ. eigenvalues --  -19.72591 -10.71173 -10.65770 -10.64734  -1.19891
 Alpha  occ. eigenvalues --   -0.92678  -0.75062  -0.66861  -0.56772  -0.55987
 Alpha  occ. eigenvalues --   -0.50413  -0.46931  -0.46389  -0.34605  -0.33792
 Alpha virt. eigenvalues --   -0.01558   0.05722   0.07002   0.08222   0.09713
 Alpha virt. eigenvalues --    0.12425   0.14098   0.15377   0.17374   0.19545
 Alpha virt. eigenvalues --    0.20071   0.21428   0.25473   0.26458   0.28927

 Mulliken charges:
               1
     1  C    0.154936
     2  O   -0.345765
     3  C   -0.044156
     4  C   -0.131493
     5  H    0.104166
     6  H    0.085574
     7  H    0.101571
     8  H    0.075168
 Sum of Mulliken charges =   0.00000

 Dipole moment (field-independent basis, Debye):
    X=              3.4068    Y=              0.8073    Z=              0.0744  Tot=              3.5020
 Quadrupole moment (field-independent basis, Debye-Ang):
   XX=            -27.4416   YY=            -21.6436   ZZ=            -25.2644
   XY=             -1.0231   XZ=             -0.1296   YZ=             -0.0882

 Normal termination of Gaussian 09 at Wed Aug 26 16:05:28 2020.
