 Gaussian 09, Revision D.01,
 Gaussian 09:  ES64L-G09RevD.01 24-Apr-2013

 --------------------
 #p B2PLYPD3/Def2QZVP
 --------------------

 --------
 acrolein
 --------
 Symbolic Z-matrix:
 Charge =  0 Multiplicity = 1

                         Standard orientation:
 ---------------------------------------------------------------------
 Center     Atomic      Atomic             Coordinates (Angstroms)
 Number     Number       Type             X           Y           Z
 ---------------------------------------------------------------------
      1          6           0        0.675610    0.357833    0.009456
      2          8           0        1.783391   -0.128455   -0.010881
      3          6           0       -0.557401   -0.448695    0.025514
      4          6           0       -1.748226    0.142059   -0.015411
      5          1           0       -0.439500   -1.505161   -0.016378
      6          1           0       -1.808029    1.184664    0.021421
      7          1           0       -2.739721   -0.410906   -0.027716
      8          1           0        0.500225    1.451860   -0.007629
 ---------------------------------------------------------------------

 SCF Done:  E(RB2PLYPD3) =  -191.613843369     A.U. after   12 cycles
 E2(B2PLYPD3) =    -0.2470785083D+00 E(B2PLYPD3) =    -0.19186092187745D+03

 The electronic state is 1-A.
 Alpha  occ. eigenvalues --  -19.72906 -10.71701 -10.65474 -10.64115  -1.19642
 Alpha  occ. eigenvalues --   -0.93065  -0.75148  -0.67471  -0.56746  -0.56038
 Alpha  occ. eigenvalues --   -0.50616  -0.46904  -0.46819  -0.34710  -0.33908
 Alpha virt. eigenvalues --   -0.01636   0.05704   0.07241   0.08070   0.09766
 Alpha virt. eigenvalues --    0.12510   0.13976   0.15338   0.17595   0.19891
 Alpha virt. eigenvalues --    0.20083   0.21324   0.25407   0.26467   0.28859

 Mulliken charges:
               1
     1  C    0.152555
     2  O   -0.347612
     3  C   -0.037113
     4  C   -0.131342
     5  H    0.109159
     6  H    0.084329
     7  H    0.097073
     8  H    0.072951
 Sum of Mulliken charges =   0.00000

 Dipole moment (field-independent basis, Debye):
    X=             -3.4368    Y=              0.8038    Z=              0.0109  Tot=              3.5295
 Quadrupole moment (field-independent basis, Debye-Ang):
   XX=            -27.3528   YY=            -21.8127   ZZ=            -25.2004
   XY=              0.9307   XZ=              0.0972   YZ=              0.0761

 Normal termination of Gaussian 09 at Wed Aug 26 15:01:08 2020.
