 Gaussian 09, Revision D.01,
 Gaussian 09:  ES64L-G09RevD.01 24-Apr-2013

 --------------------
 #p B2PLYPD3/Def2QZVP
 --------------------

 --------
 acrolein
 --------
 Symbolic Z-matrix:
 Charge =  0 Multiplicity = 1

                         Standard orientation:
 ---------------------------------------------------------------------
 Center     Atomic      Atomic             Coordinates (Angstroms)
 Number     Number       Type             X           Y           Z
 ---------------------------------------------------------------------
      1          6           0        0.678342    0.364939    0.009495
      2          8           0        1.787718   -0.134206   -0.013753
      3          6           0       -0.567086   -0.446181    0.009257
      4          6           0       -1.750549    0.137186   -0.019191
      5          1           0       -0.467894   -1.489534    0.033335
      6          1           0       -1.816805    1.182509   -0.036733
      7          1           0       -2.670001   -0.410785    0.037956
      8          1           0        0.488712    1.455791    0.078105
 ---------------------------------------------------------------------

 SCF Done:  E(RB2PLYPD3) =  -191.614949531     A.U. after   12 cycles
 E2(B2PLYPD3) =    -0.2468490446D+00 E(B2PLYPD3) =    -0.19186179857567D+03

 The electronic state is 1-A.
 Alpha  occ. eigenvalues --  -19.73062 -10.71973 -10.64546 -10.63786  -1.19292
 Alpha  occ. eigenvalues --   -0.93287  -0.75425  -0.67634  -0.56732  -0.56535
 Alpha  occ. eigenvalues --   -0.50887  -0.47264  -0.46593  -0.34809  -0.33956
 Alpha virt. eigenvalues --   -0.01548   0.05826   0.07316   0.08009   0.09803
 Alpha virt. eigenvalues --    0.12694   0.13992   0.15389   0.17632   0.19741
 Alpha virt. eigenvalues --    0.20106   0.21692   0.25539   0.26552   0.28715

 Mulliken charges:
               1
     1  C    0.152895
     2  O   -0.348739
     3  C   -0.039060
     4  C   -0.131365
     5  H    0.108164
     6  H    0.080923
     7  H    0.099346
     8  H    0.077835
 Sum of Mulliken charges =   0.00000

 Dipole moment (field-independent basis, Debye):
    X=             -3.4277    Y=              0.8218    Z=              0.1012  Tot=              3.5262
 Quadrupole moment (field-independent basis, Debye-Ang):
   XX=            -27.4643   YY=            -21.7372   ZZ=            -25.1149
   XY=              1.0009   XZ=              0.0093   YZ=             -0.0694

 Normal termination of Gaussian 09 at Wed Aug 26 09:50:29 2020.
