 Gaussian 09, Revision D.01,
 Gaussian 09:  ES64L-G09RevD.01 24-Apr-2013

 --------------------
 #p B2PLYPD3/Def2QZVP
 --------------------

 --------
 acrolein
 --------
 Symbolic Z-matrix:
 Charge =  0 Multiplicity = 1

                         Standard orientation:
 ---------------------------------------------------------------------
 Center     Atomic      Atomic             Coordinates (Angstroms)
 Number     Number       Type             X           Y           Z
 ---------------------------------------------------------------------
      1          6           0       -0.669112    0.349126    0.010795
      2          8           0       -1.782806   -0.117352   -0.012308
      3          6           0        0.553151   -0.445999   -0.001539
      4          6           0        1.753954    0.141962    0.000754
      5          1           0        0.411472   -1.521308    0.045444
      6          1           0        1.858321    1.209133   -0.042646
      7          1           0        2.697181   -0.428758   -0.017189
      8          1           0       -0.532486    1.409209    0.052798
 ---------------------------------------------------------------------

 SCF Done:  E(RB2PLYPD3) =  -191.616116978     A.U. after   12 cycles
 E2(B2PLYPD3) =    -0.2467374263D+00 E(B2PLYPD3) =    -0.19186285440436D+03

 The electronic state is 1-A.
 Alpha  occ. eigenvalues --  -19.72587 -10.70934 -10.65712 -10.64398  -1.19603
 Alpha  occ. eigenvalues --   -0.92978  -0.75672  -0.67492  -0.56973  -0.56154
 Alpha  occ. eigenvalues --   -0.50573  -0.46970  -0.46692  -0.34611  -0.33833
 Alpha virt. eigenvalues --   -0.01807   0.05709   0.07271   0.08299   0.09726
 Alpha virt. eigenvalues --    0.12561   0.14077   0.15333   0.17591   0.19737
 Alpha virt. eigenvalues --    0.20008   0.21536   0.25443   0.26604   0.28750

 Mulliken charges:
               1
     1  C    0.154886
     2  O   -0.351715
     3  C   -0.038340
     4  C   -0.132295
     5  H    0.106895
     6  H    0.086222
     7  H    0.099887
     8  H    0.074462
 Sum of Mulliken charges =   0.00000

 Dipole moment (field-independent basis, Debye):
    X=              3.5007    Y=              0.7922    Z=              0.0483  Tot=              3.5896
 Quadrupole moment (field-independent basis, Debye-Ang):
   XX=            -27.3687   YY=            -21.7305   ZZ=            -25.1734
   XY=             -0.8470   XZ=             -0.1535   YZ=             -0.0921

 Normal termination of Gaussian 09 at Wed Aug 26 18:44:46 2020.
