 Gaussian 09, Revision D.01,
 Gaussian 09:  ES64L-G09RevD.01 24-Apr-2013

 --------------------
 #p B2PLYPD3/Def2QZVP
 --------------------

 --------
 acrolein
 --------
 Symbolic Z-matrix:
 Charge =  0 Multiplicity = 1

                         Standard orientation:
 ---------------------------------------------------------------------
 Center     Atomic      Atomic             Coordinates (Angstroms)
 Number     Number       Type             X           Y           Z
 ---------------------------------------------------------------------
      1          6           0        0.668768    0.357391    0.019158
      2          8           0        1.800507   -0.133568   -0.032580
      3          6           0       -0.557451   -0.428252    0.016297
      4          6           0       -1.766794    0.139903   -0.019323
      5          1           0       -0.437422   -1.569202    0.110900
      6          1           0       -1.791830    1.166653   -0.081411
      7          1           0       -2.722305   -0.448665   -0.025032
      8          1           0        0.480362    1.505505    0.159396
 ---------------------------------------------------------------------

 SCF Done:  E(RB2PLYPD3) =  -191.604363909     A.U. after   13 cycles
 E2(B2PLYPD3) =    -0.2495933998D+00 E(B2PLYPD3) =    -0.19185395730860D+03

 The electronic state is 1-A.
 Alpha  occ. eigenvalues --  -19.73223 -10.72719 -10.65631 -10.65190  -1.18330
 Alpha  occ. eigenvalues --   -0.93242  -0.75713  -0.65835  -0.56252  -0.56062
 Alpha  occ. eigenvalues --   -0.50226  -0.46685  -0.45713  -0.34727  -0.34036
 Alpha virt. eigenvalues --   -0.02391   0.05676   0.06456   0.08040   0.09772
 Alpha virt. eigenvalues --    0.12448   0.13707   0.15198   0.16923   0.19576
 Alpha virt. eigenvalues --    0.20360   0.21435   0.25104   0.26473   0.28949

 Mulliken charges:
               1
     1  C    0.156030
     2  O   -0.353838
     3  C   -0.025147
     4  C   -0.131583
     5  H    0.097525
     6  H    0.087095
     7  H    0.108638
     8  H    0.061280
 Sum of Mulliken charges =   0.00000

 Dipole moment (field-independent basis, Debye):
    X=             -3.6169    Y=              0.7653    Z=              0.1475  Tot=              3.6999
 Quadrupole moment (field-independent basis, Debye-Ang):
   XX=            -27.4497   YY=            -21.9202   ZZ=            -25.3707
   XY=              1.0294   XZ=              0.2914   YZ=             -0.1602

 Normal termination of Gaussian 09 at Wed Aug 26 08:46:02 2020.
