 Gaussian 09, Revision D.01,
 Gaussian 09:  ES64L-G09RevD.01 24-Apr-2013

 --------------------
 #p B2PLYPD3/Def2QZVP
 --------------------

 --------
 acrolein
 --------
 Symbolic Z-matrix:
 Charge =  0 Multiplicity = 1

                         Standard orientation:
 ---------------------------------------------------------------------
 Center     Atomic      Atomic             Coordinates (Angstroms)
 Number     Number       Type             X           Y           Z
 ---------------------------------------------------------------------
      1          6           0        0.671836    0.339605   -0.033576
      2          8           0        1.782507   -0.109492    0.027469
      3          6           0       -0.564451   -0.458733   -0.009850
      4          6           0       -1.752836    0.142651    0.010033
      5          1           0       -0.430927   -1.539889   -0.036780
      6          1           0       -1.866384    1.280395    0.075663
      7          1           0       -2.646751   -0.409458    0.008240
      8          1           0        0.556710    1.403750   -0.066513
 ---------------------------------------------------------------------

 SCF Done:  E(RB2PLYPD3) =  -191.613403475     A.U. after   12 cycles
 E2(B2PLYPD3) =    -0.2463848981D+00 E(B2PLYPD3) =    -0.19185978837303D+03

 The electronic state is 1-A.
 Alpha  occ. eigenvalues --  -19.72544 -10.70876 -10.65723 -10.64494  -1.20063
 Alpha  occ. eigenvalues --   -0.92829  -0.75429  -0.67085  -0.56763  -0.56291
 Alpha  occ. eigenvalues --   -0.50817  -0.46990  -0.46548  -0.34724  -0.33682
 Alpha virt. eigenvalues --   -0.01510   0.05703   0.07236   0.08318   0.09664
 Alpha virt. eigenvalues --    0.12486   0.14166   0.15361   0.17540   0.19378
 Alpha virt. eigenvalues --    0.20010   0.21712   0.25421   0.26538   0.28786

 Mulliken charges:
               1
     1  C    0.159423
     2  O   -0.345418
     3  C   -0.047100
     4  C   -0.128520
     5  H    0.104326
     6  H    0.082061
     7  H    0.103931
     8  H    0.071297
 Sum of Mulliken charges =   0.00000

 Dipole moment (field-independent basis, Debye):
    X=             -3.4394    Y=              0.7259    Z=             -0.0862  Tot=              3.5163
 Quadrupole moment (field-independent basis, Debye-Ang):
   XX=            -27.4183   YY=            -21.6608   ZZ=            -25.1897
   XY=              0.8657   XZ=             -0.2587   YZ=              0.1226

 Normal termination of Gaussian 09 at Wed Aug 26 19:10:47 2020.
