 Gaussian 09, Revision D.01,
 Gaussian 09:  ES64L-G09RevD.01 24-Apr-2013

 --------------------
 #p B2PLYPD3/Def2QZVP
 --------------------

 --------
 acrolein
 --------
 Symbolic Z-matrix:
 Charge =  0 Multiplicity = 1

                         Standard orientation:
 ---------------------------------------------------------------------
 Center     Atomic      Atomic             Coordinates (Angstroms)
 Number     Number       Type             X           Y           Z
 ---------------------------------------------------------------------
      1          6           0       -0.680714    0.359648    0.020583
      2          8           0       -1.763755   -0.141913   -0.019564
      3          6           0        0.556059   -0.430498    0.018591
      4          6           0        1.748765    0.125137   -0.027859
      5          1           0        0.463695   -1.448417    0.004835
      6          1           0        1.799968    1.161471   -0.063784
      7          1           0        2.633977   -0.393386    0.072459
      8          1           0       -0.532257    1.489918    0.075106
 ---------------------------------------------------------------------

 SCF Done:  E(RB2PLYPD3) =  -191.610629024     A.U. after   12 cycles
 E2(B2PLYPD3) =    -0.2454510715D+00 E(B2PLYPD3) =    -0.19185608009584D+03

 The electronic state is 1-A.
 Alpha  occ. eigenvalues --  -19.72937 -10.71710 -10.63858 -10.63175  -1.20694
 Alpha  occ. eigenvalues --   -0.93579  -0.75774  -0.67510  -0.57431  -0.56883
 Alpha  occ. eigenvalues --   -0.51283  -0.47535  -0.47376  -0.34850  -0.33801
 Alpha virt. eigenvalues --   -0.01370   0.05976   0.07444   0.08448   0.09910
 Alpha virt. eigenvalues --    0.12721   0.14066   0.15483   0.17686   0.19657
 Alpha virt. eigenvalues --    0.20112   0.21991   0.25747   0.26402   0.28947

 Mulliken charges:
               1
     1  C    0.151244
     2  O   -0.336304
     3  C   -0.036789
     4  C   -0.127089
     5  H    0.107120
     6  H    0.076694
     7  H    0.100679
     8  H    0.064445
 Sum of Mulliken charges =   0.00000

 Dipole moment (field-independent basis, Debye):
    X=              3.3121    Y=              0.7617    Z=              0.1027  Tot=              3.4001
 Quadrupole moment (field-independent basis, Debye-Ang):
   XX=            -27.0809   YY=            -21.9205   ZZ=            -24.9539
   XY=             -1.1067   XZ=             -0.0051   YZ=             -0.0779

 Normal termination of Gaussian 09 at Wed Aug 26 09:25:41 2020.
