 Gaussian 09, Revision D.01,
 Gaussian 09:  ES64L-G09RevD.01 24-Apr-2013

 --------------------
 #p B2PLYPD3/Def2QZVP
 --------------------

 --------
 acrolein
 --------
 Symbolic Z-matrix:
 Charge =  0 Multiplicity = 1

                         Standard orientation:
 ---------------------------------------------------------------------
 Center     Atomic      Atomic             Coordinates (Angstroms)
 Number     Number       Type             X           Y           Z
 ---------------------------------------------------------------------
      1          6           0       -0.682660    0.364717    0.033590
      2          8           0       -1.769913   -0.142850   -0.033824
      3          6           0        0.552583   -0.417375    0.003583
      4          6           0        1.765272    0.115985   -0.004927
      5          1           0        0.430077   -1.483300    0.097176
      6          1           0        1.827836    1.209397   -0.117955
      7          1           0        2.642316   -0.430040   -0.022906
      8          1           0       -0.552094    1.466777    0.120800
 ---------------------------------------------------------------------

 SCF Done:  E(RB2PLYPD3) =  -191.614430009     A.U. after   12 cycles
 E2(B2PLYPD3) =    -0.2463858689D+00 E(B2PLYPD3) =    -0.19186081587819D+03

 The electronic state is 1-A.
 Alpha  occ. eigenvalues --  -19.72913 -10.71565 -10.64828 -10.63908  -1.20228
 Alpha  occ. eigenvalues --   -0.93084  -0.75855  -0.66809  -0.57270  -0.56461
 Alpha  occ. eigenvalues --   -0.51300  -0.47251  -0.46112  -0.34734  -0.33988
 Alpha virt. eigenvalues --   -0.01650   0.05875   0.07296   0.08317   0.09824
 Alpha virt. eigenvalues --    0.12520   0.14073   0.15278   0.17634   0.19410
 Alpha virt. eigenvalues --    0.20045   0.21939   0.25302   0.26619   0.28975

 Mulliken charges:
               1
     1  C    0.156369
     2  O   -0.341080
     3  C   -0.040272
     4  C   -0.129562
     5  H    0.101855
     6  H    0.074267
     7  H    0.107038
     8  H    0.071383
 Sum of Mulliken charges =   0.00000

 Dipole moment (field-independent basis, Debye):
    X=              3.3427    Y=              0.8017    Z=              0.1212  Tot=              3.4397
 Quadrupole moment (field-independent basis, Debye-Ang):
   XX=            -27.1895   YY=            -21.8980   ZZ=            -25.0964
   XY=             -1.2114   XZ=             -0.3464   YZ=             -0.2158

 Normal termination of Gaussian 09 at Wed Aug 26 09:16:29 2020.
