 Gaussian 09, Revision D.01,
 Gaussian 09:  ES64L-G09RevD.01 24-Apr-2013

 --------------------
 #p B2PLYPD3/Def2QZVP
 --------------------

 --------
 acrolein
 --------
 Symbolic Z-matrix:
 Charge =  0 Multiplicity = 1

                         Standard orientation:
 ---------------------------------------------------------------------
 Center     Atomic      Atomic             Coordinates (Angstroms)
 Number     Number       Type             X           Y           Z
 ---------------------------------------------------------------------
      1          6           0        0.682201    0.364667    0.002388
      2          8           0        1.785476   -0.149056    0.003350
      3          6           0       -0.559135   -0.434014   -0.031830
      4          6           0       -1.751346    0.127702   -0.004746
      5          1           0       -0.509044   -1.434821    0.082250
      6          1           0       -1.842239    1.164074    0.024751
      7          1           0       -2.668473   -0.432760    0.051318
      8          1           0        0.505622    1.545829    0.020008
 ---------------------------------------------------------------------

 SCF Done:  E(RB2PLYPD3) =  -191.605755042     A.U. after   12 cycles
 E2(B2PLYPD3) =    -0.2474177248D+00 E(B2PLYPD3) =    -0.19185317276714D+03

 The electronic state is 1-A.
 Alpha  occ. eigenvalues --  -19.73262 -10.72811 -10.64542 -10.63397  -1.19450
 Alpha  occ. eigenvalues --   -0.93563  -0.75318  -0.67325  -0.56833  -0.56330
 Alpha  occ. eigenvalues --   -0.50622  -0.47584  -0.46644  -0.34898  -0.33913
 Alpha virt. eigenvalues --   -0.01691   0.05789   0.07168   0.08034   0.09800
 Alpha virt. eigenvalues --    0.12545   0.13678   0.15274   0.17885   0.19837
 Alpha virt. eigenvalues --    0.20073   0.21514   0.25467   0.26308   0.28735

 Mulliken charges:
               1
     1  C    0.155666
     2  O   -0.342720
     3  C   -0.036933
     4  C   -0.121700
     5  H    0.108698
     6  H    0.079618
     7  H    0.096423
     8  H    0.060947
 Sum of Mulliken charges =   0.00000

 Dipole moment (field-independent basis, Debye):
    X=             -3.4481    Y=              0.7682    Z=              0.1459  Tot=              3.5356
 Quadrupole moment (field-independent basis, Debye-Ang):
   XX=            -27.2390   YY=            -21.9350   ZZ=            -25.1225
   XY=              1.1129   XZ=             -0.2502   YZ=             -0.1227

 Normal termination of Gaussian 09 at Wed Aug 26 08:54:11 2020.
