 Gaussian 09, Revision D.01,
 Gaussian 09:  ES64L-G09RevD.01 24-Apr-2013

 --------------------
 #p B2PLYPD3/Def2QZVP
 --------------------

 --------
 acrolein
 --------
 Symbolic Z-matrix:
 Charge =  0 Multiplicity = 1

                         Standard orientation:
 ---------------------------------------------------------------------
 Center     Atomic      Atomic             Coordinates (Angstroms)
 Number     Number       Type             X           Y           Z
 ---------------------------------------------------------------------
      1          6           0        0.674407    0.350416   -0.090773
      2          8           0        1.758434   -0.142924    0.060351
      3          6           0       -0.499279   -0.409555    0.002917
      4          6           0       -1.762739    0.108174   -0.001937
      5          1           0       -0.416994   -1.462039   -0.074916
      6          1           0       -1.818169    1.208026    0.294579
      7          1           0       -2.828335   -0.454039   -0.028758
      8          1           0        0.521692    1.557238   -0.134962
 ---------------------------------------------------------------------

 SCF Done:  E(RB2PLYPD3) =  -191.585278807     A.U. after   13 cycles
 E2(B2PLYPD3) =    -0.2499610509D+00 E(B2PLYPD3) =    -0.19183523985802D+03

 The electronic state is 1-A.
 Alpha  occ. eigenvalues --  -19.72952 -10.72068 -10.68000 -10.64289  -1.20515
 Alpha  occ. eigenvalues --   -0.92832  -0.75229  -0.65736  -0.56136  -0.55697
 Alpha  occ. eigenvalues --   -0.49947  -0.47609  -0.45269  -0.34195  -0.33747
 Alpha virt. eigenvalues --   -0.02919   0.05174   0.06819   0.08196   0.09699
 Alpha virt. eigenvalues --    0.11763   0.13903   0.15055   0.17392   0.19552
 Alpha virt. eigenvalues --    0.20060   0.20596   0.24468   0.26126   0.29196

 Mulliken charges:
               1
     1  C    0.166017
     2  O   -0.335598
     3  C   -0.034341
     4  C   -0.122211
     5  H    0.107954
     6  H    0.074796
     7  H    0.101539
     8  H    0.041844
 Sum of Mulliken charges =   0.00000

 Dipole moment (field-independent basis, Debye):
    X=             -3.4901    Y=              0.6131    Z=             -0.1247  Tot=              3.5458
 Quadrupole moment (field-independent basis, Debye-Ang):
   XX=            -26.7052   YY=            -22.4097   ZZ=            -25.3615
   XY=              1.2152   XZ=             -0.5662   YZ=              0.4505

 Normal termination of Gaussian 09 at Wed Aug 26 11:57:29 2020.
