 Gaussian 09, Revision D.01,
 Gaussian 09:  ES64L-G09RevD.01 24-Apr-2013

 --------------------
 #p B2PLYPD3/Def2QZVP
 --------------------

 --------
 acrolein
 --------
 Symbolic Z-matrix:
 Charge =  0 Multiplicity = 1

                         Standard orientation:
 ---------------------------------------------------------------------
 Center     Atomic      Atomic             Coordinates (Angstroms)
 Number     Number       Type             X           Y           Z
 ---------------------------------------------------------------------
      1          6           0       -0.676312    0.315396    0.063879
      2          8           0       -1.797085   -0.076321   -0.077759
      3          6           0        0.569619   -0.475201    0.060942
      4          6           0        1.780882    0.129251   -0.066707
      5          1           0        0.339450   -1.580155    0.083545
      6          1           0        1.961806    1.328025   -0.189540
      7          1           0        2.501246   -0.387152    0.056510
      8          1           0       -0.470961    1.433180    0.322874
 ---------------------------------------------------------------------

 SCF Done:  E(RB2PLYPD3) =  -191.563563090     A.U. after   14 cycles
 E2(B2PLYPD3) =    -0.2482419149D+00 E(B2PLYPD3) =    -0.19181180500527D+03

 The electronic state is 1-A.
 Alpha  occ. eigenvalues --  -19.73139 -10.71808 -10.65604 -10.65403  -1.20539
 Alpha  occ. eigenvalues --   -0.92795  -0.77255  -0.65026  -0.58049  -0.54697
 Alpha  occ. eigenvalues --   -0.51572  -0.47162  -0.46562  -0.34471  -0.33390
 Alpha virt. eigenvalues --   -0.02213   0.05515   0.06922   0.08288   0.09624
 Alpha virt. eigenvalues --    0.12210   0.13831   0.15561   0.16708   0.18570
 Alpha virt. eigenvalues --    0.19988   0.22551   0.24667   0.26650   0.28206

 Mulliken charges:
               1
     1  C    0.168201
     2  O   -0.335358
     3  C   -0.046573
     4  C   -0.150024
     5  H    0.096450
     6  H    0.089125
     7  H    0.135134
     8  H    0.043045
 Sum of Mulliken charges =   0.00000

 Dipole moment (field-independent basis, Debye):
    X=              3.4309    Y=              0.4828    Z=              0.2819  Tot=              3.4761
 Quadrupole moment (field-independent basis, Debye-Ang):
   XX=            -27.3690   YY=            -21.8772   ZZ=            -25.2936
   XY=             -0.1728   XZ=             -0.5216   YZ=             -0.3094

 Normal termination of Gaussian 09 at Wed Aug 26 13:33:50 2020.
