 Gaussian 09, Revision D.01,
 Gaussian 09:  ES64L-G09RevD.01 24-Apr-2013

 --------------------
 #p B2PLYPD3/Def2QZVP
 --------------------

 --------
 acrolein
 --------
 Symbolic Z-matrix:
 Charge =  0 Multiplicity = 1

                         Standard orientation:
 ---------------------------------------------------------------------
 Center     Atomic      Atomic             Coordinates (Angstroms)
 Number     Number       Type             X           Y           Z
 ---------------------------------------------------------------------
      1          6           0       -0.675744    0.336778    0.027550
      2          8           0       -1.794922   -0.109182   -0.031370
      3          6           0        0.572075   -0.474688    0.023086
      4          6           0        1.752606    0.144358   -0.014409
      5          1           0        0.505151   -1.504504    0.015167
      6          1           0        1.903885    1.316974   -0.122497
      7          1           0        2.610458   -0.402090    0.011734
      8          1           0       -0.553739    1.424386    0.129196
 ---------------------------------------------------------------------

 SCF Done:  E(RB2PLYPD3) =  -191.605203851     A.U. after   12 cycles
 E2(B2PLYPD3) =    -0.2468315191D+00 E(B2PLYPD3) =    -0.19185203537023D+03

 The electronic state is 1-A.
 Alpha  occ. eigenvalues --  -19.72675 -10.71469 -10.65689 -10.64181  -1.19685
 Alpha  occ. eigenvalues --   -0.92916  -0.75259  -0.67239  -0.56988  -0.56111
 Alpha  occ. eigenvalues --   -0.50763  -0.46920  -0.46620  -0.34710  -0.33651
 Alpha virt. eigenvalues --   -0.01504   0.05617   0.07325   0.08023   0.09540
 Alpha virt. eigenvalues --    0.12413   0.14145   0.15434   0.17765   0.19041
 Alpha virt. eigenvalues --    0.20096   0.21704   0.25147   0.26442   0.28589

 Mulliken charges:
               1
     1  C    0.157517
     2  O   -0.344280
     3  C   -0.058684
     4  C   -0.121990
     5  H    0.109486
     6  H    0.080582
     7  H    0.101492
     8  H    0.075877
 Sum of Mulliken charges =   0.00000

 Dipole moment (field-independent basis, Debye):
    X=              3.4767    Y=              0.6796    Z=              0.0686  Tot=              3.5432
 Quadrupole moment (field-independent basis, Debye-Ang):
   XX=            -27.5203   YY=            -21.5939   ZZ=            -25.2030
   XY=             -0.9123   XZ=             -0.3301   YZ=             -0.1261

 Normal termination of Gaussian 09 at Wed Aug 26 08:43:22 2020.
