 Gaussian 09, Revision D.01,
 Gaussian 09:  ES64L-G09RevD.01 24-Apr-2013

 --------------------
 #p B2PLYPD3/Def2QZVP
 --------------------

 --------
 acrolein
 --------
 Symbolic Z-matrix:
 Charge =  0 Multiplicity = 1

                         Standard orientation:
 ---------------------------------------------------------------------
 Center     Atomic      Atomic             Coordinates (Angstroms)
 Number     Number       Type             X           Y           Z
 ---------------------------------------------------------------------
      1          6           0       -0.681163    0.363324    0.036715
      2          8           0       -1.756909   -0.141077   -0.042054
      3          6           0        0.541285   -0.425604    0.022666
      4          6           0        1.755321    0.128263   -0.016617
      5          1           0        0.409554   -1.471186    0.121188
      6          1           0        1.820918    1.213982   -0.047483
      7          1           0        2.724336   -0.448784   -0.090205
      8          1           0       -0.592195    1.438704    0.096349
 ---------------------------------------------------------------------

 SCF Done:  E(RB2PLYPD3) =  -191.613718395     A.U. after   13 cycles
 E2(B2PLYPD3) =    -0.2459926782D+00 E(B2PLYPD3) =    -0.19185971107337D+03

 The electronic state is 1-A.
 Alpha  occ. eigenvalues --  -19.72545 -10.70841 -10.65825 -10.63805  -1.20771
 Alpha  occ. eigenvalues --   -0.92745  -0.75132  -0.67540  -0.57037  -0.56123
 Alpha  occ. eigenvalues --   -0.50790  -0.47590  -0.46283  -0.34501  -0.33835
 Alpha virt. eigenvalues --   -0.01466   0.05711   0.07324   0.08457   0.09780
 Alpha virt. eigenvalues --    0.12298   0.13990   0.15354   0.17965   0.19567
 Alpha virt. eigenvalues --    0.19858   0.21303   0.25651   0.26467   0.29230

 Mulliken charges:
               1
     1  C    0.152703
     2  O   -0.340380
     3  C   -0.044248
     4  C   -0.132186
     5  H    0.108931
     6  H    0.079364
     7  H    0.101274
     8  H    0.074542
 Sum of Mulliken charges =   0.00000

 Dipole moment (field-independent basis, Debye):
    X=              3.2913    Y=              0.8379    Z=              0.1567  Tot=              3.3999
 Quadrupole moment (field-independent basis, Debye-Ang):
   XX=            -27.1296   YY=            -21.8285   ZZ=            -25.1405
   XY=             -1.1961   XZ=             -0.4505   YZ=             -0.1309

 Normal termination of Gaussian 09 at Wed Aug 26 09:10:28 2020.
