 Gaussian 09, Revision D.01,
 Gaussian 09:  ES64L-G09RevD.01 24-Apr-2013

 --------------------
 #p B2PLYPD3/Def2QZVP
 --------------------

 --------
 acrolein
 --------
 Symbolic Z-matrix:
 Charge =  0 Multiplicity = 1

                         Standard orientation:
 ---------------------------------------------------------------------
 Center     Atomic      Atomic             Coordinates (Angstroms)
 Number     Number       Type             X           Y           Z
 ---------------------------------------------------------------------
      1          6           0       -0.687301    0.353492    0.020105
      2          8           0       -1.772821   -0.131536   -0.037908
      3          6           0        0.554046   -0.449107    0.054929
      4          6           0        1.756655    0.155930   -0.022648
      5          1           0        0.441329   -1.493269    0.031409
      6          1           0        1.825697    1.167558   -0.044267
      7          1           0        2.772097   -0.422766   -0.098122
      8          1           0       -0.596958    1.438875    0.099923
 ---------------------------------------------------------------------

 SCF Done:  E(RB2PLYPD3) =  -191.607557204     A.U. after   12 cycles
 E2(B2PLYPD3) =    -0.2462157062D+00 E(B2PLYPD3) =    -0.19185377291054D+03

 The electronic state is 1-A.
 Alpha  occ. eigenvalues --  -19.72611 -10.71168 -10.65683 -10.64262  -1.20762
 Alpha  occ. eigenvalues --   -0.92474  -0.74931  -0.67863  -0.57463  -0.55661
 Alpha  occ. eigenvalues --   -0.50555  -0.47343  -0.47134  -0.34369  -0.33689
 Alpha virt. eigenvalues --   -0.01474   0.05680   0.07347   0.08210   0.09728
 Alpha virt. eigenvalues --    0.12347   0.14059   0.15460   0.17796   0.19730
 Alpha virt. eigenvalues --    0.20211   0.21104   0.25325   0.26135   0.28901

 Mulliken charges:
               1
     1  C    0.149336
     2  O   -0.338237
     3  C   -0.047731
     4  C   -0.134273
     5  H    0.112872
     6  H    0.091541
     7  H    0.092477
     8  H    0.074015
 Sum of Mulliken charges =   0.00000

 Dipole moment (field-independent basis, Debye):
    X=              3.2985    Y=              0.8279    Z=              0.0413  Tot=              3.4010
 Quadrupole moment (field-independent basis, Debye-Ang):
   XX=            -27.2051   YY=            -21.7778   ZZ=            -25.2049
   XY=             -1.0116   XZ=             -0.5051   YZ=              0.0138

 Normal termination of Gaussian 09 at Wed Aug 26 09:12:04 2020.
