 Gaussian 09, Revision D.01,
 Gaussian 09:  ES64L-G09RevD.01 24-Apr-2013

 --------------------
 #p B2PLYPD3/Def2QZVP
 --------------------

 --------
 acrolein
 --------
 Symbolic Z-matrix:
 Charge =  0 Multiplicity = 1

                         Standard orientation:
 ---------------------------------------------------------------------
 Center     Atomic      Atomic             Coordinates (Angstroms)
 Number     Number       Type             X           Y           Z
 ---------------------------------------------------------------------
      1          6           0        0.673046    0.301964   -0.020708
      2          8           0        1.804279   -0.093645    0.063450
      3          6           0       -0.564414   -0.463848   -0.103633
      4          6           0       -1.775445    0.180828    0.026200
      5          1           0       -0.496410   -1.569525   -0.070530
      6          1           0       -1.833743    1.174418    0.008120
      7          1           0       -2.686535   -0.385653    0.308272
      8          1           0        0.583328    1.416255   -0.164618
 ---------------------------------------------------------------------

 SCF Done:  E(RB2PLYPD3) =  -191.601266499     A.U. after   13 cycles
 E2(B2PLYPD3) =    -0.2479816217D+00 E(B2PLYPD3) =    -0.19184924812078D+03

 The electronic state is 1-A.
 Alpha  occ. eigenvalues --  -19.72540 -10.71466 -10.66012 -10.65615  -1.19906
 Alpha  occ. eigenvalues --   -0.92653  -0.76076  -0.66706  -0.57253  -0.55949
 Alpha  occ. eigenvalues --   -0.50013  -0.48307  -0.46712  -0.34202  -0.33253
 Alpha virt. eigenvalues --   -0.02591   0.05762   0.07004   0.08258   0.09592
 Alpha virt. eigenvalues --    0.12579   0.14125   0.15402   0.17347   0.19383
 Alpha virt. eigenvalues --    0.20406   0.21525   0.24208   0.26078   0.28348

 Mulliken charges:
               1
     1  C    0.150980
     2  O   -0.340684
     3  C   -0.035138
     4  C   -0.126814
     5  H    0.100586
     6  H    0.098867
     7  H    0.101423
     8  H    0.050781
 Sum of Mulliken charges =   0.00000

 Dipole moment (field-independent basis, Debye):
    X=             -3.6246    Y=              0.6100    Z=              0.0077  Tot=              3.6756
 Quadrupole moment (field-independent basis, Debye-Ang):
   XX=            -27.3189   YY=            -21.9506   ZZ=            -25.2108
   XY=              0.7518   XZ=             -1.1007   YZ=             -0.1386

 Normal termination of Gaussian 09 at Wed Aug 26 14:00:45 2020.
