 Gaussian 09, Revision D.01,
 Gaussian 09:  ES64L-G09RevD.01 24-Apr-2013

 --------------------
 #p B2PLYPD3/Def2QZVP
 --------------------

 --------
 acrolein
 --------
 Symbolic Z-matrix:
 Charge =  0 Multiplicity = 1

                         Standard orientation:
 ---------------------------------------------------------------------
 Center     Atomic      Atomic             Coordinates (Angstroms)
 Number     Number       Type             X           Y           Z
 ---------------------------------------------------------------------
      1          6           0       -0.680607    0.361846   -0.007440
      2          8           0       -1.787607   -0.130033    0.017092
      3          6           0        0.557761   -0.445728   -0.032489
      4          6           0        1.758891    0.128756    0.011220
      5          1           0        0.435544   -1.501010   -0.007887
      6          1           0        1.850045    1.203168    0.000382
      7          1           0        2.671185   -0.418831    0.072344
      8          1           0       -0.472184    1.487690   -0.029323
 ---------------------------------------------------------------------

 SCF Done:  E(RB2PLYPD3) =  -191.615216265     A.U. after   12 cycles
 E2(B2PLYPD3) =    -0.2473965464D+00 E(B2PLYPD3) =    -0.19186261281176D+03

 The electronic state is 1-A.
 Alpha  occ. eigenvalues --  -19.73140 -10.72198 -10.65160 -10.64160  -1.19661
 Alpha  occ. eigenvalues --   -0.92923  -0.75421  -0.66839  -0.56782  -0.56065
 Alpha  occ. eigenvalues --   -0.50880  -0.46993  -0.46833  -0.34668  -0.33908
 Alpha virt. eigenvalues --   -0.01731   0.05766   0.07252   0.08074   0.09786
 Alpha virt. eigenvalues --    0.12568   0.13860   0.15383   0.17500   0.19820
 Alpha virt. eigenvalues --    0.19928   0.21678   0.25447   0.26426   0.28627

 Mulliken charges:
               1
     1  C    0.159963
     2  O   -0.345158
     3  C   -0.039945
     4  C   -0.130323
     5  H    0.107141
     6  H    0.080482
     7  H    0.102182
     8  H    0.065658
 Sum of Mulliken charges =   0.00000

 Dipole moment (field-independent basis, Debye):
    X=              3.4431    Y=              0.7559    Z=              0.0038  Tot=              3.5251
 Quadrupole moment (field-independent basis, Debye-Ang):
   XX=            -27.3125   YY=            -21.8571   ZZ=            -25.2202
   XY=             -0.8810   XZ=              0.2688   YZ=             -0.0601

 Normal termination of Gaussian 09 at Wed Aug 26 16:21:48 2020.
