 Gaussian 09, Revision D.01,
 Gaussian 09:  ES64L-G09RevD.01 24-Apr-2013

 --------------------
 #p B2PLYPD3/Def2QZVP
 --------------------

 --------
 acrolein
 --------
 Symbolic Z-matrix:
 Charge =  0 Multiplicity = 1

                         Standard orientation:
 ---------------------------------------------------------------------
 Center     Atomic      Atomic             Coordinates (Angstroms)
 Number     Number       Type             X           Y           Z
 ---------------------------------------------------------------------
      1          6           0        0.669597    0.351417    0.028442
      2          8           0        1.787889   -0.115689   -0.020207
      3          6           0       -0.570200   -0.469261    0.007116
      4          6           0       -1.744185    0.154027   -0.016670
      5          1           0       -0.470380   -1.532108    0.020610
      6          1           0       -1.839106    1.243436   -0.052061
      7          1           0       -2.650781   -0.406441    0.032538
      8          1           0        0.525883    1.403522    0.047242
 ---------------------------------------------------------------------

 SCF Done:  E(RB2PLYPD3) =  -191.615506634     A.U. after   12 cycles
 E2(B2PLYPD3) =    -0.2466829010D+00 E(B2PLYPD3) =    -0.19186218953503D+03

 The electronic state is 1-A.
 Alpha  occ. eigenvalues --  -19.72645 -10.71191 -10.65200 -10.64280  -1.19263
 Alpha  occ. eigenvalues --   -0.92969  -0.75276  -0.67758  -0.56753  -0.56341
 Alpha  occ. eigenvalues --   -0.50609  -0.47215  -0.46509  -0.34683  -0.33763
 Alpha virt. eigenvalues --   -0.01464   0.05766   0.07294   0.07936   0.09696
 Alpha virt. eigenvalues --    0.12656   0.14160   0.15361   0.17611   0.19643
 Alpha virt. eigenvalues --    0.20041   0.21642   0.25404   0.26572   0.28716

 Mulliken charges:
               1
     1  C    0.153394
     2  O   -0.351481
     3  C   -0.046338
     4  C   -0.131112
     5  H    0.108825
     6  H    0.085178
     7  H    0.098544
     8  H    0.082989
 Sum of Mulliken charges =   0.00000

 Dipole moment (field-independent basis, Debye):
    X=             -3.4645    Y=              0.7945    Z=              0.0997  Tot=              3.5559
 Quadrupole moment (field-independent basis, Debye-Ang):
   XX=            -27.6653   YY=            -21.5043   ZZ=            -25.1677
   XY=              0.9039   XZ=              0.0861   YZ=             -0.0898

 Normal termination of Gaussian 09 at Wed Aug 26 16:22:27 2020.
