 Gaussian 09, Revision D.01,
 Gaussian 09:  ES64L-G09RevD.01 24-Apr-2013

 --------------------
 #p B2PLYPD3/Def2QZVP
 --------------------

 --------
 acrolein
 --------
 Symbolic Z-matrix:
 Charge =  0 Multiplicity = 1

                         Standard orientation:
 ---------------------------------------------------------------------
 Center     Atomic      Atomic             Coordinates (Angstroms)
 Number     Number       Type             X           Y           Z
 ---------------------------------------------------------------------
      1          6           0       -0.692422    0.358343    0.041561
      2          8           0       -1.784295   -0.121180   -0.043969
      3          6           0        0.552589   -0.471920    0.005390
      4          6           0        1.760276    0.142734   -0.010643
      5          1           0        0.467287   -1.506172    0.143563
      6          1           0        1.912620    1.275665   -0.107797
      7          1           0        2.679353   -0.439187   -0.053818
      8          1           0       -0.507558    1.464190    0.151961
 ---------------------------------------------------------------------

 SCF Done:  E(RB2PLYPD3) =  -191.610177440     A.U. after   13 cycles
 E2(B2PLYPD3) =    -0.2473869902D+00 E(B2PLYPD3) =    -0.19185756443042D+03

 The electronic state is 1-A.
 Alpha  occ. eigenvalues --  -19.72967 -10.71871 -10.66217 -10.64460  -1.20559
 Alpha  occ. eigenvalues --   -0.91920  -0.74496  -0.66890  -0.56242  -0.55940
 Alpha  occ. eigenvalues --   -0.50779  -0.47261  -0.46541  -0.34301  -0.33672
 Alpha virt. eigenvalues --   -0.01495   0.05654   0.07193   0.07814   0.09586
 Alpha virt. eigenvalues --    0.12373   0.13865   0.15195   0.17993   0.19300
 Alpha virt. eigenvalues --    0.19924   0.21365   0.24811   0.26727   0.28489

 Mulliken charges:
               1
     1  C    0.160026
     2  O   -0.334176
     3  C   -0.059599
     4  C   -0.129004
     5  H    0.112375
     6  H    0.079968
     7  H    0.096237
     8  H    0.074172
 Sum of Mulliken charges =   0.00000

 Dipole moment (field-independent basis, Debye):
    X=              3.3110    Y=              0.7457    Z=              0.1922  Tot=              3.3994
 Quadrupole moment (field-independent basis, Debye-Ang):
   XX=            -27.4197   YY=            -21.6878   ZZ=            -25.3385
   XY=             -0.8351   XZ=             -0.4372   YZ=             -0.2600

 Normal termination of Gaussian 09 at Wed Aug 26 08:51:52 2020.
