 Gaussian 09, Revision D.01,
 Gaussian 09:  ES64L-G09RevD.01 24-Apr-2013

 --------------------
 #p B2PLYPD3/Def2QZVP
 --------------------

 --------
 acrolein
 --------
 Symbolic Z-matrix:
 Charge =  0 Multiplicity = 1

                         Standard orientation:
 ---------------------------------------------------------------------
 Center     Atomic      Atomic             Coordinates (Angstroms)
 Number     Number       Type             X           Y           Z
 ---------------------------------------------------------------------
      1          6           0        0.658733    0.319413   -0.033408
      2          8           0        1.794113   -0.098237    0.025615
      3          6           0       -0.567115   -0.465919   -0.035989
      4          6           0       -1.749916    0.159200    0.002814
      5          1           0       -0.459372   -1.515796    0.027879
      6          1           0       -1.818703    1.196372    0.012148
      7          1           0       -2.662484   -0.362538    0.117715
      8          1           0        0.537447    1.391694    0.036835
 ---------------------------------------------------------------------

 SCF Done:  E(RB2PLYPD3) =  -191.613518638     A.U. after   12 cycles
 E2(B2PLYPD3) =    -0.2465506905D+00 E(B2PLYPD3) =    -0.19186006932842D+03

 The electronic state is 1-A.
 Alpha  occ. eigenvalues --  -19.72475 -10.70952 -10.65089 -10.64364  -1.19271
 Alpha  occ. eigenvalues --   -0.93516  -0.76195  -0.67794  -0.57185  -0.56786
 Alpha  occ. eigenvalues --   -0.50487  -0.47945  -0.46634  -0.34726  -0.33610
 Alpha virt. eigenvalues --   -0.01967   0.05840   0.07352   0.08308   0.09711
 Alpha virt. eigenvalues --    0.12844   0.14266   0.15294   0.17582   0.19838
 Alpha virt. eigenvalues --    0.20190   0.21751   0.25075   0.26634   0.28837

 Mulliken charges:
               1
     1  C    0.149693
     2  O   -0.352720
     3  C   -0.031298
     4  C   -0.127395
     5  H    0.107049
     6  H    0.089391
     7  H    0.099502
     8  H    0.065777
 Sum of Mulliken charges =   0.00000

 Dipole moment (field-independent basis, Debye):
    X=             -3.6272    Y=              0.6848    Z=              0.0564  Tot=              3.6917
 Quadrupole moment (field-independent basis, Debye-Ang):
   XX=            -27.3711   YY=            -21.7847   ZZ=            -25.0494
   XY=              0.7383   XZ=             -0.4473   YZ=             -0.0778

 Normal termination of Gaussian 09 at Wed Aug 26 08:38:01 2020.
