 Gaussian 09, Revision D.01,
 Gaussian 09:  ES64L-G09RevD.01 24-Apr-2013

 --------------------
 #p B2PLYPD3/Def2QZVP
 --------------------

 --------
 acrolein
 --------
 Symbolic Z-matrix:
 Charge =  0 Multiplicity = 1

                         Standard orientation:
 ---------------------------------------------------------------------
 Center     Atomic      Atomic             Coordinates (Angstroms)
 Number     Number       Type             X           Y           Z
 ---------------------------------------------------------------------
      1          6           0       -0.676071    0.357489    0.011267
      2          8           0       -1.777848   -0.129358   -0.012201
      3          6           0        0.548605   -0.441290   -0.001061
      4          6           0        1.756710    0.127448   -0.011678
      5          1           0        0.427828   -1.484422    0.064491
      6          1           0        1.836570    1.229055   -0.000572
      7          1           0        2.690468   -0.431741   -0.001943
      8          1           0       -0.507544    1.460095    0.044465
 ---------------------------------------------------------------------

 SCF Done:  E(RB2PLYPD3) =  -191.615984834     A.U. after   13 cycles
 E2(B2PLYPD3) =    -0.2469363745D+00 E(B2PLYPD3) =    -0.19186292120825D+03

 The electronic state is 1-A.
 Alpha  occ. eigenvalues --  -19.72853 -10.71556 -10.65738 -10.63943  -1.19958
 Alpha  occ. eigenvalues --   -0.92925  -0.75358  -0.67137  -0.56614  -0.56278
 Alpha  occ. eigenvalues --   -0.50819  -0.47186  -0.46608  -0.34603  -0.33896
 Alpha virt. eigenvalues --   -0.01730   0.05713   0.07276   0.08291   0.09769
 Alpha virt. eigenvalues --    0.12447   0.13928   0.15375   0.17736   0.19639
 Alpha virt. eigenvalues --    0.19934   0.21470   0.25585   0.26458   0.28892

 Mulliken charges:
               1
     1  C    0.156947
     2  O   -0.345403
     3  C   -0.040367
     4  C   -0.130515
     5  H    0.108307
     6  H    0.079099
     7  H    0.103020
     8  H    0.068912
 Sum of Mulliken charges =   0.00000

 Dipole moment (field-independent basis, Debye):
    X=              3.4319    Y=              0.7596    Z=              0.1115  Tot=              3.5167
 Quadrupole moment (field-independent basis, Debye-Ang):
   XX=            -27.2724   YY=            -21.8417   ZZ=            -25.2002
   XY=             -0.9937   XZ=             -0.0252   YZ=             -0.0730

 Normal termination of Gaussian 09 at Wed Aug 26 16:00:10 2020.
