 Gaussian 09, Revision D.01,
 Gaussian 09:  ES64L-G09RevD.01 24-Apr-2013

 --------------------
 #p B2PLYPD3/Def2QZVP
 --------------------

 --------
 acrolein
 --------
 Symbolic Z-matrix:
 Charge =  0 Multiplicity = 1

                         Standard orientation:
 ---------------------------------------------------------------------
 Center     Atomic      Atomic             Coordinates (Angstroms)
 Number     Number       Type             X           Y           Z
 ---------------------------------------------------------------------
      1          6           0       -0.652667    0.307475   -0.020697
      2          8           0       -1.836983   -0.085196    0.046426
      3          6           0        0.609537   -0.490285   -0.055759
      4          6           0        1.743631    0.172852    0.019543
      5          1           0        0.439876   -1.570464   -0.106950
      6          1           0        1.834905    1.212358    0.011214
      7          1           0        2.641703   -0.369037    0.213689
      8          1           0       -0.423623    1.468461   -0.147888
 ---------------------------------------------------------------------

 SCF Done:  E(RB2PLYPD3) =  -191.601695560     A.U. after   13 cycles
 E2(B2PLYPD3) =    -0.2498680960D+00 E(B2PLYPD3) =    -0.19185156365623D+03

 The electronic state is 1-A.
 Alpha  occ. eigenvalues --  -19.73296 -10.73060 -10.65349 -10.65186  -1.17279
 Alpha  occ. eigenvalues --   -0.93968  -0.75698  -0.66352  -0.56801  -0.55815
 Alpha  occ. eigenvalues --   -0.50106  -0.47599  -0.45439  -0.35303  -0.33440
 Alpha virt. eigenvalues --   -0.02194   0.05717   0.06738   0.07658   0.09609
 Alpha virt. eigenvalues --    0.12617   0.13807   0.15092   0.16823   0.19711
 Alpha virt. eigenvalues --    0.20078   0.21817   0.24736   0.26573   0.28152

 Mulliken charges:
               1
     1  C    0.164358
     2  O   -0.362431
     3  C   -0.029908
     4  C   -0.116509
     5  H    0.106327
     6  H    0.095059
     7  H    0.097578
     8  H    0.045525
 Sum of Mulliken charges =   0.00000

 Dipole moment (field-independent basis, Debye):
    X=              3.7981    Y=              0.5312    Z=             -0.0773  Tot=              3.8358
 Quadrupole moment (field-independent basis, Debye-Ang):
   XX=            -27.9078   YY=            -21.8673   ZZ=            -25.2397
   XY=             -0.3079   XZ=              0.7109   YZ=             -0.0031

 Normal termination of Gaussian 09 at Wed Aug 26 11:47:08 2020.
