 Gaussian 09, Revision D.01,
 Gaussian 09:  ES64L-G09RevD.01 24-Apr-2013

 --------------------
 #p B2PLYPD3/Def2QZVP
 --------------------

 --------
 acrolein
 --------
 Symbolic Z-matrix:
 Charge =  0 Multiplicity = 1

                         Standard orientation:
 ---------------------------------------------------------------------
 Center     Atomic      Atomic             Coordinates (Angstroms)
 Number     Number       Type             X           Y           Z
 ---------------------------------------------------------------------
      1          6           0       -0.670522    0.351599   -0.008922
      2          8           0       -1.784995   -0.125638    0.007619
      3          6           0        0.556831   -0.436750    0.001185
      4          6           0        1.755876    0.136352   -0.002779
      5          1           0        0.408626   -1.542416   -0.004753
      6          1           0        1.781731    1.196225    0.071108
      7          1           0        2.710599   -0.427974   -0.017889
      8          1           0       -0.474103    1.472063   -0.046322
 ---------------------------------------------------------------------

 SCF Done:  E(RB2PLYPD3) =  -191.613608227     A.U. after   12 cycles
 E2(B2PLYPD3) =    -0.2477835974D+00 E(B2PLYPD3) =    -0.19186139182393D+03

 The electronic state is 1-A.
 Alpha  occ. eigenvalues --  -19.73041 -10.71942 -10.65587 -10.64542  -1.19559
 Alpha  occ. eigenvalues --   -0.93234  -0.75476  -0.66344  -0.56450  -0.56189
 Alpha  occ. eigenvalues --   -0.50646  -0.46922  -0.46383  -0.34792  -0.33947
 Alpha virt. eigenvalues --   -0.01901   0.05736   0.06938   0.08273   0.09838
 Alpha virt. eigenvalues --    0.12534   0.13809   0.15331   0.17142   0.19766
 Alpha virt. eigenvalues --    0.20144   0.21471   0.25470   0.26481   0.28885

 Mulliken charges:
               1
     1  C    0.158726
     2  O   -0.347548
     3  C   -0.028433
     4  C   -0.132549
     5  H    0.099563
     6  H    0.084054
     7  H    0.106957
     8  H    0.059230
 Sum of Mulliken charges =   0.00000

 Dipole moment (field-independent basis, Debye):
    X=              3.4897    Y=              0.7309    Z=             -0.0011  Tot=              3.5655
 Quadrupole moment (field-independent basis, Debye-Ang):
   XX=            -27.3285   YY=            -21.9423   ZZ=            -25.2538
   XY=             -0.9439   XZ=              0.0962   YZ=              0.0885

 Normal termination of Gaussian 09 at Wed Aug 26 20:16:55 2020.
