 Gaussian 09, Revision D.01,
 Gaussian 09:  ES64L-G09RevD.01 24-Apr-2013

 --------------------
 #p B2PLYPD3/Def2QZVP
 --------------------

 --------
 acrolein
 --------
 Symbolic Z-matrix:
 Charge =  0 Multiplicity = 1

                         Standard orientation:
 ---------------------------------------------------------------------
 Center     Atomic      Atomic             Coordinates (Angstroms)
 Number     Number       Type             X           Y           Z
 ---------------------------------------------------------------------
      1          6           0        0.683247    0.364074   -0.017229
      2          8           0        1.774713   -0.134966    0.034271
      3          6           0       -0.540003   -0.436671   -0.046141
      4          6           0       -1.771867    0.122178    0.008432
      5          1           0       -0.446625   -1.457346   -0.038285
      6          1           0       -1.883161    1.247347    0.056760
      7          1           0       -2.684959   -0.434253    0.124561
      8          1           0        0.588778    1.426495   -0.087583
 ---------------------------------------------------------------------

 SCF Done:  E(RB2PLYPD3) =  -191.611288458     A.U. after   13 cycles
 E2(B2PLYPD3) =    -0.2466462699D+00 E(B2PLYPD3) =    -0.19185793472788D+03

 The electronic state is 1-A.
 Alpha  occ. eigenvalues --  -19.72556 -10.70988 -10.66084 -10.63953  -1.20083
 Alpha  occ. eigenvalues --   -0.92431  -0.75470  -0.67965  -0.56838  -0.56496
 Alpha  occ. eigenvalues --   -0.50775  -0.47078  -0.46645  -0.34236  -0.33896
 Alpha virt. eigenvalues --   -0.01871   0.05665   0.07544   0.08238   0.09662
 Alpha virt. eigenvalues --    0.12322   0.14176   0.15465   0.18050   0.19326
 Alpha virt. eigenvalues --    0.19855   0.21522   0.25376   0.26268   0.28948

 Mulliken charges:
               1
     1  C    0.154864
     2  O   -0.346077
     3  C   -0.054446
     4  C   -0.127798
     5  H    0.114096
     6  H    0.074423
     7  H    0.101726
     8  H    0.083212
 Sum of Mulliken charges =   0.00000

 Dipole moment (field-independent basis, Debye):
    X=             -3.3973    Y=              0.8274    Z=             -0.0012  Tot=              3.4966
 Quadrupole moment (field-independent basis, Debye-Ang):
   XX=            -27.2175   YY=            -21.7361   ZZ=            -25.1908
   XY=              1.1753   XZ=             -0.5801   YZ=             -0.0067

 Normal termination of Gaussian 09 at Wed Aug 26 09:54:18 2020.
