 Gaussian 09, Revision D.01,
 Gaussian 09:  ES64L-G09RevD.01 24-Apr-2013

 --------------------
 #p B2PLYPD3/Def2QZVP
 --------------------

 --------
 acrolein
 --------
 Symbolic Z-matrix:
 Charge =  0 Multiplicity = 1

                         Standard orientation:
 ---------------------------------------------------------------------
 Center     Atomic      Atomic             Coordinates (Angstroms)
 Number     Number       Type             X           Y           Z
 ---------------------------------------------------------------------
      1          6           0       -0.661380    0.362516   -0.064043
      2          8           0       -1.787176   -0.138322    0.065854
      3          6           0        0.551548   -0.436018   -0.059220
      4          6           0        1.735645    0.146239    0.022553
      5          1           0        0.569091   -1.422298    0.007964
      6          1           0        1.750112    1.125876    0.336814
      7          1           0        2.691186   -0.420337   -0.022338
      8          1           0       -0.467858    1.386913   -0.245016
 ---------------------------------------------------------------------

 SCF Done:  E(RB2PLYPD3) =  -191.594792311     A.U. after   14 cycles
 E2(B2PLYPD3) =    -0.2479136317D+00 E(B2PLYPD3) =    -0.19184270594238D+03

 The electronic state is 1-A.
 Alpha  occ. eigenvalues --  -19.72861 -10.71541 -10.64869 -10.62938  -1.17873
 Alpha  occ. eigenvalues --   -0.94288  -0.76120  -0.69204  -0.57620  -0.56036
 Alpha  occ. eigenvalues --   -0.50282  -0.48124  -0.45748  -0.34552  -0.33972
 Alpha virt. eigenvalues --   -0.02381   0.05704   0.07396   0.07566   0.09771
 Alpha virt. eigenvalues --    0.12894   0.13811   0.15554   0.17724   0.18892
 Alpha virt. eigenvalues --    0.20697   0.21301   0.24523   0.26543   0.28569

 Mulliken charges:
               1
     1  C    0.145389
     2  O   -0.361943
     3  C   -0.038143
     4  C   -0.119329
     5  H    0.105165
     6  H    0.079083
     7  H    0.093911
     8  H    0.095867
 Sum of Mulliken charges =   0.00000

 Dipole moment (field-independent basis, Debye):
    X=              3.6051    Y=              0.8415    Z=             -0.0427  Tot=              3.7022
 Quadrupole moment (field-independent basis, Debye-Ang):
   XX=            -27.6902   YY=            -21.8351   ZZ=            -24.8761
   XY=             -1.3401   XZ=              0.7840   YZ=              0.2153

 Normal termination of Gaussian 09 at Wed Aug 26 14:21:09 2020.
