 Gaussian 09, Revision D.01,
 Gaussian 09:  ES64L-G09RevD.01 24-Apr-2013

 --------------------
 #p B2PLYPD3/Def2QZVP
 --------------------

 --------
 acrolein
 --------
 Symbolic Z-matrix:
 Charge =  0 Multiplicity = 1

                         Standard orientation:
 ---------------------------------------------------------------------
 Center     Atomic      Atomic             Coordinates (Angstroms)
 Number     Number       Type             X           Y           Z
 ---------------------------------------------------------------------
      1          6           0        0.678503    0.353986   -0.015552
      2          8           0        1.775561   -0.132166    0.013005
      3          6           0       -0.558734   -0.435520   -0.010329
      4          6           0       -1.753203    0.134886    0.004754
      5          1           0       -0.456187   -1.479399    0.006674
      6          1           0       -1.797856    1.189816    0.061638
      7          1           0       -2.665438   -0.418083   -0.009848
      8          1           0        0.515602    1.444886   -0.035737
 ---------------------------------------------------------------------

 SCF Done:  E(RB2PLYPD3) =  -191.616423006     A.U. after   12 cycles
 E2(B2PLYPD3) =    -0.2459831612D+00 E(B2PLYPD3) =    -0.19186240616714D+03

 The electronic state is 1-A.
 Alpha  occ. eigenvalues --  -19.72863 -10.71416 -10.64711 -10.63611  -1.20221
 Alpha  occ. eigenvalues --   -0.93322  -0.75617  -0.67517  -0.56970  -0.56705
 Alpha  occ. eigenvalues --   -0.51036  -0.47292  -0.47075  -0.34768  -0.33879
 Alpha virt. eigenvalues --   -0.01505   0.05875   0.07376   0.08381   0.09840
 Alpha virt. eigenvalues --    0.12681   0.14015   0.15430   0.17680   0.19786
 Alpha virt. eigenvalues --    0.20067   0.21676   0.25727   0.26428   0.28887

 Mulliken charges:
               1
     1  C    0.152308
     2  O   -0.342775
     3  C   -0.035042
     4  C   -0.134522
     5  H    0.104980
     6  H    0.081404
     7  H    0.103649
     8  H    0.069998
 Sum of Mulliken charges =   0.00000

 Dipole moment (field-independent basis, Debye):
    X=             -3.3857    Y=              0.7725    Z=             -0.0081  Tot=              3.4727
 Quadrupole moment (field-independent basis, Debye-Ang):
   XX=            -27.2579   YY=            -21.8473   ZZ=            -25.0590
   XY=              1.0809   XZ=             -0.1377   YZ=              0.0528

 Normal termination of Gaussian 09 at Wed Aug 26 20:36:03 2020.
