 Gaussian 09, Revision D.01,
 Gaussian 09:  ES64L-G09RevD.01 24-Apr-2013

 --------------------
 #p B2PLYPD3/Def2QZVP
 --------------------

 --------
 acrolein
 --------
 Symbolic Z-matrix:
 Charge =  0 Multiplicity = 1

                         Standard orientation:
 ---------------------------------------------------------------------
 Center     Atomic      Atomic             Coordinates (Angstroms)
 Number     Number       Type             X           Y           Z
 ---------------------------------------------------------------------
      1          6           0        0.669264    0.340183    0.007627
      2          8           0        1.796361   -0.111142   -0.014222
      3          6           0       -0.570760   -0.443062    0.022442
      4          6           0       -1.753597    0.145489   -0.020573
      5          1           0       -0.434110   -1.557058    0.026943
      6          1           0       -1.859060    1.208365    0.026869
      7          1           0       -2.646322   -0.421199   -0.029982
      8          1           0        0.499169    1.403370    0.032965
 ---------------------------------------------------------------------

 SCF Done:  E(RB2PLYPD3) =  -191.614977998     A.U. after   12 cycles
 E2(B2PLYPD3) =    -0.2468849647D+00 E(B2PLYPD3) =    -0.19186186296311D+03

 The electronic state is 1-A.
 Alpha  occ. eigenvalues --  -19.72820 -10.71266 -10.65026 -10.64622  -1.19245
 Alpha  occ. eigenvalues --   -0.93394  -0.76075  -0.66964  -0.56867  -0.56552
 Alpha  occ. eigenvalues --   -0.50767  -0.46816  -0.46492  -0.34940  -0.33858
 Alpha virt. eigenvalues --   -0.01789   0.05799   0.07097   0.08333   0.09729
 Alpha virt. eigenvalues --    0.12737   0.14085   0.15312   0.17275   0.19880
 Alpha virt. eigenvalues --    0.19972   0.21899   0.25464   0.26623   0.28447

 Mulliken charges:
               1
     1  C    0.157977
     2  O   -0.352285
     3  C   -0.032158
     4  C   -0.131430
     5  H    0.097675
     6  H    0.086036
     7  H    0.103687
     8  H    0.070498
 Sum of Mulliken charges =   0.00000

 Dipole moment (field-independent basis, Debye):
    X=             -3.5521    Y=              0.7593    Z=              0.0723  Tot=              3.6330
 Quadrupole moment (field-independent basis, Debye-Ang):
   XX=            -27.4677   YY=            -21.7643   ZZ=            -25.1376
   XY=              0.7763   XZ=              0.0894   YZ=              0.0386

 Normal termination of Gaussian 09 at Wed Aug 26 09:26:05 2020.
