 Gaussian 09, Revision D.01,
 Gaussian 09:  ES64L-G09RevD.01 24-Apr-2013

 --------------------
 #p B2PLYPD3/Def2QZVP
 --------------------

 --------
 acrolein
 --------
 Symbolic Z-matrix:
 Charge =  0 Multiplicity = 1

                         Standard orientation:
 ---------------------------------------------------------------------
 Center     Atomic      Atomic             Coordinates (Angstroms)
 Number     Number       Type             X           Y           Z
 ---------------------------------------------------------------------
      1          6           0        0.669726    0.354936    0.020683
      2          8           0        1.789717   -0.131001   -0.013198
      3          6           0       -0.551723   -0.440650    0.004939
      4          6           0       -1.757257    0.126993   -0.014155
      5          1           0       -0.468178   -1.500233    0.018158
      6          1           0       -1.841533    1.205332   -0.016145
      7          1           0       -2.669301   -0.411485    0.020701
      8          1           0        0.496797    1.506721    0.014061
 ---------------------------------------------------------------------

 SCF Done:  E(RB2PLYPD3) =  -191.613542566     A.U. after   12 cycles
 E2(B2PLYPD3) =    -0.2479704385D+00 E(B2PLYPD3) =    -0.19186151300431D+03

 The electronic state is 1-A.
 Alpha  occ. eigenvalues --  -19.73019 -10.72326 -10.65295 -10.64223  -1.19026
 Alpha  occ. eigenvalues --   -0.93274  -0.75732  -0.66656  -0.56884  -0.56155
 Alpha  occ. eigenvalues --   -0.50506  -0.46934  -0.46629  -0.34707  -0.33942
 Alpha virt. eigenvalues --   -0.02059   0.05743   0.07088   0.08172   0.09753
 Alpha virt. eigenvalues --    0.12509   0.13976   0.15358   0.17427   0.19887
 Alpha virt. eigenvalues --    0.19911   0.21629   0.25548   0.26213   0.28873

 Mulliken charges:
               1
     1  C    0.157019
     2  O   -0.349553
     3  C   -0.033574
     4  C   -0.125495
     5  H    0.106185
     6  H    0.079461
     7  H    0.103285
     8  H    0.062673
 Sum of Mulliken charges =   0.00000

 Dipole moment (field-independent basis, Debye):
    X=             -3.5668    Y=              0.7275    Z=              0.0774  Tot=              3.6411
 Quadrupole moment (field-independent basis, Debye-Ang):
   XX=            -27.2899   YY=            -21.8717   ZZ=            -25.2299
   XY=              0.9944   XZ=              0.0181   YZ=             -0.0492

 Normal termination of Gaussian 09 at Wed Aug 26 19:53:22 2020.
