 Gaussian 09, Revision D.01,
 Gaussian 09:  ES64L-G09RevD.01 24-Apr-2013

 --------------------
 #p B2PLYPD3/Def2QZVP
 --------------------

 --------
 acrolein
 --------
 Symbolic Z-matrix:
 Charge =  0 Multiplicity = 1

                         Standard orientation:
 ---------------------------------------------------------------------
 Center     Atomic      Atomic             Coordinates (Angstroms)
 Number     Number       Type             X           Y           Z
 ---------------------------------------------------------------------
      1          6           0       -0.649200    0.342958   -0.052126
      2          8           0       -1.801960   -0.104876    0.038365
      3          6           0        0.591130   -0.501990   -0.062625
      4          6           0        1.724745    0.169514   -0.007088
      5          1           0        0.493189   -1.572379    0.074698
      6          1           0        1.846440    1.358670    0.038767
      7          1           0        2.582412   -0.447319    0.224806
      8          1           0       -0.506411    1.437144    0.085849
 ---------------------------------------------------------------------

 SCF Done:  E(RB2PLYPD3) =  -191.597710116     A.U. after   13 cycles
 E2(B2PLYPD3) =    -0.2495874643D+00 E(B2PLYPD3) =    -0.19184729758077D+03

 The electronic state is 1-A.
 Alpha  occ. eigenvalues --  -19.72695 -10.72084 -10.66305 -10.64929  -1.17610
 Alpha  occ. eigenvalues --   -0.93314  -0.74293  -0.66518  -0.56185  -0.55186
 Alpha  occ. eigenvalues --   -0.50046  -0.46274  -0.45565  -0.34988  -0.33573
 Alpha virt. eigenvalues --   -0.01595   0.05328   0.06513   0.07347   0.09565
 Alpha virt. eigenvalues --    0.12349   0.13805   0.15130   0.17557   0.18839
 Alpha virt. eigenvalues --    0.19894   0.21729   0.24323   0.27090   0.28338

 Mulliken charges:
               1
     1  C    0.159823
     2  O   -0.362596
     3  C   -0.054163
     4  C   -0.113340
     5  H    0.113246
     6  H    0.088083
     7  H    0.091850
     8  H    0.077097
 Sum of Mulliken charges =   0.00000

 Dipole moment (field-independent basis, Debye):
    X=              3.5758    Y=              0.7123    Z=              0.1825  Tot=              3.6506
 Quadrupole moment (field-independent basis, Debye-Ang):
   XX=            -28.4979   YY=            -21.2026   ZZ=            -25.3385
   XY=             -0.7919   XZ=              0.8005   YZ=             -0.1754

 Normal termination of Gaussian 09 at Wed Aug 26 11:23:31 2020.
