 Gaussian 09, Revision D.01,
 Gaussian 09:  ES64L-G09RevD.01 24-Apr-2013

 --------------------
 #p B2PLYPD3/Def2QZVP
 --------------------

 --------
 acrolein
 --------
 Symbolic Z-matrix:
 Charge =  0 Multiplicity = 1

                         Standard orientation:
 ---------------------------------------------------------------------
 Center     Atomic      Atomic             Coordinates (Angstroms)
 Number     Number       Type             X           Y           Z
 ---------------------------------------------------------------------
      1          6           0        0.680475    0.363602   -0.002652
      2          8           0        1.782463   -0.133337    0.018333
      3          6           0       -0.548844   -0.448444   -0.032327
      4          6           0       -1.759432    0.134243    0.013812
      5          1           0       -0.434298   -1.511048   -0.032180
      6          1           0       -1.863490    1.226572   -0.002517
      7          1           0       -2.727857   -0.436959    0.072969
      8          1           0        0.532743    1.491727   -0.057933
 ---------------------------------------------------------------------

 SCF Done:  E(RB2PLYPD3) =  -191.613724236     A.U. after   13 cycles
 E2(B2PLYPD3) =    -0.2477949104D+00 E(B2PLYPD3) =    -0.19186151914678D+03

 The electronic state is 1-A.
 Alpha  occ. eigenvalues --  -19.72897 -10.71997 -10.66176 -10.64496  -1.19736
 Alpha  occ. eigenvalues --   -0.92455  -0.74810  -0.66734  -0.56345  -0.55924
 Alpha  occ. eigenvalues --   -0.50424  -0.46941  -0.46521  -0.34454  -0.33843
 Alpha virt. eigenvalues --   -0.01782   0.05620   0.07108   0.08044   0.09698
 Alpha virt. eigenvalues --    0.12250   0.13924   0.15402   0.17587   0.19685
 Alpha virt. eigenvalues --    0.19924   0.21240   0.25392   0.26228   0.28798

 Mulliken charges:
               1
     1  C    0.158651
     2  O   -0.344916
     3  C   -0.047474
     4  C   -0.128324
     5  H    0.111233
     6  H    0.082561
     7  H    0.098474
     8  H    0.069795
 Sum of Mulliken charges =   0.00000

 Dipole moment (field-independent basis, Debye):
    X=             -3.4251    Y=              0.7862    Z=             -0.0280  Tot=              3.5142
 Quadrupole moment (field-independent basis, Debye-Ang):
   XX=            -27.3230   YY=            -21.7723   ZZ=            -25.3462
   XY=              0.9730   XZ=             -0.2630   YZ=             -0.0415

 Normal termination of Gaussian 09 at Wed Aug 26 18:59:49 2020.
