 Gaussian 09, Revision D.01,
 Gaussian 09:  ES64L-G09RevD.01 24-Apr-2013

 --------------------
 #p B2PLYPD3/Def2QZVP
 --------------------

 --------
 acrolein
 --------
 Symbolic Z-matrix:
 Charge =  0 Multiplicity = 1

                         Standard orientation:
 ---------------------------------------------------------------------
 Center     Atomic      Atomic             Coordinates (Angstroms)
 Number     Number       Type             X           Y           Z
 ---------------------------------------------------------------------
      1          6           0        0.667724    0.319542   -0.040795
      2          8           0        1.802733   -0.098149    0.037542
      3          6           0       -0.559438   -0.464925   -0.038733
      4          6           0       -1.754563    0.158055    0.035484
      5          1           0       -0.468155   -1.540698   -0.071160
      6          1           0       -1.883459    1.257431   -0.073549
      7          1           0       -2.723862   -0.417313    0.111826
      8          1           0        0.531269    1.409746   -0.003187
 ---------------------------------------------------------------------

 SCF Done:  E(RB2PLYPD3) =  -191.611685174     A.U. after   13 cycles
 E2(B2PLYPD3) =    -0.2479434482D+00 E(B2PLYPD3) =    -0.19185962862247D+03

 The electronic state is 1-A.
 Alpha  occ. eigenvalues --  -19.72588 -10.71282 -10.66849 -10.64928  -1.19279
 Alpha  occ. eigenvalues --   -0.92841  -0.75283  -0.66923  -0.56548  -0.55892
 Alpha  occ. eigenvalues --   -0.50170  -0.47076  -0.46402  -0.34526  -0.33658
 Alpha virt. eigenvalues --   -0.02157   0.05539   0.07049   0.08186   0.09574
 Alpha virt. eigenvalues --    0.12398   0.14110   0.15275   0.17612   0.19632
 Alpha virt. eigenvalues --    0.20103   0.21164   0.24806   0.26491   0.28594

 Mulliken charges:
               1
     1  C    0.154924
     2  O   -0.349852
     3  C   -0.035271
     4  C   -0.125980
     5  H    0.105740
     6  H    0.090687
     7  H    0.096787
     8  H    0.062965
 Sum of Mulliken charges =   0.00000

 Dipole moment (field-independent basis, Debye):
    X=             -3.6422    Y=              0.6616    Z=             -0.1620  Tot=              3.7054
 Quadrupole moment (field-independent basis, Debye-Ang):
   XX=            -27.4135   YY=            -21.8010   ZZ=            -25.3019
   XY=              0.7209   XZ=             -0.2892   YZ=             -0.0578

 Normal termination of Gaussian 09 at Wed Aug 26 09:29:10 2020.
