 Gaussian 09, Revision D.01,
 Gaussian 09:  ES64L-G09RevD.01 24-Apr-2013

 --------------------
 #p B2PLYPD3/Def2QZVP
 --------------------

 --------
 acrolein
 --------
 Symbolic Z-matrix:
 Charge =  0 Multiplicity = 1

                         Standard orientation:
 ---------------------------------------------------------------------
 Center     Atomic      Atomic             Coordinates (Angstroms)
 Number     Number       Type             X           Y           Z
 ---------------------------------------------------------------------
      1          6           0       -0.668082    0.358346   -0.017691
      2          8           0       -1.785832   -0.127687    0.016360
      3          6           0        0.558550   -0.441899   -0.008059
      4          6           0        1.755285    0.140227    0.008308
      5          1           0        0.454772   -1.538166   -0.014265
      6          1           0        1.794650    1.209845    0.073419
      7          1           0        2.655371   -0.431365   -0.020652
      8          1           0       -0.492656    1.441136   -0.064730
 ---------------------------------------------------------------------

 SCF Done:  E(RB2PLYPD3) =  -191.615786824     A.U. after   12 cycles
 E2(B2PLYPD3) =    -0.2474819928D+00 E(B2PLYPD3) =    -0.19186326881650D+03

 The electronic state is 1-A.
 Alpha  occ. eigenvalues --  -19.72863 -10.71650 -10.65138 -10.64380  -1.19028
 Alpha  occ. eigenvalues --   -0.93217  -0.75715  -0.66973  -0.56750  -0.56347
 Alpha  occ. eigenvalues --   -0.50573  -0.46839  -0.46550  -0.34649  -0.33994
 Alpha virt. eigenvalues --   -0.01866   0.05794   0.07061   0.08112   0.09805
 Alpha virt. eigenvalues --    0.12636   0.13966   0.15353   0.17337   0.19675
 Alpha virt. eigenvalues --    0.20123   0.21710   0.25473   0.26513   0.28904

 Mulliken charges:
               1
     1  C    0.153434
     2  O   -0.352555
     3  C   -0.032795
     4  C   -0.134604
     5  H    0.101511
     6  H    0.083321
     7  H    0.106526
     8  H    0.075161
 Sum of Mulliken charges =   0.00000

 Dipole moment (field-independent basis, Debye):
    X=              3.5093    Y=              0.7934    Z=             -0.0478  Tot=              3.5982
 Quadrupole moment (field-independent basis, Debye-Ang):
   XX=            -27.5586   YY=            -21.6904   ZZ=            -25.2008
   XY=             -1.0674   XZ=              0.1335   YZ=              0.0894

 Normal termination of Gaussian 09 at Wed Aug 26 16:34:32 2020.
