 Gaussian 09, Revision D.01,
 Gaussian 09:  ES64L-G09RevD.01 24-Apr-2013

 --------------------
 #p B2PLYPD3/Def2QZVP
 --------------------

 --------
 acrolein
 --------
 Symbolic Z-matrix:
 Charge =  0 Multiplicity = 1

                         Standard orientation:
 ---------------------------------------------------------------------
 Center     Atomic      Atomic             Coordinates (Angstroms)
 Number     Number       Type             X           Y           Z
 ---------------------------------------------------------------------
      1          6           0       -0.679537    0.362263    0.008103
      2          8           0       -1.765321   -0.141728   -0.018063
      3          6           0        0.564066   -0.448408    0.035649
      4          6           0        1.751519    0.151889   -0.028257
      5          1           0        0.463403   -1.503310    0.024105
      6          1           0        1.751390    1.174457    0.050103
      7          1           0        2.642616   -0.430446   -0.049214
      8          1           0       -0.551128    1.498653    0.026544
 ---------------------------------------------------------------------

 SCF Done:  E(RB2PLYPD3) =  -191.612538229     A.U. after   12 cycles
 E2(B2PLYPD3) =    -0.2463153196D+00 E(B2PLYPD3) =    -0.19185885354875D+03

 The electronic state is 1-A.
 Alpha  occ. eigenvalues --  -19.72860 -10.71874 -10.64298 -10.63937  -1.20438
 Alpha  occ. eigenvalues --   -0.93053  -0.75000  -0.67108  -0.57338  -0.56140
 Alpha  occ. eigenvalues --   -0.50583  -0.47873  -0.47167  -0.34571  -0.33716
 Alpha virt. eigenvalues --   -0.01286   0.05982   0.07144   0.08089   0.09930
 Alpha virt. eigenvalues --    0.12631   0.13853   0.15361   0.17417   0.19877
 Alpha virt. eigenvalues --    0.20302   0.21720   0.25364   0.26278   0.28956

 Mulliken charges:
               1
     1  C    0.151080
     2  O   -0.336993
     3  C   -0.040594
     4  C   -0.136429
     5  H    0.106379
     6  H    0.087929
     7  H    0.103135
     8  H    0.065493
 Sum of Mulliken charges =   0.00000

 Dipole moment (field-independent basis, Debye):
    X=              3.2752    Y=              0.7619    Z=              0.0765  Tot=              3.3635
 Quadrupole moment (field-independent basis, Debye-Ang):
   XX=            -27.4232   YY=            -21.6950   ZZ=            -25.1398
   XY=             -1.2416   XZ=             -0.1256   YZ=              0.0888

 Normal termination of Gaussian 09 at Wed Aug 26 10:26:13 2020.
