 Gaussian 09, Revision D.01,
 Gaussian 09:  ES64L-G09RevD.01 24-Apr-2013

 --------------------
 #p B2PLYPD3/Def2QZVP
 --------------------

 --------
 acrolein
 --------
 Symbolic Z-matrix:
 Charge =  0 Multiplicity = 1

                         Standard orientation:
 ---------------------------------------------------------------------
 Center     Atomic      Atomic             Coordinates (Angstroms)
 Number     Number       Type             X           Y           Z
 ---------------------------------------------------------------------
      1          6           0        0.659405    0.341542    0.009738
      2          8           0        1.794302   -0.109395   -0.015922
      3          6           0       -0.565001   -0.457305    0.007202
      4          6           0       -1.748858    0.145616   -0.023259
      5          1           0       -0.462089   -1.558832    0.053483
      6          1           0       -1.856390    1.235870   -0.028018
      7          1           0       -2.614447   -0.402548    0.040891
      8          1           0        0.505233    1.421556    0.098941
 ---------------------------------------------------------------------

 SCF Done:  E(RB2PLYPD3) =  -191.613556002     A.U. after   12 cycles
 E2(B2PLYPD3) =    -0.2473893168D+00 E(B2PLYPD3) =    -0.19186094531910D+03

 The electronic state is 1-A.
 Alpha  occ. eigenvalues --  -19.72692 -10.71449 -10.65061 -10.64664  -1.18754
 Alpha  occ. eigenvalues --   -0.93395  -0.76072  -0.66858  -0.56870  -0.56498
 Alpha  occ. eigenvalues --   -0.50467  -0.47073  -0.46309  -0.34789  -0.33835
 Alpha virt. eigenvalues --   -0.01904   0.05788   0.07004   0.08180   0.09696
 Alpha virt. eigenvalues --    0.12695   0.14210   0.15294   0.17282   0.19600
 Alpha virt. eigenvalues --    0.20109   0.21971   0.25324   0.26566   0.28620

 Mulliken charges:
               1
     1  C    0.154554
     2  O   -0.355144
     3  C   -0.035578
     4  C   -0.126676
     5  H    0.101881
     6  H    0.084293
     7  H    0.103293
     8  H    0.073377
 Sum of Mulliken charges =   0.00000

 Dipole moment (field-independent basis, Debye):
    X=             -3.6099    Y=              0.7319    Z=              0.1415  Tot=              3.6861
 Quadrupole moment (field-independent basis, Debye-Ang):
   XX=            -27.5861   YY=            -21.6290   ZZ=            -25.1688
   XY=              0.8159   XZ=             -0.0010   YZ=             -0.0878

 Normal termination of Gaussian 09 at Wed Aug 26 18:36:20 2020.
