 Gaussian 09, Revision D.01,
 Gaussian 09:  ES64L-G09RevD.01 24-Apr-2013

 --------------------
 #p B2PLYPD3/Def2QZVP
 --------------------

 --------
 acrolein
 --------
 Symbolic Z-matrix:
 Charge =  0 Multiplicity = 1

                         Standard orientation:
 ---------------------------------------------------------------------
 Center     Atomic      Atomic             Coordinates (Angstroms)
 Number     Number       Type             X           Y           Z
 ---------------------------------------------------------------------
      1          6           0        0.676371    0.351689   -0.033084
      2          8           0        1.777908   -0.125508    0.024696
      3          6           0       -0.542259   -0.437926   -0.006940
      4          6           0       -1.758149    0.134450    0.007284
      5          1           0       -0.422191   -1.490314   -0.030628
      6          1           0       -1.848470    1.208856    0.082483
      7          1           0       -2.709499   -0.453956   -0.001043
      8          1           0        0.501120    1.450200   -0.051946
 ---------------------------------------------------------------------

 SCF Done:  E(RB2PLYPD3) =  -191.615123256     A.U. after   13 cycles
 E2(B2PLYPD3) =    -0.2470303435D+00 E(B2PLYPD3) =    -0.19186215359916D+03

 The electronic state is 1-A.
 Alpha  occ. eigenvalues --  -19.72796 -10.71370 -10.66016 -10.64073  -1.20104
 Alpha  occ. eigenvalues --   -0.92859  -0.75462  -0.67164  -0.56627  -0.56165
 Alpha  occ. eigenvalues --   -0.50590  -0.47166  -0.46911  -0.34483  -0.33866
 Alpha virt. eigenvalues --   -0.01909   0.05676   0.07251   0.08366   0.09780
 Alpha virt. eigenvalues --    0.12474   0.13887   0.15383   0.17721   0.19669
 Alpha virt. eigenvalues --    0.19994   0.21385   0.25476   0.26445   0.28778

 Mulliken charges:
               1
     1  C    0.156527
     2  O   -0.345118
     3  C   -0.036350
     4  C   -0.134230
     5  H    0.107419
     6  H    0.084997
     7  H    0.101095
     8  H    0.065661
 Sum of Mulliken charges =   0.00000

 Dipole moment (field-independent basis, Debye):
    X=             -3.4527    Y=              0.7479    Z=             -0.0680  Tot=              3.5335
 Quadrupole moment (field-independent basis, Debye-Ang):
   XX=            -27.2471   YY=            -21.8644   ZZ=            -25.2155
   XY=              0.9285   XZ=             -0.2269   YZ=              0.1285

 Normal termination of Gaussian 09 at Wed Aug 26 09:05:14 2020.
