 Gaussian 09, Revision D.01,
 Gaussian 09:  ES64L-G09RevD.01 24-Apr-2013

 --------------------
 #p B2PLYPD3/Def2QZVP
 --------------------

 --------
 acrolein
 --------
 Symbolic Z-matrix:
 Charge =  0 Multiplicity = 1

                         Standard orientation:
 ---------------------------------------------------------------------
 Center     Atomic      Atomic             Coordinates (Angstroms)
 Number     Number       Type             X           Y           Z
 ---------------------------------------------------------------------
      1          6           0       -0.678506    0.354884    0.015004
      2          8           0       -1.792819   -0.110134   -0.020532
      3          6           0        0.570682   -0.477116    0.002500
      4          6           0        1.763707    0.152513    0.005955
      5          1           0        0.440922   -1.565745    0.072216
      6          1           0        1.895853    1.304813   -0.055880
      7          1           0        2.637781   -0.422350   -0.070768
      8          1           0       -0.567304    1.382666    0.077940
 ---------------------------------------------------------------------

 SCF Done:  E(RB2PLYPD3) =  -191.607008859     A.U. after   12 cycles
 E2(B2PLYPD3) =    -0.2472227915D+00 E(B2PLYPD3) =    -0.19185423165052D+03

 The electronic state is 1-A.
 Alpha  occ. eigenvalues --  -19.72559 -10.70905 -10.65965 -10.65059  -1.19538
 Alpha  occ. eigenvalues --   -0.92101  -0.75170  -0.67501  -0.56219  -0.56171
 Alpha  occ. eigenvalues --   -0.50553  -0.46831  -0.46359  -0.34409  -0.33674
 Alpha virt. eigenvalues --   -0.01537   0.05623   0.07231   0.07772   0.09561
 Alpha virt. eigenvalues --    0.12429   0.14082   0.15333   0.17638   0.19257
 Alpha virt. eigenvalues --    0.19936   0.21739   0.25003   0.26653   0.28596

 Mulliken charges:
               1
     1  C    0.161432
     2  O   -0.349192
     3  C   -0.061446
     4  C   -0.129551
     5  H    0.108873
     6  H    0.082645
     7  H    0.101646
     8  H    0.085592
 Sum of Mulliken charges =   0.00000

 Dipole moment (field-independent basis, Debye):
    X=              3.4091    Y=              0.7996    Z=              0.0512  Tot=              3.5019
 Quadrupole moment (field-independent basis, Debye-Ang):
   XX=            -27.7421   YY=            -21.3829   ZZ=            -25.3126
   XY=             -0.8733   XZ=             -0.3446   YZ=             -0.1130

 Normal termination of Gaussian 09 at Wed Aug 26 08:54:21 2020.
