 Gaussian 09, Revision D.01,
 Gaussian 09:  ES64L-G09RevD.01 24-Apr-2013

 --------------------
 #p B2PLYPD3/Def2QZVP
 --------------------

 --------
 acrolein
 --------
 Symbolic Z-matrix:
 Charge =  0 Multiplicity = 1

                         Standard orientation:
 ---------------------------------------------------------------------
 Center     Atomic      Atomic             Coordinates (Angstroms)
 Number     Number       Type             X           Y           Z
 ---------------------------------------------------------------------
      1          6           0       -0.651527    0.342490   -0.029596
      2          8           0       -1.801180   -0.099043    0.036786
      3          6           0        0.563069   -0.483008   -0.037654
      4          6           0        1.748614    0.145985    0.002452
      5          1           0        0.460510   -1.592563   -0.068906
      6          1           0        1.920058    1.300552    0.006869
      7          1           0        2.576431   -0.394550    0.199030
      8          1           0       -0.508499    1.446108   -0.042492
 ---------------------------------------------------------------------

 SCF Done:  E(RB2PLYPD3) =  -191.602470046     A.U. after   13 cycles
 E2(B2PLYPD3) =    -0.2489646948D+00 E(B2PLYPD3) =    -0.19185143474102D+03

 The electronic state is 1-A.
 Alpha  occ. eigenvalues --  -19.72576 -10.71780 -10.65871 -10.65350  -1.17967
 Alpha  occ. eigenvalues --   -0.93042  -0.75823  -0.66367  -0.56701  -0.55725
 Alpha  occ. eigenvalues --   -0.49920  -0.47011  -0.45796  -0.34541  -0.33680
 Alpha virt. eigenvalues --   -0.02144   0.05534   0.06878   0.07749   0.09519
 Alpha virt. eigenvalues --    0.12376   0.14190   0.15218   0.17194   0.19459
 Alpha virt. eigenvalues --    0.19854   0.22064   0.24835   0.26420   0.28455

 Mulliken charges:
               1
     1  C    0.156274
     2  O   -0.361244
     3  C   -0.043993
     4  C   -0.119586
     5  H    0.107617
     6  H    0.082714
     7  H    0.102348
     8  H    0.075869
 Sum of Mulliken charges =   0.00000

 Dipole moment (field-independent basis, Debye):
    X=              3.6962    Y=              0.6887    Z=             -0.0172  Tot=              3.7598
 Quadrupole moment (field-independent basis, Debye-Ang):
   XX=            -27.8523   YY=            -21.4195   ZZ=            -25.3149
   XY=             -0.6700   XZ=              0.6438   YZ=             -0.0197

 Normal termination of Gaussian 09 at Wed Aug 26 21:59:48 2020.
