 Gaussian 09, Revision D.01,
 Gaussian 09:  ES64L-G09RevD.01 24-Apr-2013

 --------------------
 #p B2PLYPD3/Def2QZVP
 --------------------

 --------
 acrolein
 --------
 Symbolic Z-matrix:
 Charge =  0 Multiplicity = 1

                         Standard orientation:
 ---------------------------------------------------------------------
 Center     Atomic      Atomic             Coordinates (Angstroms)
 Number     Number       Type             X           Y           Z
 ---------------------------------------------------------------------
      1          6           0       -0.667463    0.365752    0.018135
      2          8           0       -1.764564   -0.129003   -0.052712
      3          6           0        0.582767   -0.484507    0.081622
      4          6           0        1.745554    0.157919   -0.065596
      5          1           0        0.443920   -1.529479    0.096102
      6          1           0        1.754416    1.298339    0.043489
      7          1           0        2.602966   -0.383270   -0.104121
      8          1           0       -0.649938    1.411448    0.181268
 ---------------------------------------------------------------------

 SCF Done:  E(RB2PLYPD3) =  -191.602737546     A.U. after   13 cycles
 E2(B2PLYPD3) =    -0.2467123448D+00 E(B2PLYPD3) =    -0.19184944989068D+03

 The electronic state is 1-A.
 Alpha  occ. eigenvalues --  -19.72364 -10.71037 -10.65017 -10.64422  -1.19677
 Alpha  occ. eigenvalues --   -0.92517  -0.74634  -0.67836  -0.57371  -0.55846
 Alpha  occ. eigenvalues --   -0.50526  -0.47479  -0.46300  -0.34464  -0.33430
 Alpha virt. eigenvalues --   -0.01058   0.05834   0.06903   0.07855   0.09725
 Alpha virt. eigenvalues --    0.12319   0.14069   0.15367   0.17575   0.19354
 Alpha virt. eigenvalues --    0.19998   0.21766   0.24749   0.26158   0.28840

 Mulliken charges:
               1
     1  C    0.159999
     2  O   -0.346521
     3  C   -0.069159
     4  C   -0.123818
     5  H    0.114236
     6  H    0.081849
     7  H    0.100254
     8  H    0.083159
 Sum of Mulliken charges =   0.00000

 Dipole moment (field-independent basis, Debye):
    X=              3.2615    Y=              0.8054    Z=              0.2372  Tot=              3.3678
 Quadrupole moment (field-independent basis, Debye-Ang):
   XX=            -27.7800   YY=            -21.3300   ZZ=            -25.1904
   XY=             -1.2831   XZ=             -0.4546   YZ=              0.1009

 Normal termination of Gaussian 09 at Wed Aug 26 12:58:29 2020.
