 Gaussian 09, Revision D.01,
 Gaussian 09:  ES64L-G09RevD.01 24-Apr-2013

 --------------------
 #p B2PLYPD3/Def2QZVP
 --------------------

 --------
 acrolein
 --------
 Symbolic Z-matrix:
 Charge =  0 Multiplicity = 1

                         Standard orientation:
 ---------------------------------------------------------------------
 Center     Atomic      Atomic             Coordinates (Angstroms)
 Number     Number       Type             X           Y           Z
 ---------------------------------------------------------------------
      1          6           0       -0.671279    0.333389    0.046149
      2          8           0       -1.779739   -0.106189   -0.045720
      3          6           0        0.567455   -0.459266    0.022228
      4          6           0        1.757001    0.155337   -0.041124
      5          1           0        0.452385   -1.568301    0.137498
      6          1           0        1.856669    1.220695    0.013864
      7          1           0        2.574804   -0.389656   -0.053008
      8          1           0       -0.565013    1.410009    0.103891
 ---------------------------------------------------------------------

 SCF Done:  E(RB2PLYPD3) =  -191.607243799     A.U. after   12 cycles
 E2(B2PLYPD3) =    -0.2459929599D+00 E(B2PLYPD3) =    -0.19185323675937D+03

 The electronic state is 1-A.
 Alpha  occ. eigenvalues --  -19.72511 -10.70909 -10.64873 -10.64321  -1.20254
 Alpha  occ. eigenvalues --   -0.93012  -0.76256  -0.66864  -0.57270  -0.56867
 Alpha  occ. eigenvalues --   -0.50822  -0.47871  -0.46640  -0.34556  -0.33576
 Alpha virt. eigenvalues --   -0.01574   0.05975   0.07060   0.08405   0.09703
 Alpha virt. eigenvalues --    0.12780   0.14304   0.15291   0.17339   0.19944
 Alpha virt. eigenvalues --    0.20018   0.22230   0.25269   0.26407   0.28677

 Mulliken charges:
               1
     1  C    0.152354
     2  O   -0.340584
     3  C   -0.038082
     4  C   -0.132836
     5  H    0.097572
     6  H    0.088245
     7  H    0.105626
     8  H    0.067705
 Sum of Mulliken charges =   0.00000

 Dipole moment (field-independent basis, Debye):
    X=              3.4377    Y=              0.7162    Z=              0.2777  Tot=              3.5225
 Quadrupole moment (field-independent basis, Debye-Ang):
   XX=            -27.3783   YY=            -21.6387   ZZ=            -25.0868
   XY=             -0.8267   XZ=             -0.2594   YZ=             -0.1185

 Normal termination of Gaussian 09 at Wed Aug 26 09:19:00 2020.
