 Gaussian 09, Revision D.01,
 Gaussian 09:  ES64L-G09RevD.01 24-Apr-2013

 --------------------
 #p B2PLYPD3/Def2QZVP
 --------------------

 --------
 acrolein
 --------
 Symbolic Z-matrix:
 Charge =  0 Multiplicity = 1

                         Standard orientation:
 ---------------------------------------------------------------------
 Center     Atomic      Atomic             Coordinates (Angstroms)
 Number     Number       Type             X           Y           Z
 ---------------------------------------------------------------------
      1          6           0       -0.680644    0.352819    0.011860
      2          8           0       -1.781920   -0.126253   -0.019922
      3          6           0        0.560694   -0.440273    0.016777
      4          6           0        1.764511    0.131123   -0.016089
      5          1           0        0.434602   -1.513196    0.041408
      6          1           0        1.839805    1.229009   -0.048378
      7          1           0        2.638906   -0.419452   -0.000890
      8          1           0       -0.525324    1.451651    0.091956
 ---------------------------------------------------------------------

 SCF Done:  E(RB2PLYPD3) =  -191.615868761     A.U. after   12 cycles
 E2(B2PLYPD3) =    -0.2465370479D+00 E(B2PLYPD3) =    -0.19186240580887D+03

 The electronic state is 1-A.
 Alpha  occ. eigenvalues --  -19.72900 -10.71560 -10.65042 -10.64243  -1.20162
 Alpha  occ. eigenvalues --   -0.92893  -0.75695  -0.66786  -0.57056  -0.56314
 Alpha  occ. eigenvalues --   -0.51099  -0.47143  -0.46737  -0.34666  -0.33846
 Alpha virt. eigenvalues --   -0.01628   0.05845   0.07253   0.08333   0.09777
 Alpha virt. eigenvalues --    0.12569   0.14043   0.15422   0.17472   0.19518
 Alpha virt. eigenvalues --    0.20038   0.21878   0.25526   0.26497   0.28762

 Mulliken charges:
               1
     1  C    0.159160
     2  O   -0.342176
     3  C   -0.042415
     4  C   -0.132238
     5  H    0.102630
     6  H    0.080585
     7  H    0.106982
     8  H    0.067473
 Sum of Mulliken charges =   0.00000

 Dipole moment (field-independent basis, Debye):
    X=              3.3963    Y=              0.7471    Z=              0.0816  Tot=              3.4784
 Quadrupole moment (field-independent basis, Debye-Ang):
   XX=            -27.2997   YY=            -21.8116   ZZ=            -25.1680
   XY=             -0.9894   XZ=             -0.1582   YZ=             -0.0723

 Normal termination of Gaussian 09 at Wed Aug 26 15:50:58 2020.
