 Gaussian 09, Revision D.01,
 Gaussian 09:  ES64L-G09RevD.01 24-Apr-2013

 --------------------
 #p B2PLYPD3/Def2QZVP
 --------------------

 --------
 acrolein
 --------
 Symbolic Z-matrix:
 Charge =  0 Multiplicity = 1

                         Standard orientation:
 ---------------------------------------------------------------------
 Center     Atomic      Atomic             Coordinates (Angstroms)
 Number     Number       Type             X           Y           Z
 ---------------------------------------------------------------------
      1          6           0       -0.690529    0.366080    0.036954
      2          8           0       -1.778866   -0.134899   -0.019851
      3          6           0        0.565372   -0.429741    0.002678
      4          6           0        1.767987    0.137652   -0.019153
      5          1           0        0.434242   -1.578781    0.020296
      6          1           0        1.828098    1.207165   -0.027277
      7          1           0        2.628824   -0.446882    0.040667
      8          1           0       -0.517217    1.453743    0.002254
 ---------------------------------------------------------------------

 SCF Done:  E(RB2PLYPD3) =  -191.611681506     A.U. after   12 cycles
 E2(B2PLYPD3) =    -0.2467989064D+00 E(B2PLYPD3) =    -0.19185848041212D+03

 The electronic state is 1-A.
 Alpha  occ. eigenvalues --  -19.73080 -10.71712 -10.64840 -10.64586  -1.20391
 Alpha  occ. eigenvalues --   -0.92645  -0.75515  -0.66250  -0.56791  -0.56445
 Alpha  occ. eigenvalues --   -0.51131  -0.47190  -0.46051  -0.34679  -0.33874
 Alpha virt. eigenvalues --   -0.01510   0.05900   0.06965   0.08191   0.09809
 Alpha virt. eigenvalues --    0.12591   0.14019   0.15426   0.17106   0.19752
 Alpha virt. eigenvalues --    0.19874   0.22079   0.25611   0.26494   0.28624

 Mulliken charges:
               1
     1  C    0.161438
     2  O   -0.337226
     3  C   -0.040979
     4  C   -0.137977
     5  H    0.092432
     6  H    0.082123
     7  H    0.109258
     8  H    0.070931
 Sum of Mulliken charges =   0.00000

 Dipole moment (field-independent basis, Debye):
    X=              3.2849    Y=              0.8360    Z=              0.1188  Tot=              3.3917
 Quadrupole moment (field-independent basis, Debye-Ang):
   XX=            -27.4275   YY=            -21.7319   ZZ=            -25.2322
   XY=             -1.0635   XZ=             -0.0123   YZ=             -0.0839

 Normal termination of Gaussian 09 at Wed Aug 26 09:09:43 2020.
