 Gaussian 09, Revision D.01,
 Gaussian 09:  ES64L-G09RevD.01 24-Apr-2013

 --------------------
 #p B2PLYPD3/Def2QZVP
 --------------------

 --------
 acrolein
 --------
 Symbolic Z-matrix:
 Charge =  0 Multiplicity = 1

                         Standard orientation:
 ---------------------------------------------------------------------
 Center     Atomic      Atomic             Coordinates (Angstroms)
 Number     Number       Type             X           Y           Z
 ---------------------------------------------------------------------
      1          6           0       -0.662837    0.339735    0.010506
      2          8           0       -1.794506   -0.103947   -0.013124
      3          6           0        0.561703   -0.461374    0.016315
      4          6           0        1.755179    0.150818   -0.017285
      5          1           0        0.389510   -1.584081    0.040462
      6          1           0        1.841753    1.228207    0.054929
      7          1           0        2.683631   -0.420121   -0.050370
      8          1           0       -0.483114    1.432495    0.002755
 ---------------------------------------------------------------------

 SCF Done:  E(RB2PLYPD3) =  -191.613593440     A.U. after   12 cycles
 E2(B2PLYPD3) =    -0.2480178245D+00 E(B2PLYPD3) =    -0.19186161126486D+03

 The electronic state is 1-A.
 Alpha  occ. eigenvalues --  -19.72771 -10.71505 -10.65968 -10.65182  -1.19137
 Alpha  occ. eigenvalues --   -0.92919  -0.75575  -0.66425  -0.56488  -0.56006
 Alpha  occ. eigenvalues --   -0.50327  -0.46872  -0.46427  -0.34625  -0.33777
 Alpha virt. eigenvalues --   -0.02006   0.05694   0.06911   0.08149   0.09721
 Alpha virt. eigenvalues --    0.12560   0.13939   0.15288   0.17061   0.19823
 Alpha virt. eigenvalues --    0.20051   0.21567   0.25204   0.26606   0.28620

 Mulliken charges:
               1
     1  C    0.159992
     2  O   -0.353384
     3  C   -0.033872
     4  C   -0.131763
     5  H    0.101470
     6  H    0.090099
     7  H    0.103891
     8  H    0.063567
 Sum of Mulliken charges =   0.00000

 Dipole moment (field-independent basis, Debye):
    X=              3.5762    Y=              0.7088    Z=              0.0810  Tot=              3.6467
 Quadrupole moment (field-independent basis, Debye-Ang):
   XX=            -27.5312   YY=            -21.7339   ZZ=            -25.3095
   XY=             -0.6563   XZ=             -0.0799   YZ=              0.0473

 Normal termination of Gaussian 09 at Wed Aug 26 13:49:50 2020.
