 Gaussian 09, Revision D.01,
 Gaussian 09:  ES64L-G09RevD.01 24-Apr-2013

 --------------------
 #p B2PLYPD3/Def2QZVP
 --------------------

 --------
 acrolein
 --------
 Symbolic Z-matrix:
 Charge =  0 Multiplicity = 1

                         Standard orientation:
 ---------------------------------------------------------------------
 Center     Atomic      Atomic             Coordinates (Angstroms)
 Number     Number       Type             X           Y           Z
 ---------------------------------------------------------------------
      1          6           0        0.654178    0.321985   -0.000609
      2          8           0        1.801451   -0.099711   -0.008113
      3          6           0       -0.567376   -0.483882    0.000737
      4          6           0       -1.742624    0.161325   -0.023441
      5          1           0       -0.480109   -1.489935    0.060179
      6          1           0       -1.847715    1.275492   -0.000478
      7          1           0       -2.646107   -0.429198    0.053257
      8          1           0        0.497247    1.444760    0.091823
 ---------------------------------------------------------------------

 SCF Done:  E(RB2PLYPD3) =  -191.609289427     A.U. after   13 cycles
 E2(B2PLYPD3) =    -0.2480369649D+00 E(B2PLYPD3) =    -0.19185732639218D+03

 The electronic state is 1-A.
 Alpha  occ. eigenvalues --  -19.72652 -10.71758 -10.66208 -10.64144  -1.18644
 Alpha  occ. eigenvalues --   -0.93416  -0.75271  -0.67467  -0.56543  -0.55972
 Alpha  occ. eigenvalues --   -0.50253  -0.47748  -0.46268  -0.34731  -0.33573
 Alpha virt. eigenvalues --   -0.02012   0.05636   0.07080   0.08057   0.09644
 Alpha virt. eigenvalues --    0.12540   0.13837   0.15243   0.17776   0.19368
 Alpha virt. eigenvalues --    0.20071   0.21508   0.25053   0.26560   0.28653

 Mulliken charges:
               1
     1  C    0.155011
     2  O   -0.355344
     3  C   -0.041209
     4  C   -0.120835
     5  H    0.112756
     6  H    0.092416
     7  H    0.096144
     8  H    0.061061
 Sum of Mulliken charges =   0.00000

 Dipole moment (field-independent basis, Debye):
    X=             -3.6642    Y=              0.6170    Z=              0.1491  Tot=              3.7188
 Quadrupole moment (field-independent basis, Debye-Ang):
   XX=            -27.7333   YY=            -21.6304   ZZ=            -25.2348
   XY=              0.7278   XZ=             -0.1183   YZ=             -0.0806

 Normal termination of Gaussian 09 at Wed Aug 26 09:12:05 2020.
