 Gaussian 09, Revision D.01,
 Gaussian 09:  ES64L-G09RevD.01 24-Apr-2013

 --------------------
 #p B2PLYPD3/Def2QZVP
 --------------------

 --------
 acrolein
 --------
 Symbolic Z-matrix:
 Charge =  0 Multiplicity = 1

                         Standard orientation:
 ---------------------------------------------------------------------
 Center     Atomic      Atomic             Coordinates (Angstroms)
 Number     Number       Type             X           Y           Z
 ---------------------------------------------------------------------
      1          6           0       -0.673509    0.352146    0.020976
      2          8           0       -1.777653   -0.130632   -0.014201
      3          6           0        0.552631   -0.438631    0.001406
      4          6           0        1.755702    0.145027   -0.013775
      5          1           0        0.458465   -1.502118    0.033559
      6          1           0        1.789878    1.175986   -0.019375
      7          1           0        2.691635   -0.430529    0.021047
      8          1           0       -0.527703    1.450472    0.026736
 ---------------------------------------------------------------------

 SCF Done:  E(RB2PLYPD3) =  -191.614933545     A.U. after   12 cycles
 E2(B2PLYPD3) =    -0.2466895118D+00 E(B2PLYPD3) =    -0.19186162305689D+03

 The electronic state is 1-A.
 Alpha  occ. eigenvalues --  -19.72754 -10.71447 -10.65094 -10.64062  -1.19845
 Alpha  occ. eigenvalues --   -0.93172  -0.75591  -0.67400  -0.57076  -0.56298
 Alpha  occ. eigenvalues --   -0.50525  -0.47371  -0.46976  -0.34564  -0.33882
 Alpha virt. eigenvalues --   -0.01772   0.05823   0.07195   0.08319   0.09828
 Alpha virt. eigenvalues --    0.12617   0.13990   0.15376   0.17573   0.19914
 Alpha virt. eigenvalues --    0.20110   0.21533   0.25603   0.26308   0.29025

 Mulliken charges:
               1
     1  C    0.148790
     2  O   -0.345733
     3  C   -0.031196
     4  C   -0.136897
     5  H    0.105003
     6  H    0.086951
     7  H    0.103401
     8  H    0.069681
 Sum of Mulliken charges =   0.00000

 Dipole moment (field-independent basis, Debye):
    X=              3.4480    Y=              0.7778    Z=              0.0970  Tot=              3.5359
 Quadrupole moment (field-independent basis, Debye-Ang):
   XX=            -27.3221   YY=            -21.7901   ZZ=            -25.1483
   XY=             -1.0985   XZ=             -0.0193   YZ=             -0.0739

 Normal termination of Gaussian 09 at Wed Aug 26 12:58:32 2020.
