 Gaussian 09, Revision D.01,
 Gaussian 09:  ES64L-G09RevD.01 24-Apr-2013

 --------------------
 #p B2PLYPD3/Def2QZVP
 --------------------

 --------
 acrolein
 --------
 Symbolic Z-matrix:
 Charge =  0 Multiplicity = 1

                         Standard orientation:
 ---------------------------------------------------------------------
 Center     Atomic      Atomic             Coordinates (Angstroms)
 Number     Number       Type             X           Y           Z
 ---------------------------------------------------------------------
      1          6           0        0.664245    0.343522    0.012789
      2          8           0        1.788438   -0.117025   -0.019399
      3          6           0       -0.546634   -0.442764    0.008023
      4          6           0       -1.754635    0.147981   -0.028878
      5          1           0       -0.388942   -1.563023    0.079758
      6          1           0       -1.798014    1.177455   -0.010284
      7          1           0       -2.747260   -0.456212    0.030912
      8          1           0        0.448855    1.485545    0.103199
 ---------------------------------------------------------------------

 SCF Done:  E(RB2PLYPD3) =  -191.604748200     A.U. after   12 cycles
 E2(B2PLYPD3) =    -0.2488522652D+00 E(B2PLYPD3) =    -0.19185360046493D+03

 The electronic state is 1-A.
 Alpha  occ. eigenvalues --  -19.73035 -10.72085 -10.66256 -10.65029  -1.19380
 Alpha  occ. eigenvalues --   -0.93172  -0.75560  -0.66056  -0.56424  -0.55755
 Alpha  occ. eigenvalues --   -0.50009  -0.47070  -0.46343  -0.34640  -0.33868
 Alpha virt. eigenvalues --   -0.02276   0.05595   0.06603   0.08323   0.09810
 Alpha virt. eigenvalues --    0.12406   0.13694   0.15252   0.17002   0.19794
 Alpha virt. eigenvalues --    0.20220   0.21302   0.25314   0.26402   0.28779

 Mulliken charges:
               1
     1  C    0.158031
     2  O   -0.348846
     3  C   -0.021732
     4  C   -0.133529
     5  H    0.100329
     6  H    0.092546
     7  H    0.103228
     8  H    0.049972
 Sum of Mulliken charges =   0.00000

 Dipole moment (field-independent basis, Debye):
    X=             -3.5633    Y=              0.6758    Z=              0.1739  Tot=              3.6310
 Quadrupole moment (field-independent basis, Debye-Ang):
   XX=            -27.3720   YY=            -21.9715   ZZ=            -25.3587
   XY=              0.7650   XZ=             -0.0111   YZ=             -0.1040

 Normal termination of Gaussian 09 at Wed Aug 26 09:01:50 2020.
