 Gaussian 09, Revision D.01,
 Gaussian 09:  ES64L-G09RevD.01 24-Apr-2013

 --------------------
 #p B2PLYPD3/Def2QZVP
 --------------------

 --------
 acrolein
 --------
 Symbolic Z-matrix:
 Charge =  0 Multiplicity = 1

                         Standard orientation:
 ---------------------------------------------------------------------
 Center     Atomic      Atomic             Coordinates (Angstroms)
 Number     Number       Type             X           Y           Z
 ---------------------------------------------------------------------
      1          6           0        0.669415    0.353009    0.008059
      2          8           0        1.778095   -0.129128   -0.011268
      3          6           0       -0.554334   -0.437549    0.001481
      4          6           0       -1.748068    0.131272   -0.014667
      5          1           0       -0.449055   -1.495847    0.064056
      6          1           0       -1.819552    1.232942    0.011924
      7          1           0       -2.692671   -0.424358   -0.001693
      8          1           0        0.534440    1.439895    0.046619
 ---------------------------------------------------------------------

 SCF Done:  E(RB2PLYPD3) =  -191.616331170     A.U. after   13 cycles
 E2(B2PLYPD3) =    -0.2467508704D+00 E(B2PLYPD3) =    -0.19186308204054D+03

 The electronic state is 1-A.
 Alpha  occ. eigenvalues --  -19.72717 -10.71333 -10.65631 -10.63911  -1.19615
 Alpha  occ. eigenvalues --   -0.93299  -0.75397  -0.67226  -0.56645  -0.56488
 Alpha  occ. eigenvalues --   -0.50698  -0.47030  -0.46348  -0.34826  -0.33911
 Alpha virt. eigenvalues --   -0.01661   0.05709   0.07194   0.08361   0.09743
 Alpha virt. eigenvalues --    0.12452   0.14065   0.15354   0.17676   0.19671
 Alpha virt. eigenvalues --    0.19928   0.21441   0.25687   0.26421   0.29008

 Mulliken charges:
               1
     1  C    0.153517
     2  O   -0.348798
     3  C   -0.037247
     4  C   -0.127354
     5  H    0.106380
     6  H    0.078281
     7  H    0.102308
     8  H    0.072914
 Sum of Mulliken charges =   0.00000

 Dipole moment (field-independent basis, Debye):
    X=             -3.4701    Y=              0.7770    Z=              0.1170  Tot=              3.5580
 Quadrupole moment (field-independent basis, Debye-Ang):
   XX=            -27.3377   YY=            -21.8034   ZZ=            -25.1522
   XY=              1.0805   XZ=              0.0035   YZ=             -0.0535

 Normal termination of Gaussian 09 at Wed Aug 26 09:55:38 2020.
