 Gaussian 09, Revision D.01,
 Gaussian 09:  ES64L-G09RevD.01 24-Apr-2013

 --------------------
 #p B2PLYPD3/Def2QZVP
 --------------------

 --------
 acrolein
 --------
 Symbolic Z-matrix:
 Charge =  0 Multiplicity = 1

                         Standard orientation:
 ---------------------------------------------------------------------
 Center     Atomic      Atomic             Coordinates (Angstroms)
 Number     Number       Type             X           Y           Z
 ---------------------------------------------------------------------
      1          6           0       -0.682287    0.356011    0.017546
      2          8           0       -1.789051   -0.120577   -0.020410
      3          6           0        0.532183   -0.446076    0.040234
      4          6           0        1.771235    0.141393   -0.026494
      5          1           0        0.425788   -1.559728   -0.023058
      6          1           0        1.870604    1.192975    0.004872
      7          1           0        2.775431   -0.434294   -0.021315
      8          1           0       -0.486193    1.457693    0.015065
 ---------------------------------------------------------------------

 SCF Done:  E(RB2PLYPD3) =  -191.608127520     A.U. after   13 cycles
 E2(B2PLYPD3) =    -0.2485270343D+00 E(B2PLYPD3) =    -0.19185665455388D+03

 The electronic state is 1-A.
 Alpha  occ. eigenvalues --  -19.72865 -10.71685 -10.66707 -10.65271  -1.19907
 Alpha  occ. eigenvalues --   -0.92092  -0.75381  -0.66598  -0.56647  -0.55481
 Alpha  occ. eigenvalues --   -0.50056  -0.47048  -0.46443  -0.34152  -0.33884
 Alpha virt. eigenvalues --   -0.02325   0.05541   0.06980   0.08140   0.09665
 Alpha virt. eigenvalues --    0.12336   0.13953   0.15341   0.17417   0.19863
 Alpha virt. eigenvalues --    0.19909   0.21241   0.25039   0.26367   0.28676

 Mulliken charges:
               1
     1  C    0.155660
     2  O   -0.343950
     3  C   -0.037209
     4  C   -0.132762
     5  H    0.105286
     6  H    0.086183
     7  H    0.098541
     8  H    0.068251
 Sum of Mulliken charges =   0.00000

 Dipole moment (field-independent basis, Debye):
    X=              3.5103    Y=              0.7856    Z=              0.0313  Tot=              3.5973
 Quadrupole moment (field-independent basis, Debye-Ang):
   XX=            -27.1804   YY=            -21.8703   ZZ=            -25.4367
   XY=             -0.8068   XZ=             -0.1618   YZ=              0.0834

 Normal termination of Gaussian 09 at Wed Aug 26 08:35:15 2020.
