 Gaussian 09, Revision D.01,
 Gaussian 09:  ES64L-G09RevD.01 24-Apr-2013

 --------------------
 #p B2PLYPD3/Def2QZVP
 --------------------

 --------
 acrolein
 --------
 Symbolic Z-matrix:
 Charge =  0 Multiplicity = 1

                         Standard orientation:
 ---------------------------------------------------------------------
 Center     Atomic      Atomic             Coordinates (Angstroms)
 Number     Number       Type             X           Y           Z
 ---------------------------------------------------------------------
      1          6           0       -0.671421    0.348091    0.017201
      2          8           0       -1.776185   -0.130262   -0.032466
      3          6           0        0.549689   -0.431711    0.015440
      4          6           0        1.745861    0.140085   -0.009990
      5          1           0        0.457209   -1.466294    0.094196
      6          1           0        1.821698    1.168061   -0.116440
      7          1           0        2.762344   -0.410991   -0.025472
      8          1           0       -0.576542    1.412528    0.171531
 ---------------------------------------------------------------------

 SCF Done:  E(RB2PLYPD3) =  -191.609457040     A.U. after   13 cycles
 E2(B2PLYPD3) =    -0.2463115256D+00 E(B2PLYPD3) =    -0.19185576856540D+03

 The electronic state is 1-A.
 Alpha  occ. eigenvalues --  -19.72575 -10.71000 -10.65572 -10.63727  -1.19843
 Alpha  occ. eigenvalues --   -0.93441  -0.75534  -0.68024  -0.57574  -0.56009
 Alpha  occ. eigenvalues --   -0.50641  -0.47059  -0.46579  -0.34798  -0.33848
 Alpha virt. eigenvalues --   -0.01719   0.05664   0.07336   0.08317   0.09691
 Alpha virt. eigenvalues --    0.12475   0.14248   0.15302   0.17891   0.19418
 Alpha virt. eigenvalues --    0.20351   0.21149   0.25219   0.26606   0.29023

 Mulliken charges:
               1
     1  C    0.144943
     2  O   -0.347363
     3  C   -0.037768
     4  C   -0.127167
     5  H    0.111656
     6  H    0.084373
     7  H    0.093496
     8  H    0.077829
 Sum of Mulliken charges =   0.00000

 Dipole moment (field-independent basis, Debye):
    X=              3.4603    Y=              0.8183    Z=              0.1140  Tot=              3.5576
 Quadrupole moment (field-independent basis, Debye-Ang):
   XX=            -27.1668   YY=            -21.9037   ZZ=            -25.0565
   XY=             -1.0432   XZ=             -0.3799   YZ=             -0.1861

 Normal termination of Gaussian 09 at Wed Aug 26 09:20:34 2020.
