 Gaussian 09, Revision D.01,
 Gaussian 09:  ES64L-G09RevD.01 24-Apr-2013

 --------------------
 #p B2PLYPD3/Def2QZVP
 --------------------

 --------
 acrolein
 --------
 Symbolic Z-matrix:
 Charge =  0 Multiplicity = 1

                         Standard orientation:
 ---------------------------------------------------------------------
 Center     Atomic      Atomic             Coordinates (Angstroms)
 Number     Number       Type             X           Y           Z
 ---------------------------------------------------------------------
      1          6           0        0.671077    0.385761    0.016954
      2          8           0        1.771086   -0.161721   -0.050102
      3          6           0       -0.548410   -0.430391    0.100521
      4          6           0       -1.716434    0.115292   -0.068999
      5          1           0       -0.495047   -1.352108    0.069652
      6          1           0       -1.823407    1.227814    0.048211
      7          1           0       -2.722021   -0.521767   -0.122799
      8          1           0        0.434387    1.515865    0.114892
 ---------------------------------------------------------------------

 SCF Done:  E(RB2PLYPD3) =  -191.576335515     A.U. after   13 cycles
 E2(B2PLYPD3) =    -0.2486426771D+00 E(B2PLYPD3) =    -0.19182497819253D+03

 The electronic state is 1-A.
 Alpha  occ. eigenvalues --  -19.73292 -10.72745 -10.66171 -10.62041  -1.18724
 Alpha  occ. eigenvalues --   -0.94235  -0.74327  -0.68797  -0.56168  -0.55642
 Alpha  occ. eigenvalues --   -0.50668  -0.46632  -0.46105  -0.35125  -0.34055
 Alpha virt. eigenvalues --   -0.01629   0.05343   0.06945   0.07830   0.09784
 Alpha virt. eigenvalues --    0.12139   0.13247   0.15140   0.18465   0.19283
 Alpha virt. eigenvalues --    0.19779   0.21140   0.24687   0.26239   0.28534

 Mulliken charges:
               1
     1  C    0.163853
     2  O   -0.353273
     3  C   -0.054998
     4  C   -0.105590
     5  H    0.121881
     6  H    0.072047
     7  H    0.082673
     8  H    0.073408
 Sum of Mulliken charges =   0.00000

 Dipole moment (field-independent basis, Debye):
    X=             -3.4046    Y=              0.8342    Z=              0.1716  Tot=              3.5095
 Quadrupole moment (field-independent basis, Debye-Ang):
   XX=            -27.6506   YY=            -21.8173   ZZ=            -25.1383
   XY=              1.2490   XZ=              0.4066   YZ=              0.1688

 Normal termination of Gaussian 09 at Wed Aug 26 13:00:49 2020.
