 Gaussian 09, Revision D.01,
 Gaussian 09:  ES64L-G09RevD.01 24-Apr-2013

 --------------------
 #p B2PLYPD3/Def2QZVP
 --------------------

 --------
 acrolein
 --------
 Symbolic Z-matrix:
 Charge =  0 Multiplicity = 1

                         Standard orientation:
 ---------------------------------------------------------------------
 Center     Atomic      Atomic             Coordinates (Angstroms)
 Number     Number       Type             X           Y           Z
 ---------------------------------------------------------------------
      1          6           0       -0.688373    0.357058    0.044096
      2          8           0       -1.777882   -0.138227   -0.050580
      3          6           0        0.552969   -0.423611   -0.009634
      4          6           0        1.756293    0.135040   -0.008577
      5          1           0        0.488203   -1.436395    0.196857
      6          1           0        1.800987    1.225642   -0.187018
      7          1           0        2.779626   -0.446987   -0.011173
      8          1           0       -0.571095    1.352638    0.250659
 ---------------------------------------------------------------------

 SCF Done:  E(RB2PLYPD3) =  -191.601212866     A.U. after   13 cycles
 E2(B2PLYPD3) =    -0.2464612493D+00 E(B2PLYPD3) =    -0.19184767411544D+03

 The electronic state is 1-A.
 Alpha  occ. eigenvalues --  -19.72771 -10.70744 -10.66223 -10.63482  -1.20235
 Alpha  occ. eigenvalues --   -0.92987  -0.75283  -0.68244  -0.57317  -0.55753
 Alpha  occ. eigenvalues --   -0.50945  -0.47064  -0.45582  -0.34781  -0.34030
 Alpha virt. eigenvalues --   -0.01553   0.05543   0.07267   0.07944   0.09615
 Alpha virt. eigenvalues --    0.12385   0.13999   0.15040   0.18406   0.18849
 Alpha virt. eigenvalues --    0.20178   0.21030   0.24260   0.27283   0.29202

 Mulliken charges:
               1
     1  C    0.151988
     2  O   -0.341577
     3  C   -0.050354
     4  C   -0.123968
     5  H    0.108332
     6  H    0.072258
     7  H    0.095808
     8  H    0.087513
 Sum of Mulliken charges =   0.00000

 Dipole moment (field-independent basis, Debye):
    X=              3.3097    Y=              0.8788    Z=              0.2778  Tot=              3.4356
 Quadrupole moment (field-independent basis, Debye-Ang):
   XX=            -27.3091   YY=            -21.9402   ZZ=            -25.0563
   XY=             -1.3232   XZ=             -0.4547   YZ=             -0.3991

 Normal termination of Gaussian 09 at Wed Aug 26 12:13:31 2020.
