 Gaussian 09, Revision D.01,
 Gaussian 09:  ES64L-G09RevD.01 24-Apr-2013

 --------------------
 #p B2PLYPD3/Def2QZVP
 --------------------

 --------
 acrolein
 --------
 Symbolic Z-matrix:
 Charge =  0 Multiplicity = 1

                         Standard orientation:
 ---------------------------------------------------------------------
 Center     Atomic      Atomic             Coordinates (Angstroms)
 Number     Number       Type             X           Y           Z
 ---------------------------------------------------------------------
      1          6           0        0.666591    0.353190    0.024368
      2          8           0        1.795686   -0.112532   -0.015458
      3          6           0       -0.574772   -0.465294    0.019015
      4          6           0       -1.759147    0.144996   -0.017015
      5          1           0       -0.425242   -1.556891   -0.001185
      6          1           0       -1.861297    1.257781    0.025437
      7          1           0       -2.609891   -0.404743   -0.028264
      8          1           0        0.534912    1.406755   -0.030529
 ---------------------------------------------------------------------

 SCF Done:  E(RB2PLYPD3) =  -191.610449353     A.U. after   12 cycles
 E2(B2PLYPD3) =    -0.2473387652D+00 E(B2PLYPD3) =    -0.19185778811847D+03

 The electronic state is 1-A.
 Alpha  occ. eigenvalues --  -19.72686 -10.71289 -10.65092 -10.64801  -1.18728
 Alpha  occ. eigenvalues --   -0.92931  -0.75840  -0.67260  -0.56894  -0.56267
 Alpha  occ. eigenvalues --   -0.50573  -0.47009  -0.46221  -0.34676  -0.33797
 Alpha virt. eigenvalues --   -0.01719   0.05752   0.07237   0.07853   0.09685
 Alpha virt. eigenvalues --    0.12591   0.14130   0.15323   0.17367   0.19569
 Alpha virt. eigenvalues --    0.20041   0.22011   0.25188   0.26670   0.28691

 Mulliken charges:
               1
     1  C    0.159521
     2  O   -0.357031
     3  C   -0.048890
     4  C   -0.129946
     5  H    0.105792
     6  H    0.084767
     7  H    0.104916
     8  H    0.080870
 Sum of Mulliken charges =   0.00000

 Dipole moment (field-independent basis, Debye):
    X=             -3.5255    Y=              0.7879    Z=              0.0458  Tot=              3.6127
 Quadrupole moment (field-independent basis, Debye-Ang):
   XX=            -27.6972   YY=            -21.4935   ZZ=            -25.2122
   XY=              0.8493   XZ=              0.0953   YZ=              0.0489

 Normal termination of Gaussian 09 at Wed Aug 26 18:59:17 2020.
