 Gaussian 09, Revision D.01,
 Gaussian 09:  ES64L-G09RevD.01 24-Apr-2013

 --------------------
 #p B2PLYPD3/Def2QZVP
 --------------------

 --------
 acrolein
 --------
 Symbolic Z-matrix:
 Charge =  0 Multiplicity = 1

                         Standard orientation:
 ---------------------------------------------------------------------
 Center     Atomic      Atomic             Coordinates (Angstroms)
 Number     Number       Type             X           Y           Z
 ---------------------------------------------------------------------
      1          6           0        0.673140    0.347875   -0.014077
      2          8           0        1.788251   -0.126262    0.016729
      3          6           0       -0.545249   -0.428282   -0.018987
      4          6           0       -1.758865    0.133479    0.004657
      5          1           0       -0.446866   -1.519516    0.012059
      6          1           0       -1.851105    1.182696    0.087110
      7          1           0       -2.711387   -0.442400   -0.000565
      8          1           0        0.489196    1.470882   -0.061998
 ---------------------------------------------------------------------

 SCF Done:  E(RB2PLYPD3) =  -191.613699912     A.U. after   12 cycles
 E2(B2PLYPD3) =    -0.2477308340D+00 E(B2PLYPD3) =    -0.19186143074631D+03

 The electronic state is 1-A.
 Alpha  occ. eigenvalues --  -19.72940 -10.71824 -10.65772 -10.64448  -1.19531
 Alpha  occ. eigenvalues --   -0.93194  -0.75839  -0.66574  -0.56718  -0.56179
 Alpha  occ. eigenvalues --   -0.50468  -0.46987  -0.46541  -0.34648  -0.33946
 Alpha virt. eigenvalues --   -0.02159   0.05681   0.07015   0.08414   0.09763
 Alpha virt. eigenvalues --    0.12516   0.13908   0.15371   0.17402   0.19703
 Alpha virt. eigenvalues --    0.20132   0.21471   0.25514   0.26295   0.28697

 Mulliken charges:
               1
     1  C    0.155411
     2  O   -0.347372
     3  C   -0.028207
     4  C   -0.129427
     5  H    0.101647
     6  H    0.084566
     7  H    0.102619
     8  H    0.060764
 Sum of Mulliken charges =   0.00000

 Dipole moment (field-independent basis, Debye):
    X=             -3.5635    Y=              0.7347    Z=              0.0144  Tot=              3.6385
 Quadrupole moment (field-independent basis, Debye-Ang):
   XX=            -27.1957   YY=            -21.9700   ZZ=            -25.2321
   XY=              0.9201   XZ=             -0.2304   YZ=              0.0528

 Normal termination of Gaussian 09 at Wed Aug 26 18:38:45 2020.
