 Gaussian 09, Revision D.01,
 Gaussian 09:  ES64L-G09RevD.01 24-Apr-2013

 --------------------
 #p B2PLYPD3/Def2QZVP
 --------------------

 --------
 acrolein
 --------
 Symbolic Z-matrix:
 Charge =  0 Multiplicity = 1

                         Standard orientation:
 ---------------------------------------------------------------------
 Center     Atomic      Atomic             Coordinates (Angstroms)
 Number     Number       Type             X           Y           Z
 ---------------------------------------------------------------------
      1          6           0        0.652764   -0.337442   -0.041106
      2          8           0        1.791278    0.094453    0.060571
      3          6           0       -0.595466    0.479944   -0.102358
      4          6           0       -1.740698   -0.177185    0.021689
      5          1           0       -0.419505    1.646638    0.025763
      6          1           0       -1.742524   -1.238219    0.063578
      7          1           0       -2.601942    0.358393    0.257745
      8          1           0        0.534149   -1.314338   -0.101000
 ---------------------------------------------------------------------

 SCF Done:  E(RB2PLYPD3) =  -191.594503031     A.U. after   13 cycles
 E2(B2PLYPD3) =    -0.2474473696D+00 E(B2PLYPD3) =    -0.19184195040059D+03

 The electronic state is 1-A.
 Alpha  occ. eigenvalues --  -19.72467 -10.70451 -10.65538 -10.64841  -1.18592
 Alpha  occ. eigenvalues --   -0.93389  -0.76064  -0.67848  -0.57171  -0.56301
 Alpha  occ. eigenvalues --   -0.50367  -0.46540  -0.46120  -0.34837  -0.33741
 Alpha virt. eigenvalues --   -0.01579   0.05840   0.06847   0.07655   0.09668
 Alpha virt. eigenvalues --    0.12924   0.13878   0.15294   0.17160   0.19531
 Alpha virt. eigenvalues --    0.20065   0.21943   0.24406   0.26878   0.28802

 Mulliken charges:
               1
     1  C    0.159974
     2  O   -0.361970
     3  C   -0.044530
     4  C   -0.121554
     5  H    0.098769
     6  H    0.085021
     7  H    0.102895
     8  H    0.081395
 Sum of Mulliken charges =   0.00000

 Dipole moment (field-independent basis, Debye):
    X=             -3.5201    Y=             -0.8175    Z=              0.0793  Tot=              3.6147
 Quadrupole moment (field-independent basis, Debye-Ang):
   XX=            -28.0500   YY=            -21.4301   ZZ=            -25.0947
   XY=             -0.7571   XZ=             -1.0766   YZ=              0.1902

 Normal termination of Gaussian 09 at Wed Aug 26 12:38:09 2020.
