 Gaussian 09, Revision D.01,
 Gaussian 09:  ES64L-G09RevD.01 24-Apr-2013

 --------------------
 #p B2PLYPD3/Def2QZVP
 --------------------

 --------
 acrolein
 --------
 Symbolic Z-matrix:
 Charge =  0 Multiplicity = 1

                         Standard orientation:
 ---------------------------------------------------------------------
 Center     Atomic      Atomic             Coordinates (Angstroms)
 Number     Number       Type             X           Y           Z
 ---------------------------------------------------------------------
      1          6           0       -0.704935    0.356144    0.067138
      2          8           0       -1.770684   -0.136506   -0.059141
      3          6           0        0.523623   -0.401951    0.045616
      4          6           0        1.778927    0.128037   -0.073865
      5          1           0        0.462715   -1.483585    0.026027
      6          1           0        1.924770    1.154672   -0.163445
      7          1           0        2.748106   -0.469613    0.182660
      8          1           0       -0.555805    1.397193    0.194552
 ---------------------------------------------------------------------

 SCF Done:  E(RB2PLYPD3) =  -191.601384463     A.U. after   13 cycles
 E2(B2PLYPD3) =    -0.2466338183D+00 E(B2PLYPD3) =    -0.19184801828121D+03

 The electronic state is 1-A.
 Alpha  occ. eigenvalues --  -19.72778 -10.70668 -10.66189 -10.64329  -1.21493
 Alpha  occ. eigenvalues --   -0.92119  -0.75960  -0.67659  -0.57693  -0.55628
 Alpha  occ. eigenvalues --   -0.50653  -0.47657  -0.46333  -0.34408  -0.33469
 Alpha virt. eigenvalues --   -0.02435   0.05590   0.07425   0.08652   0.09760
 Alpha virt. eigenvalues --    0.12402   0.14024   0.15709   0.17629   0.19028
 Alpha virt. eigenvalues --    0.19819   0.21759   0.25349   0.26459   0.28568

 Mulliken charges:
               1
     1  C    0.147810
     2  O   -0.330964
     3  C   -0.041879
     4  C   -0.132825
     5  H    0.105866
     6  H    0.080022
     7  H    0.094672
     8  H    0.077297
 Sum of Mulliken charges =   0.00000

 Dipole moment (field-independent basis, Debye):
    X=              3.2677    Y=              0.8771    Z=              0.3049  Tot=              3.3971
 Quadrupole moment (field-independent basis, Debye-Ang):
   XX=            -27.0205   YY=            -22.0085   ZZ=            -25.1500
   XY=             -0.9912   XZ=             -0.0898   YZ=             -0.2413

 Normal termination of Gaussian 09 at Wed Aug 26 14:16:48 2020.
