 Gaussian 09, Revision D.01,
 Gaussian 09:  ES64L-G09RevD.01 24-Apr-2013

 --------------------
 #p B2PLYPD3/Def2QZVP
 --------------------

 --------
 acrolein
 --------
 Symbolic Z-matrix:
 Charge =  0 Multiplicity = 1

                         Standard orientation:
 ---------------------------------------------------------------------
 Center     Atomic      Atomic             Coordinates (Angstroms)
 Number     Number       Type             X           Y           Z
 ---------------------------------------------------------------------
      1          6           0       -0.680647    0.359674    0.011282
      2          8           0       -1.780611   -0.131845   -0.013046
      3          6           0        0.547196   -0.430946    0.032010
      4          6           0        1.762543    0.133695   -0.017124
      5          1           0        0.446814   -1.522571   -0.030886
      6          1           0        1.810488    1.205985    0.006815
      7          1           0        2.737673   -0.425583   -0.023694
      8          1           0       -0.524640    1.422386   -0.004874
 ---------------------------------------------------------------------

 SCF Done:  E(RB2PLYPD3) =  -191.614009868     A.U. after   12 cycles
 E2(B2PLYPD3) =    -0.2470833995D+00 E(B2PLYPD3) =    -0.19186109326765D+03

 The electronic state is 1-A.
 Alpha  occ. eigenvalues --  -19.72789 -10.71239 -10.65865 -10.64399  -1.19915
 Alpha  occ. eigenvalues --   -0.92753  -0.75486  -0.67265  -0.56784  -0.56074
 Alpha  occ. eigenvalues --   -0.50675  -0.47053  -0.46201  -0.34512  -0.34023
 Alpha virt. eigenvalues --   -0.01846   0.05684   0.07180   0.08277   0.09738
 Alpha virt. eigenvalues --    0.12438   0.14059   0.15368   0.17628   0.19791
 Alpha virt. eigenvalues --    0.19897   0.21307   0.25401   0.26538   0.28985

 Mulliken charges:
               1
     1  C    0.152888
     2  O   -0.345684
     3  C   -0.037324
     4  C   -0.132267
     5  H    0.103026
     6  H    0.078767
     7  H    0.103761
     8  H    0.076832
 Sum of Mulliken charges =   0.00000

 Dipole moment (field-independent basis, Debye):
    X=              3.4378    Y=              0.8386    Z=             -0.0049  Tot=              3.5386
 Quadrupole moment (field-independent basis, Debye-Ang):
   XX=            -27.2316   YY=            -21.8454   ZZ=            -25.2361
   XY=             -1.1122   XZ=             -0.1347   YZ=              0.0861

 Normal termination of Gaussian 09 at Wed Aug 26 14:14:35 2020.
