 Gaussian 09, Revision D.01,
 Gaussian 09:  ES64L-G09RevD.01 24-Apr-2013

 --------------------
 #p B2PLYPD3/Def2QZVP
 --------------------

 --------
 acrolein
 --------
 Symbolic Z-matrix:
 Charge =  0 Multiplicity = 1

                         Standard orientation:
 ---------------------------------------------------------------------
 Center     Atomic      Atomic             Coordinates (Angstroms)
 Number     Number       Type             X           Y           Z
 ---------------------------------------------------------------------
      1          6           0        0.654601    0.329876    0.016862
      2          8           0        1.807548   -0.102456   -0.027548
      3          6           0       -0.592056   -0.453027    0.057240
      4          6           0       -1.745335    0.153246   -0.023124
      5          1           0       -0.429646   -1.527933   -0.025521
      6          1           0       -1.827378    1.221909   -0.013343
      7          1           0       -2.599712   -0.417684   -0.090842
      8          1           0        0.493093    1.362790    0.044219
 ---------------------------------------------------------------------

 SCF Done:  E(RB2PLYPD3) =  -191.609681514     A.U. after   13 cycles
 E2(B2PLYPD3) =    -0.2470534252D+00 E(B2PLYPD3) =    -0.19185673493960D+03

 The electronic state is 1-A.
 Alpha  occ. eigenvalues --  -19.72748 -10.71065 -10.64652 -10.64214  -1.18077
 Alpha  occ. eigenvalues --   -0.94161  -0.76459  -0.67699  -0.57200  -0.56726
 Alpha  occ. eigenvalues --   -0.50646  -0.47170  -0.46041  -0.35268  -0.33793
 Alpha virt. eigenvalues --   -0.01798   0.05813   0.07252   0.08099   0.09750
 Alpha virt. eigenvalues --    0.12872   0.13812   0.15226   0.17515   0.19737
 Alpha virt. eigenvalues --    0.20018   0.22086   0.25214   0.26877   0.28512

 Mulliken charges:
               1
     1  C    0.157373
     2  O   -0.365120
     3  C   -0.032712
     4  C   -0.127286
     5  H    0.101035
     6  H    0.089203
     7  H    0.103766
     8  H    0.073741
 Sum of Mulliken charges =   0.00000

 Dipole moment (field-independent basis, Debye):
    X=             -3.6712    Y=              0.7495    Z=             -0.0154  Tot=              3.7469
 Quadrupole moment (field-independent basis, Debye-Ang):
   XX=            -27.7805   YY=            -21.6648   ZZ=            -25.0154
   XY=              0.7278   XZ=              0.4044   YZ=              0.1222

 Normal termination of Gaussian 09 at Wed Aug 26 09:24:08 2020.
