 Gaussian 09, Revision D.01,
 Gaussian 09:  ES64L-G09RevD.01 24-Apr-2013

 --------------------
 #p B2PLYPD3/Def2QZVP
 --------------------

 --------
 acrolein
 --------
 Symbolic Z-matrix:
 Charge =  0 Multiplicity = 1

                         Standard orientation:
 ---------------------------------------------------------------------
 Center     Atomic      Atomic             Coordinates (Angstroms)
 Number     Number       Type             X           Y           Z
 ---------------------------------------------------------------------
      1          6           0        0.661761    0.355054    0.050199
      2          8           0        1.801562   -0.132827   -0.065766
      3          6           0       -0.525562   -0.415868    0.052712
      4          6           0       -1.763468    0.105708   -0.067366
      5          1           0       -0.419959   -1.410312    0.221577
      6          1           0       -1.862273    1.215213    0.013340
      7          1           0       -2.778620   -0.493733   -0.090188
      8          1           0        0.411973    1.482085    0.168130
 ---------------------------------------------------------------------

 SCF Done:  E(RB2PLYPD3) =  -191.593611227     A.U. after   14 cycles
 E2(B2PLYPD3) =    -0.2506776684D+00 E(B2PLYPD3) =    -0.19184428889561D+03

 The electronic state is 1-A.
 Alpha  occ. eigenvalues --  -19.73207 -10.72375 -10.67564 -10.63824  -1.17768
 Alpha  occ. eigenvalues --   -0.93636  -0.76008  -0.67208  -0.56163  -0.55430
 Alpha  occ. eigenvalues --   -0.50249  -0.47208  -0.45236  -0.34514  -0.34065
 Alpha virt. eigenvalues --   -0.03076   0.05225   0.06773   0.08298   0.09656
 Alpha virt. eigenvalues --    0.12089   0.13421   0.15093   0.18095   0.19460
 Alpha virt. eigenvalues --    0.19893   0.20853   0.25057   0.26292   0.28975

 Mulliken charges:
               1
     1  C    0.154531
     2  O   -0.362499
     3  C   -0.014445
     4  C   -0.124428
     5  H    0.108633
     6  H    0.076454
     7  H    0.101195
     8  H    0.060559
 Sum of Mulliken charges =   0.00000

 Dipole moment (field-independent basis, Debye):
    X=             -3.7890    Y=              0.7115    Z=              0.3889  Tot=              3.8747
 Quadrupole moment (field-independent basis, Debye-Ang):
   XX=            -27.2378   YY=            -22.2035   ZZ=            -25.3087
   XY=              0.9510   XZ=              0.3832   YZ=             -0.1074

 Normal termination of Gaussian 09 at Wed Aug 26 12:11:52 2020.
