 Gaussian 09, Revision D.01,
 Gaussian 09:  ES64L-G09RevD.01 24-Apr-2013

 --------------------
 #p B2PLYPD3/Def2QZVP
 --------------------

 --------
 acrolein
 --------
 Symbolic Z-matrix:
 Charge =  0 Multiplicity = 1

                         Standard orientation:
 ---------------------------------------------------------------------
 Center     Atomic      Atomic             Coordinates (Angstroms)
 Number     Number       Type             X           Y           Z
 ---------------------------------------------------------------------
      1          6           0        0.669126    0.343475   -0.012196
      2          8           0        1.788771   -0.110183    0.020857
      3          6           0       -0.550378   -0.463910   -0.031131
      4          6           0       -1.758723    0.136556    0.005095
      5          1           0       -0.426284   -1.523691   -0.014755
      6          1           0       -1.884617    1.261228    0.015054
      7          1           0       -2.678469   -0.403645    0.096566
      8          1           0        0.519050    1.450848   -0.034324
 ---------------------------------------------------------------------

 SCF Done:  E(RB2PLYPD3) =  -191.614224611     A.U. after   13 cycles
 E2(B2PLYPD3) =    -0.2475568188D+00 E(B2PLYPD3) =    -0.19186178143009D+03

 The electronic state is 1-A.
 Alpha  occ. eigenvalues --  -19.72675 -10.71498 -10.66251 -10.64641  -1.19580
 Alpha  occ. eigenvalues --   -0.92653  -0.75417  -0.66854  -0.56680  -0.55988
 Alpha  occ. eigenvalues --   -0.50522  -0.46906  -0.46734  -0.34461  -0.33747
 Alpha virt. eigenvalues --   -0.01961   0.05631   0.07232   0.08188   0.09642
 Alpha virt. eigenvalues --    0.12402   0.14090   0.15365   0.17552   0.19566
 Alpha virt. eigenvalues --    0.19924   0.21522   0.25249   0.26404   0.28739

 Mulliken charges:
               1
     1  C    0.158562
     2  O   -0.348649
     3  C   -0.044498
     4  C   -0.125504
     5  H    0.109889
     6  H    0.081556
     7  H    0.101576
     8  H    0.067069
 Sum of Mulliken charges =   0.00000

 Dipole moment (field-independent basis, Debye):
    X=             -3.5426    Y=              0.6995    Z=              0.0139  Tot=              3.6110
 Quadrupole moment (field-independent basis, Debye-Ang):
   XX=            -27.3322   YY=            -21.7559   ZZ=            -25.2882
   XY=              0.7621   XZ=             -0.3718   YZ=             -0.0375

 Normal termination of Gaussian 09 at Wed Aug 26 20:19:29 2020.
