 Gaussian 09, Revision D.01,
 Gaussian 09:  ES64L-G09RevD.01 24-Apr-2013

 --------------------
 #p B2PLYPD3/Def2QZVP
 --------------------

 --------
 acrolein
 --------
 Symbolic Z-matrix:
 Charge =  0 Multiplicity = 1

                         Standard orientation:
 ---------------------------------------------------------------------
 Center     Atomic      Atomic             Coordinates (Angstroms)
 Number     Number       Type             X           Y           Z
 ---------------------------------------------------------------------
      1          6           0        0.677891    0.402873    0.068099
      2          8           0        1.789735   -0.169250   -0.067051
      3          6           0       -0.546285   -0.429406    0.054654
      4          6           0       -1.756397    0.110981   -0.079945
      5          1           0       -0.417480   -1.468421    0.084577
      6          1           0       -1.826789    1.249023   -0.193007
      7          1           0       -2.815808   -0.511601    0.147594
      8          1           0        0.490941    1.578316    0.240397
 ---------------------------------------------------------------------

 SCF Done:  E(RB2PLYPD3) =  -191.581196965     A.U. after   13 cycles
 E2(B2PLYPD3) =    -0.2522222191D+00 E(B2PLYPD3) =    -0.19183341918380D+03

 The electronic state is 1-A.
 Alpha  occ. eigenvalues --  -19.73557 -10.73725 -10.67543 -10.64385  -1.17361
 Alpha  occ. eigenvalues --   -0.92590  -0.73945  -0.66257  -0.55040  -0.54849
 Alpha  occ. eigenvalues --   -0.49865  -0.45643  -0.45151  -0.34719  -0.33953
 Alpha virt. eigenvalues --   -0.02635   0.04965   0.06466   0.07332   0.09724
 Alpha virt. eigenvalues --    0.11592   0.13230   0.15379   0.16944   0.18723
 Alpha virt. eigenvalues --    0.19882   0.21051   0.25055   0.26084   0.28979

 Mulliken charges:
               1
     1  C    0.161759
     2  O   -0.360574
     3  C   -0.047308
     4  C   -0.117372
     5  H    0.119654
     6  H    0.071560
     7  H    0.094517
     8  H    0.077764
 Sum of Mulliken charges =   0.00000

 Dipole moment (field-independent basis, Debye):
    X=             -3.4228    Y=              0.9211    Z=              0.3628  Tot=              3.5631
 Quadrupole moment (field-independent basis, Debye-Ang):
   XX=            -27.9157   YY=            -21.7186   ZZ=            -25.5846
   XY=              1.2453   XZ=              0.1437   YZ=             -0.2588

 Normal termination of Gaussian 09 at Wed Aug 26 13:47:23 2020.
