 Gaussian 09, Revision D.01,
 Gaussian 09:  ES64L-G09RevD.01 24-Apr-2013

 --------------------
 #p B2PLYPD3/Def2QZVP
 --------------------

 --------
 acrolein
 --------
 Symbolic Z-matrix:
 Charge =  0 Multiplicity = 1

                         Standard orientation:
 ---------------------------------------------------------------------
 Center     Atomic      Atomic             Coordinates (Angstroms)
 Number     Number       Type             X           Y           Z
 ---------------------------------------------------------------------
      1          6           0       -0.650170    0.327866   -0.022547
      2          8           0       -1.802434   -0.099405    0.031700
      3          6           0        0.567129   -0.464341   -0.062289
      4          6           0        1.753828    0.151412    0.013561
      5          1           0        0.393293   -1.536746    0.045765
      6          1           0        1.867093    1.257487    0.046579
      7          1           0        2.654288   -0.440745    0.118424
      8          1           0       -0.519923    1.425620   -0.036716
 ---------------------------------------------------------------------

 SCF Done:  E(RB2PLYPD3) =  -191.612040369     A.U. after   13 cycles
 E2(B2PLYPD3) =    -0.2485173771D+00 E(B2PLYPD3) =    -0.19186055774632D+03

 The electronic state is 1-A.
 Alpha  occ. eigenvalues --  -19.72562 -10.71412 -10.66402 -10.64891  -1.18153
 Alpha  occ. eigenvalues --   -0.93333  -0.75786  -0.66746  -0.56450  -0.56137
 Alpha  occ. eigenvalues --   -0.49999  -0.47070  -0.46101  -0.34750  -0.33644
 Alpha virt. eigenvalues --   -0.02274   0.05596   0.07012   0.08079   0.09695
 Alpha virt. eigenvalues --    0.12468   0.13696   0.15238   0.17471   0.19472
 Alpha virt. eigenvalues --    0.19955   0.21629   0.24893   0.26647   0.28690

 Mulliken charges:
               1
     1  C    0.157962
     2  O   -0.363850
     3  C   -0.037163
     4  C   -0.122174
     5  H    0.107619
     6  H    0.092604
     7  H    0.102241
     8  H    0.062761
 Sum of Mulliken charges =   0.00000

 Dipole moment (field-independent basis, Debye):
    X=              3.7266    Y=              0.6873    Z=              0.0752  Tot=              3.7902
 Quadrupole moment (field-independent basis, Debye-Ang):
   XX=            -27.6808   YY=            -21.6863   ZZ=            -25.2733
   XY=             -0.6526   XZ=              0.5584   YZ=             -0.1180

 Normal termination of Gaussian 09 at Wed Aug 26 09:39:24 2020.
