 Gaussian 09, Revision D.01,
 Gaussian 09:  ES64L-G09RevD.01 24-Apr-2013

 --------------------
 #p B2PLYPD3/Def2QZVP
 --------------------

 --------
 acrolein
 --------
 Symbolic Z-matrix:
 Charge =  0 Multiplicity = 1

                         Standard orientation:
 ---------------------------------------------------------------------
 Center     Atomic      Atomic             Coordinates (Angstroms)
 Number     Number       Type             X           Y           Z
 ---------------------------------------------------------------------
      1          6           0        0.661383    0.334128   -0.005753
      2          8           0        1.792115   -0.103495    0.014675
      3          6           0       -0.549075   -0.460134   -0.019533
      4          6           0       -1.756600    0.151657    0.007078
      5          1           0       -0.427560   -1.562439   -0.033891
      6          1           0       -1.843421    1.252350   -0.006892
      7          1           0       -2.704453   -0.431543    0.068863
      8          1           0        0.504266    1.415677   -0.036228
 ---------------------------------------------------------------------

 SCF Done:  E(RB2PLYPD3) =  -191.613777432     A.U. after   13 cycles
 E2(B2PLYPD3) =    -0.2479998178D+00 E(B2PLYPD3) =    -0.19186177724968D+03

 The electronic state is 1-A.
 Alpha  occ. eigenvalues --  -19.72554 -10.71152 -10.66650 -10.64989  -1.19234
 Alpha  occ. eigenvalues --   -0.92803  -0.75501  -0.66779  -0.56438  -0.55939
 Alpha  occ. eigenvalues --   -0.50093  -0.46957  -0.46571  -0.34435  -0.33769
 Alpha virt. eigenvalues --   -0.02179   0.05593   0.06953   0.08305   0.09664
 Alpha virt. eigenvalues --    0.12453   0.13983   0.15306   0.17395   0.19674
 Alpha virt. eigenvalues --    0.19971   0.21327   0.25292   0.26484   0.28815

 Mulliken charges:
               1
     1  C    0.155370
     2  O   -0.353227
     3  C   -0.032995
     4  C   -0.131404
     5  H    0.104187
     6  H    0.089064
     7  H    0.102910
     8  H    0.066095
 Sum of Mulliken charges =   0.00000

 Dipole moment (field-independent basis, Debye):
    X=             -3.6196    Y=              0.7010    Z=             -0.0276  Tot=              3.6870
 Quadrupole moment (field-independent basis, Debye-Ang):
   XX=            -27.4893   YY=            -21.7064   ZZ=            -25.3294
   XY=              0.7768   XZ=             -0.2242   YZ=             -0.0211

 Normal termination of Gaussian 09 at Wed Aug 26 16:38:40 2020.
