 Gaussian 09, Revision D.01,
 Gaussian 09:  ES64L-G09RevD.01 24-Apr-2013

 --------------------
 #p B2PLYPD3/Def2QZVP
 --------------------

 --------
 acrolein
 --------
 Symbolic Z-matrix:
 Charge =  0 Multiplicity = 1

                         Standard orientation:
 ---------------------------------------------------------------------
 Center     Atomic      Atomic             Coordinates (Angstroms)
 Number     Number       Type             X           Y           Z
 ---------------------------------------------------------------------
      1          6           0       -0.675504    0.358318   -0.034154
      2          8           0       -1.788552   -0.134748    0.037934
      3          6           0        0.563293   -0.443058   -0.044443
      4          6           0        1.754965    0.125465    0.029966
      5          1           0        0.465275   -1.455243   -0.083325
      6          1           0        1.813036    1.195474   -0.053644
      7          1           0        2.616508   -0.426712    0.140726
      8          1           0       -0.442925    1.520112   -0.015434
 ---------------------------------------------------------------------

 SCF Done:  E(RB2PLYPD3) =  -191.606708958     A.U. after   13 cycles
 E2(B2PLYPD3) =    -0.2477163012D+00 E(B2PLYPD3) =    -0.19185442525911D+03

 The electronic state is 1-A.
 Alpha  occ. eigenvalues --  -19.73322 -10.72689 -10.64599 -10.63541  -1.19282
 Alpha  occ. eigenvalues --   -0.93589  -0.75702  -0.67074  -0.57403  -0.55729
 Alpha  occ. eigenvalues --   -0.50882  -0.47849  -0.46565  -0.34788  -0.33898
 Alpha virt. eigenvalues --   -0.01803   0.05818   0.07237   0.07972   0.09861
 Alpha virt. eigenvalues --    0.12645   0.13628   0.15332   0.17585   0.19739
 Alpha virt. eigenvalues --    0.20124   0.21772   0.25225   0.26564   0.28706

 Mulliken charges:
               1
     1  C    0.161406
     2  O   -0.346381
     3  C   -0.032022
     4  C   -0.130751
     5  H    0.106570
     6  H    0.082650
     7  H    0.103931
     8  H    0.054598
 Sum of Mulliken charges =   0.00000

 Dipole moment (field-independent basis, Debye):
    X=              3.4823    Y=              0.6830    Z=             -0.1199  Tot=              3.5507
 Quadrupole moment (field-independent basis, Debye-Ang):
   XX=            -27.3973   YY=            -21.9273   ZZ=            -25.1137
   XY=             -0.9834   XZ=              0.4003   YZ=             -0.0627

 Normal termination of Gaussian 09 at Wed Aug 26 09:07:03 2020.
