 Gaussian 09, Revision D.01,
 Gaussian 09:  ES64L-G09RevD.01 24-Apr-2013

 --------------------
 #p B2PLYPD3/Def2QZVP
 --------------------

 --------
 acrolein
 --------
 Symbolic Z-matrix:
 Charge =  0 Multiplicity = 1

                         Standard orientation:
 ---------------------------------------------------------------------
 Center     Atomic      Atomic             Coordinates (Angstroms)
 Number     Number       Type             X           Y           Z
 ---------------------------------------------------------------------
      1          6           0       -0.664791    0.351695   -0.012580
      2          8           0       -1.791203   -0.118741    0.021281
      3          6           0        0.577122   -0.465487   -0.029968
      4          6           0        1.740563    0.147820    0.009918
      5          1           0        0.481586   -1.539706   -0.026059
      6          1           0        1.832555    1.256125    0.008529
      7          1           0        2.629947   -0.393316    0.086907
      8          1           0       -0.531825    1.422657   -0.043852
 ---------------------------------------------------------------------

 SCF Done:  E(RB2PLYPD3) =  -191.614485566     A.U. after   12 cycles
 E2(B2PLYPD3) =    -0.2469906109D+00 E(B2PLYPD3) =    -0.19186147617691D+03

 The electronic state is 1-A.
 Alpha  occ. eigenvalues --  -19.72707 -10.71523 -10.64972 -10.64294  -1.18793
 Alpha  occ. eigenvalues --   -0.93329  -0.75340  -0.67336  -0.56779  -0.56422
 Alpha  occ. eigenvalues --   -0.50566  -0.46927  -0.46286  -0.34933  -0.33808
 Alpha virt. eigenvalues --   -0.01437   0.05760   0.07189   0.07923   0.09677
 Alpha virt. eigenvalues --    0.12604   0.14202   0.15314   0.17460   0.19712
 Alpha virt. eigenvalues --    0.19953   0.21743   0.25437   0.26470   0.28757

 Mulliken charges:
               1
     1  C    0.154128
     2  O   -0.354370
     3  C   -0.044848
     4  C   -0.125363
     5  H    0.106892
     6  H    0.081330
     7  H    0.100335
     8  H    0.081896
 Sum of Mulliken charges =   0.00000

 Dipole moment (field-independent basis, Debye):
    X=              3.5120    Y=              0.7840    Z=             -0.0184  Tot=              3.5984
 Quadrupole moment (field-independent basis, Debye-Ang):
   XX=            -27.6936   YY=            -21.5232   ZZ=            -25.1564
   XY=             -0.9644   XZ=              0.3272   YZ=             -0.0324

 Normal termination of Gaussian 09 at Wed Aug 26 16:08:40 2020.
