 Gaussian 09, Revision D.01,
 Gaussian 09:  ES64L-G09RevD.01 24-Apr-2013

 --------------------
 #p B2PLYPD3/Def2QZVP
 --------------------

 --------
 acrolein
 --------
 Symbolic Z-matrix:
 Charge =  0 Multiplicity = 1

                         Standard orientation:
 ---------------------------------------------------------------------
 Center     Atomic      Atomic             Coordinates (Angstroms)
 Number     Number       Type             X           Y           Z
 ---------------------------------------------------------------------
      1          6           0       -0.670214    0.364344   -0.001109
      2          8           0       -1.781844   -0.135214    0.023728
      3          6           0        0.574207   -0.439323   -0.053480
      4          6           0        1.737157    0.142222    0.008020
      5          1           0        0.441895   -1.493953   -0.016765
      6          1           0        1.779120    1.159237   -0.012060
      7          1           0        2.697544   -0.410204    0.163257
      8          1           0       -0.510709    1.423172   -0.044842
 ---------------------------------------------------------------------

 SCF Done:  E(RB2PLYPD3) =  -191.610318157     A.U. after   13 cycles
 E2(B2PLYPD3) =    -0.2465028055D+00 E(B2PLYPD3) =    -0.19185682096243D+03

 The electronic state is 1-A.
 Alpha  occ. eigenvalues --  -19.72908 -10.71510 -10.64477 -10.63628  -1.19077
 Alpha  occ. eigenvalues --   -0.93809  -0.75425  -0.68080  -0.57165  -0.56277
 Alpha  occ. eigenvalues --   -0.50847  -0.46951  -0.46474  -0.35103  -0.33916
 Alpha virt. eigenvalues --   -0.01403   0.05788   0.07321   0.07991   0.09835
 Alpha virt. eigenvalues --    0.12649   0.14031   0.15320   0.17592   0.19717
 Alpha virt. eigenvalues --    0.20229   0.21678   0.25455   0.26597   0.28819

 Mulliken charges:
               1
     1  C    0.150419
     2  O   -0.354209
     3  C   -0.035029
     4  C   -0.131024
     5  H    0.107666
     6  H    0.083525
     7  H    0.097222
     8  H    0.081430
 Sum of Mulliken charges =   0.00000

 Dipole moment (field-independent basis, Debye):
    X=              3.4220    Y=              0.8760    Z=              0.0472  Tot=              3.5327
 Quadrupole moment (field-independent basis, Debye-Ang):
   XX=            -27.5555   YY=            -21.7351   ZZ=            -25.0096
   XY=             -1.0220   XZ=              0.5092   YZ=             -0.1262

 Normal termination of Gaussian 09 at Wed Aug 26 09:21:49 2020.
