 Gaussian 09, Revision D.01,
 Gaussian 09:  ES64L-G09RevD.01 24-Apr-2013

 --------------------
 #p B2PLYPD3/Def2QZVP
 --------------------

 --------
 acrolein
 --------
 Symbolic Z-matrix:
 Charge =  0 Multiplicity = 1

                         Standard orientation:
 ---------------------------------------------------------------------
 Center     Atomic      Atomic             Coordinates (Angstroms)
 Number     Number       Type             X           Y           Z
 ---------------------------------------------------------------------
      1          6           0       -0.633785    0.319292   -0.060808
      2          8           0       -1.822939   -0.088867    0.046288
      3          6           0        0.582272   -0.465267   -0.052423
      4          6           0        1.762911    0.164149   -0.007754
      5          1           0        0.321753   -1.658390    0.025714
      6          1           0        1.830593    1.250511    0.082505
      7          1           0        2.648097   -0.465353    0.213736
      8          1           0       -0.485320    1.475122    0.033642
 ---------------------------------------------------------------------

 SCF Done:  E(RB2PLYPD3) =  -191.588906402     A.U. after   13 cycles
 E2(B2PLYPD3) =    -0.2521646491D+00 E(B2PLYPD3) =    -0.19184107105126D+03

 The electronic state is 1-A.
 Alpha  occ. eigenvalues --  -19.72927 -10.72541 -10.66859 -10.66568  -1.16502
 Alpha  occ. eigenvalues --   -0.93606  -0.75905  -0.64849  -0.55945  -0.55729
 Alpha  occ. eigenvalues --   -0.49066  -0.45925  -0.45356  -0.34901  -0.33655
 Alpha virt. eigenvalues --   -0.03048   0.05435   0.05977   0.07772   0.09627
 Alpha virt. eigenvalues --    0.12319   0.13546   0.15054   0.16354   0.19448
 Alpha virt. eigenvalues --    0.19871   0.21664   0.24352   0.26649   0.28194

 Mulliken charges:
               1
     1  C    0.167710
     2  O   -0.374344
     3  C   -0.030714
     4  C   -0.113298
     5  H    0.100405
     6  H    0.097600
     7  H    0.104949
     8  H    0.047692
 Sum of Mulliken charges =   0.00000

 Dipole moment (field-independent basis, Debye):
    X=              3.8404    Y=              0.6106    Z=              0.1140  Tot=              3.8903
 Quadrupole moment (field-independent basis, Debye-Ang):
   XX=            -28.1839   YY=            -21.6903   ZZ=            -25.5040
   XY=             -0.4571   XZ=              0.8601   YZ=             -0.0491

 Normal termination of Gaussian 09 at Wed Aug 26 14:43:24 2020.
