 Gaussian 09, Revision D.01,
 Gaussian 09:  ES64L-G09RevD.01 24-Apr-2013

 --------------------
 #p B2PLYPD3/Def2QZVP
 --------------------

 --------
 acrolein
 --------
 Symbolic Z-matrix:
 Charge =  0 Multiplicity = 1

                         Standard orientation:
 ---------------------------------------------------------------------
 Center     Atomic      Atomic             Coordinates (Angstroms)
 Number     Number       Type             X           Y           Z
 ---------------------------------------------------------------------
      1          6           0       -0.681459    0.353322    0.039941
      2          8           0       -1.778155   -0.117686   -0.044123
      3          6           0        0.580235   -0.470361    0.024394
      4          6           0        1.755282    0.151952   -0.036064
      5          1           0        0.409903   -1.544929    0.136287
      6          1           0        1.789538    1.241303    0.001084
      7          1           0        2.618032   -0.397296   -0.064921
      8          1           0       -0.516574    1.432938    0.110909
 ---------------------------------------------------------------------

 SCF Done:  E(RB2PLYPD3) =  -191.613035308     A.U. after   12 cycles
 E2(B2PLYPD3) =    -0.2462868325D+00 E(B2PLYPD3) =    -0.19185932214043D+03

 The electronic state is 1-A.
 Alpha  occ. eigenvalues --  -19.72907 -10.71452 -10.64620 -10.64459  -1.20416
 Alpha  occ. eigenvalues --   -0.92653  -0.75138  -0.66971  -0.56995  -0.56149
 Alpha  occ. eigenvalues --   -0.51144  -0.47653  -0.46667  -0.34634  -0.33603
 Alpha virt. eigenvalues --   -0.01120   0.05922   0.07188   0.08039   0.09782
 Alpha virt. eigenvalues --    0.12671   0.13932   0.15313   0.17426   0.19761
 Alpha virt. eigenvalues --    0.19986   0.21871   0.25330   0.26719   0.28811

 Mulliken charges:
               1
     1  C    0.158162
     2  O   -0.339093
     3  C   -0.047458
     4  C   -0.136066
     5  H    0.103397
     6  H    0.084859
     7  H    0.105232
     8  H    0.070967
 Sum of Mulliken charges =   0.00000

 Dipole moment (field-independent basis, Debye):
    X=              3.2680    Y=              0.7531    Z=              0.2476  Tot=              3.3628
 Quadrupole moment (field-independent basis, Debye-Ang):
   XX=            -27.5663   YY=            -21.6334   ZZ=            -25.1643
   XY=             -0.8757   XZ=             -0.3039   YZ=             -0.1054

 Normal termination of Gaussian 09 at Wed Aug 26 08:43:06 2020.
