 Gaussian 09, Revision D.01,
 Gaussian 09:  ES64L-G09RevD.01 24-Apr-2013

 --------------------
 #p B2PLYPD3/Def2QZVP
 --------------------

 --------
 acrolein
 --------
 Symbolic Z-matrix:
 Charge =  0 Multiplicity = 1

                         Standard orientation:
 ---------------------------------------------------------------------
 Center     Atomic      Atomic             Coordinates (Angstroms)
 Number     Number       Type             X           Y           Z
 ---------------------------------------------------------------------
      1          6           0       -0.650398    0.324257   -0.040813
      2          8           0       -1.803386   -0.098942    0.040346
      3          6           0        0.583692   -0.480824   -0.044105
      4          6           0        1.732190    0.146557    0.003887
      5          1           0        0.478617   -1.493653   -0.031462
      6          1           0        1.876674    1.299464    0.026802
      7          1           0        2.598874   -0.378769    0.188860
      8          1           0       -0.519983    1.424557   -0.020783
 ---------------------------------------------------------------------

 SCF Done:  E(RB2PLYPD3) =  -191.604283626     A.U. after   12 cycles
 E2(B2PLYPD3) =    -0.2476224063D+00 E(B2PLYPD3) =    -0.19185190603215D+03

 The electronic state is 1-A.
 Alpha  occ. eigenvalues --  -19.72638 -10.71651 -10.65536 -10.63961  -1.18130
 Alpha  occ. eigenvalues --   -0.94017  -0.75603  -0.67541  -0.57281  -0.56018
 Alpha  occ. eigenvalues --   -0.50498  -0.46996  -0.46019  -0.35189  -0.33614
 Alpha virt. eigenvalues --   -0.01729   0.05588   0.07293   0.07927   0.09577
 Alpha virt. eigenvalues --    0.12512   0.14121   0.15198   0.17705   0.19352
 Alpha virt. eigenvalues --    0.19909   0.21856   0.25014   0.26690   0.28574

 Mulliken charges:
               1
     1  C    0.156545
     2  O   -0.361017
     3  C   -0.044267
     4  C   -0.110925
     5  H    0.112085
     6  H    0.080896
     7  H    0.096824
     8  H    0.069858
 Sum of Mulliken charges =   0.00000

 Dipole moment (field-independent basis, Debye):
    X=              3.6781    Y=              0.6455    Z=              0.0113  Tot=              3.7343
 Quadrupole moment (field-independent basis, Debye-Ang):
   XX=            -27.7601   YY=            -21.6183   ZZ=            -25.0884
   XY=             -0.7089   XZ=              0.6781   YZ=             -0.0295

 Normal termination of Gaussian 09 at Wed Aug 26 09:12:27 2020.
