 Gaussian 09, Revision D.01,
 Gaussian 09:  ES64L-G09RevD.01 24-Apr-2013

 --------------------
 #p B2PLYPD3/Def2QZVP
 --------------------

 --------
 acrolein
 --------
 Symbolic Z-matrix:
 Charge =  0 Multiplicity = 1

                         Standard orientation:
 ---------------------------------------------------------------------
 Center     Atomic      Atomic             Coordinates (Angstroms)
 Number     Number       Type             X           Y           Z
 ---------------------------------------------------------------------
      1          6           0       -0.668340    0.352353   -0.025822
      2          8           0       -1.781955   -0.129585    0.028752
      3          6           0        0.555216   -0.458411   -0.028488
      4          6           0        1.743960    0.152895    0.010311
      5          1           0        0.444930   -1.494569    0.005428
      6          1           0        1.756363    1.193490    0.139125
      7          1           0        2.753965   -0.440379   -0.002166
      8          1           0       -0.484635    1.497116   -0.108411
 ---------------------------------------------------------------------

 SCF Done:  E(RB2PLYPD3) =  -191.606668040     A.U. after   13 cycles
 E2(B2PLYPD3) =    -0.2481872830D+00 E(B2PLYPD3) =    -0.19185485532302D+03

 The electronic state is 1-A.
 Alpha  occ. eigenvalues --  -19.72983 -10.72218 -10.66067 -10.64089  -1.19411
 Alpha  occ. eigenvalues --   -0.93146  -0.74696  -0.67169  -0.56290  -0.55746
 Alpha  occ. eigenvalues --   -0.50149  -0.47385  -0.46666  -0.34599  -0.33815
 Alpha virt. eigenvalues --   -0.01833   0.05598   0.06980   0.07887   0.09814
 Alpha virt. eigenvalues --    0.12365   0.13615   0.15341   0.17508   0.19563
 Alpha virt. eigenvalues --    0.20365   0.21030   0.25195   0.26250   0.29014

 Mulliken charges:
               1
     1  C    0.154584
     2  O   -0.348128
     3  C   -0.036517
     4  C   -0.129232
     5  H    0.111465
     6  H    0.089369
     7  H    0.097473
     8  H    0.060986
 Sum of Mulliken charges =   0.00000

 Dipole moment (field-independent basis, Debye):
    X=              3.4571    Y=              0.7104    Z=             -0.0038  Tot=              3.5294
 Quadrupole moment (field-independent basis, Debye-Ang):
   XX=            -27.5194   YY=            -21.8313   ZZ=            -25.2861
   XY=             -1.0197   XZ=              0.3496   YZ=              0.1112

 Normal termination of Gaussian 09 at Wed Aug 26 21:07:27 2020.
