 Gaussian 09, Revision D.01,
 Gaussian 09:  ES64L-G09RevD.01 24-Apr-2013

 --------------------
 #p B2PLYPD3/Def2QZVP
 --------------------

 --------
 acrolein
 --------
 Symbolic Z-matrix:
 Charge =  0 Multiplicity = 1

                         Standard orientation:
 ---------------------------------------------------------------------
 Center     Atomic      Atomic             Coordinates (Angstroms)
 Number     Number       Type             X           Y           Z
 ---------------------------------------------------------------------
      1          6           0       -0.670125    0.352816   -0.014753
      2          8           0       -1.784454   -0.127878    0.008739
      3          6           0        0.546219   -0.436472   -0.003033
      4          6           0        1.757311    0.129147   -0.001025
      5          1           0        0.448228   -1.506168    0.005845
      6          1           0        1.838802    1.194237    0.043262
      7          1           0        2.665747   -0.430081    0.000344
      8          1           0       -0.477576    1.492090   -0.006493
 ---------------------------------------------------------------------

 SCF Done:  E(RB2PLYPD3) =  -191.614706714     A.U. after   12 cycles
 E2(B2PLYPD3) =    -0.2476409623D+00 E(B2PLYPD3) =    -0.19186234767619D+03

 The electronic state is 1-A.
 Alpha  occ. eigenvalues --  -19.72978 -10.72029 -10.65324 -10.64216  -1.19456
 Alpha  occ. eigenvalues --   -0.93249  -0.75884  -0.66622  -0.56799  -0.56289
 Alpha  occ. eigenvalues --   -0.50599  -0.47047  -0.46832  -0.34640  -0.33924
 Alpha virt. eigenvalues --   -0.02058   0.05767   0.07084   0.08329   0.09801
 Alpha virt. eigenvalues --    0.12586   0.13901   0.15361   0.17408   0.19887
 Alpha virt. eigenvalues --    0.19979   0.21668   0.25586   0.26294   0.28763

 Mulliken charges:
               1
     1  C    0.157178
     2  O   -0.347519
     3  C   -0.030268
     4  C   -0.130140
     5  H    0.104089
     6  H    0.082704
     7  H    0.104383
     8  H    0.059573
 Sum of Mulliken charges =   0.00000

 Dipole moment (field-independent basis, Debye):
    X=              3.5446    Y=              0.7136    Z=              0.0045  Tot=              3.6158
 Quadrupole moment (field-independent basis, Debye-Ang):
   XX=            -27.2543   YY=            -21.9020   ZZ=            -25.2076
   XY=             -0.9415   XZ=              0.1113   YZ=              0.0425

 Normal termination of Gaussian 09 at Wed Aug 26 19:45:48 2020.
