 Gaussian 09, Revision D.01,
 Gaussian 09:  ES64L-G09RevD.01 24-Apr-2013

 --------------------
 #p B2PLYPD3/Def2QZVP
 --------------------

 --------
 acrolein
 --------
 Symbolic Z-matrix:
 Charge =  0 Multiplicity = 1

                         Standard orientation:
 ---------------------------------------------------------------------
 Center     Atomic      Atomic             Coordinates (Angstroms)
 Number     Number       Type             X           Y           Z
 ---------------------------------------------------------------------
      1          6           0        0.677032    0.361362   -0.024155
      2          8           0        1.775613   -0.129992    0.033673
      3          6           0       -0.547075   -0.431752   -0.036267
      4          6           0       -1.760064    0.134700    0.004234
      5          1           0       -0.386377   -1.523177   -0.076352
      6          1           0       -1.791371    1.137156   -0.020284
      7          1           0       -2.757089   -0.398257    0.184934
      8          1           0        0.510579    1.438353   -0.020553
 ---------------------------------------------------------------------

 SCF Done:  E(RB2PLYPD3) =  -191.607078354     A.U. after   13 cycles
 E2(B2PLYPD3) =    -0.2470655454D+00 E(B2PLYPD3) =    -0.19185414389966D+03

 The electronic state is 1-A.
 Alpha  occ. eigenvalues --  -19.72841 -10.71330 -10.65352 -10.64484  -1.19968
 Alpha  occ. eigenvalues --   -0.93041  -0.75760  -0.67406  -0.57150  -0.55923
 Alpha  occ. eigenvalues --   -0.50683  -0.47281  -0.46413  -0.34505  -0.33940
 Alpha virt. eigenvalues --   -0.01904   0.05707   0.07231   0.08255   0.09800
 Alpha virt. eigenvalues --    0.12469   0.14081   0.15356   0.17388   0.19567
 Alpha virt. eigenvalues --    0.20183   0.21719   0.25466   0.26491   0.28995

 Mulliken charges:
               1
     1  C    0.151975
     2  O   -0.347432
     3  C   -0.029917
     4  C   -0.136452
     5  H    0.103492
     6  H    0.084982
     7  H    0.101650
     8  H    0.071702
 Sum of Mulliken charges =   0.00000

 Dipole moment (field-independent basis, Debye):
    X=             -3.4175    Y=              0.8490    Z=             -0.0298  Tot=              3.5215
 Quadrupole moment (field-independent basis, Debye-Ang):
   XX=            -27.1662   YY=            -21.9452   ZZ=            -25.1471
   XY=              0.9058   XZ=             -0.5765   YZ=             -0.0358

 Normal termination of Gaussian 09 at Wed Aug 26 08:42:58 2020.
