 Gaussian 09, Revision D.01,
 Gaussian 09:  ES64L-G09RevD.01 24-Apr-2013

 --------------------
 #p B2PLYPD3/Def2QZVP
 --------------------

 --------
 acrolein
 --------
 Symbolic Z-matrix:
 Charge =  0 Multiplicity = 1

                         Standard orientation:
 ---------------------------------------------------------------------
 Center     Atomic      Atomic             Coordinates (Angstroms)
 Number     Number       Type             X           Y           Z
 ---------------------------------------------------------------------
      1          6           0       -0.687235    0.324600    0.052427
      2          8           0       -1.798627   -0.104077   -0.065473
      3          6           0        0.577298   -0.501387    0.054092
      4          6           0        1.761187    0.156451   -0.050930
      5          1           0        0.478944   -1.485851    0.204997
      6          1           0        1.904218    1.369612    0.063997
      7          1           0        2.641107   -0.436836   -0.200349
      8          1           0       -0.542759    1.507712    0.121601
 ---------------------------------------------------------------------

 SCF Done:  E(RB2PLYPD3) =  -191.589985696     A.U. after   13 cycles
 E2(B2PLYPD3) =    -0.2485525840D+00 E(B2PLYPD3) =    -0.19183853828018D+03

 The electronic state is 1-A.
 Alpha  occ. eigenvalues --  -19.72999 -10.72404 -10.67129 -10.64629  -1.20414
 Alpha  occ. eigenvalues --   -0.92110  -0.74062  -0.66384  -0.56520  -0.55007
 Alpha  occ. eigenvalues --   -0.50665  -0.47566  -0.46433  -0.34350  -0.33145
 Alpha virt. eigenvalues --   -0.01581   0.05311   0.06952   0.07850   0.09397
 Alpha virt. eigenvalues --    0.11869   0.13595   0.15166   0.17898   0.18940
 Alpha virt. eigenvalues --    0.19914   0.21237   0.24619   0.26474   0.28637

 Mulliken charges:
               1
     1  C    0.163366
     2  O   -0.330835
     3  C   -0.058788
     4  C   -0.124881
     5  H    0.112797
     6  H    0.090576
     7  H    0.100160
     8  H    0.047603
 Sum of Mulliken charges =   0.00000

 Dipole moment (field-independent basis, Debye):
    X=              3.3986    Y=              0.5347    Z=              0.3028  Tot=              3.4537
 Quadrupole moment (field-independent basis, Debye-Ang):
   XX=            -27.5401   YY=            -21.7436   ZZ=            -25.4155
   XY=             -0.7272   XZ=             -0.5725   YZ=             -0.0459

 Normal termination of Gaussian 09 at Wed Aug 26 14:45:48 2020.
