 Gaussian 09, Revision D.01,
 Gaussian 09:  ES64L-G09RevD.01 24-Apr-2013

 --------------------
 #p B2PLYPD3/Def2QZVP
 --------------------

 --------
 acrolein
 --------
 Symbolic Z-matrix:
 Charge =  0 Multiplicity = 1

                         Standard orientation:
 ---------------------------------------------------------------------
 Center     Atomic      Atomic             Coordinates (Angstroms)
 Number     Number       Type             X           Y           Z
 ---------------------------------------------------------------------
      1          6           0       -0.667997    0.343821    0.017649
      2          8           0       -1.782333   -0.114996   -0.017283
      3          6           0        0.562558   -0.463842    0.001098
      4          6           0        1.748313    0.149753   -0.005480
      5          1           0        0.448961   -1.498130    0.063842
      6          1           0        1.850074    1.237766   -0.024063
      7          1           0        2.657778   -0.413240   -0.029743
      8          1           0       -0.555391    1.415180    0.048620
 ---------------------------------------------------------------------

 SCF Done:  E(RB2PLYPD3) =  -191.615740428     A.U. after   12 cycles
 E2(B2PLYPD3) =    -0.2463187742D+00 E(B2PLYPD3) =    -0.19186205920239D+03

 The electronic state is 1-A.
 Alpha  occ. eigenvalues --  -19.72499 -10.71002 -10.65426 -10.64065  -1.19667
 Alpha  occ. eigenvalues --   -0.93020  -0.75380  -0.67801  -0.56877  -0.56488
 Alpha  occ. eigenvalues --   -0.50618  -0.47490  -0.46719  -0.34636  -0.33667
 Alpha virt. eigenvalues --   -0.01551   0.05772   0.07387   0.08169   0.09707
 Alpha virt. eigenvalues --    0.12597   0.14078   0.15331   0.17786   0.19707
 Alpha virt. eigenvalues --    0.19983   0.21606   0.25420   0.26471   0.28849

 Mulliken charges:
               1
     1  C    0.152394
     2  O   -0.349264
     3  C   -0.045656
     4  C   -0.129700
     5  H    0.111392
     6  H    0.086817
     7  H    0.098801
     8  H    0.075216
 Sum of Mulliken charges =   0.00000

 Dipole moment (field-independent basis, Debye):
    X=              3.4756    Y=              0.7569    Z=              0.0891  Tot=              3.5582
 Quadrupole moment (field-independent basis, Debye-Ang):
   XX=            -27.4690   YY=            -21.6172   ZZ=            -25.1328
   XY=             -0.8976   XZ=             -0.1620   YZ=             -0.0912

 Normal termination of Gaussian 09 at Wed Aug 26 19:29:48 2020.
