 Gaussian 09, Revision D.01,
 Gaussian 09:  ES64L-G09RevD.01 24-Apr-2013

 --------------------
 #p B2PLYPD3/Def2QZVP
 --------------------

 --------
 acrolein
 --------
 Symbolic Z-matrix:
 Charge =  0 Multiplicity = 1

                         Standard orientation:
 ---------------------------------------------------------------------
 Center     Atomic      Atomic             Coordinates (Angstroms)
 Number     Number       Type             X           Y           Z
 ---------------------------------------------------------------------
      1          6           0       -0.639578    0.296839   -0.035664
      2          8           0       -1.798420   -0.085945    0.029916
      3          6           0        0.563384   -0.484900   -0.054863
      4          6           0        1.721692    0.161480    0.038170
      5          1           0        0.501759   -1.517725    0.089715
      6          1           0        1.814780    1.294119    0.054058
      7          1           0        2.733280   -0.348802   -0.029167
      8          1           0       -0.535448    1.419452   -0.039789
 ---------------------------------------------------------------------

 SCF Done:  E(RB2PLYPD3) =  -191.605114822     A.U. after   13 cycles
 E2(B2PLYPD3) =    -0.2483241345D+00 E(B2PLYPD3) =    -0.19185343895699D+03

 The electronic state is 1-A.
 Alpha  occ. eigenvalues --  -19.72342 -10.71352 -10.67080 -10.64412  -1.18525
 Alpha  occ. eigenvalues --   -0.93987  -0.75167  -0.67090  -0.56542  -0.56217
 Alpha  occ. eigenvalues --   -0.49856  -0.47043  -0.46014  -0.35041  -0.33375
 Alpha virt. eigenvalues --   -0.02234   0.05476   0.06973   0.08208   0.09545
 Alpha virt. eigenvalues --    0.12318   0.13807   0.15261   0.17741   0.19301
 Alpha virt. eigenvalues --    0.20018   0.21231   0.25072   0.26291   0.29206

 Mulliken charges:
               1
     1  C    0.146764
     2  O   -0.355390
     3  C   -0.029923
     4  C   -0.106225
     5  H    0.112412
     6  H    0.083569
     7  H    0.093282
     8  H    0.055509
 Sum of Mulliken charges =   0.00000

 Dipole moment (field-independent basis, Debye):
    X=              3.7997    Y=              0.5791    Z=             -0.0111  Tot=              3.8436
 Quadrupole moment (field-independent basis, Debye-Ang):
   XX=            -27.4456   YY=            -21.8653   ZZ=            -25.2199
   XY=             -0.6703   XZ=              0.2174   YZ=             -0.0857

 Normal termination of Gaussian 09 at Wed Aug 26 13:36:33 2020.
