 Gaussian 09, Revision D.01,
 Gaussian 09:  ES64L-G09RevD.01 24-Apr-2013

 --------------------
 #p B2PLYPD3/Def2QZVP
 --------------------

 --------
 acrolein
 --------
 Symbolic Z-matrix:
 Charge =  0 Multiplicity = 1

                         Standard orientation:
 ---------------------------------------------------------------------
 Center     Atomic      Atomic             Coordinates (Angstroms)
 Number     Number       Type             X           Y           Z
 ---------------------------------------------------------------------
      1          6           0        0.677367    0.354687   -0.009563
      2          8           0        1.784333   -0.127313    0.013083
      3          6           0       -0.558783   -0.445434   -0.025826
      4          6           0       -1.757538    0.139374   -0.002164
      5          1           0       -0.462690   -1.487912    0.018990
      6          1           0       -1.839023    1.212602    0.022074
      7          1           0       -2.660678   -0.430904    0.078382
      8          1           0        0.521455    1.432958    0.001206
 ---------------------------------------------------------------------

 SCF Done:  E(RB2PLYPD3) =  -191.616535828     A.U. after   12 cycles
 E2(B2PLYPD3) =    -0.2465541957D+00 E(B2PLYPD3) =    -0.19186309002405D+03

 The electronic state is 1-A.
 Alpha  occ. eigenvalues --  -19.72791 -10.71398 -10.65175 -10.63924  -1.19712
 Alpha  occ. eigenvalues --   -0.93022  -0.75541  -0.67639  -0.56799  -0.56515
 Alpha  occ. eigenvalues --   -0.50748  -0.47301  -0.46841  -0.34605  -0.33888
 Alpha virt. eigenvalues --   -0.01671   0.05795   0.07365   0.08195   0.09763
 Alpha virt. eigenvalues --    0.12635   0.14017   0.15395   0.17777   0.19782
 Alpha virt. eigenvalues --    0.19904   0.21671   0.25458   0.26493   0.28737

 Mulliken charges:
               1
     1  C    0.152973
     2  O   -0.347455
     3  C   -0.041290
     4  C   -0.132172
     5  H    0.107975
     6  H    0.082884
     7  H    0.101067
     8  H    0.076017
 Sum of Mulliken charges =   0.00000

 Dipole moment (field-independent basis, Debye):
    X=             -3.4403    Y=              0.7905    Z=              0.0673  Tot=              3.5306
 Quadrupole moment (field-independent basis, Debye-Ang):
   XX=            -27.4252   YY=            -21.7185   ZZ=            -25.1346
   XY=              1.0193   XZ=             -0.3137   YZ=             -0.0570

 Normal termination of Gaussian 09 at Wed Aug 26 09:47:04 2020.
