 Gaussian 09, Revision D.01,
 Gaussian 09:  ES64L-G09RevD.01 24-Apr-2013

 --------------------
 #p B2PLYPD3/Def2QZVP
 --------------------

 --------
 acrolein
 --------
 Symbolic Z-matrix:
 Charge =  0 Multiplicity = 1

                         Standard orientation:
 ---------------------------------------------------------------------
 Center     Atomic      Atomic             Coordinates (Angstroms)
 Number     Number       Type             X           Y           Z
 ---------------------------------------------------------------------
      1          6           0       -0.667606    0.351601   -0.024388
      2          8           0       -1.792623   -0.119146    0.019065
      3          6           0        0.572319   -0.465340   -0.025320
      4          6           0        1.751523    0.147031    0.011897
      5          1           0        0.455029   -1.509290    0.005100
      6          1           0        1.849117    1.236738   -0.003217
      7          1           0        2.653538   -0.398772    0.056556
      8          1           0       -0.554113    1.424736    0.015906
 ---------------------------------------------------------------------

 SCF Done:  E(RB2PLYPD3) =  -191.615075438     A.U. after   12 cycles
 E2(B2PLYPD3) =    -0.2469958721D+00 E(B2PLYPD3) =    -0.19186207130975D+03

 The electronic state is 1-A.
 Alpha  occ. eigenvalues --  -19.72648 -10.71427 -10.65198 -10.64269  -1.18838
 Alpha  occ. eigenvalues --   -0.93070  -0.75405  -0.67728  -0.56757  -0.56522
 Alpha  occ. eigenvalues --   -0.50549  -0.47309  -0.46303  -0.34718  -0.33764
 Alpha virt. eigenvalues --   -0.01621   0.05758   0.07367   0.07891   0.09695
 Alpha virt. eigenvalues --    0.12577   0.14130   0.15343   0.17642   0.19710
 Alpha virt. eigenvalues --    0.20015   0.21668   0.25276   0.26520   0.28845

 Mulliken charges:
               1
     1  C    0.153958
     2  O   -0.355429
     3  C   -0.048108
     4  C   -0.127467
     5  H    0.111981
     6  H    0.084836
     7  H    0.099530
     8  H    0.080697
 Sum of Mulliken charges =   0.00000

 Dipole moment (field-independent basis, Debye):
    X=              3.5212    Y=              0.7929    Z=             -0.0121  Tot=              3.6094
 Quadrupole moment (field-independent basis, Debye-Ang):
   XX=            -27.5836   YY=            -21.5666   ZZ=            -25.1693
   XY=             -0.9314   XZ=              0.2260   YZ=             -0.0455

 Normal termination of Gaussian 09 at Wed Aug 26 15:23:27 2020.
