 Gaussian 09, Revision D.01,
 Gaussian 09:  ES64L-G09RevD.01 24-Apr-2013

 --------------------
 #p B2PLYPD3/Def2QZVP
 --------------------

 --------
 acrolein
 --------
 Symbolic Z-matrix:
 Charge =  0 Multiplicity = 1

                         Standard orientation:
 ---------------------------------------------------------------------
 Center     Atomic      Atomic             Coordinates (Angstroms)
 Number     Number       Type             X           Y           Z
 ---------------------------------------------------------------------
      1          6           0        0.663439    0.336174    0.004352
      2          8           0        1.807771   -0.103814   -0.019619
      3          6           0       -0.568655   -0.467422    0.008771
      4          6           0       -1.755394    0.131254   -0.004775
      5          1           0       -0.481706   -1.535178    0.055762
      6          1           0       -1.911549    1.324878   -0.101186
      7          1           0       -2.591715   -0.402046   -0.001751
      8          1           0        0.486457    1.442823    0.154036
 ---------------------------------------------------------------------

 SCF Done:  E(RB2PLYPD3) =  -191.599806731     A.U. after   13 cycles
 E2(B2PLYPD3) =    -0.2483883605D+00 E(B2PLYPD3) =    -0.19184819509139D+03

 The electronic state is 1-A.
 Alpha  occ. eigenvalues --  -19.72922 -10.72035 -10.65823 -10.64621  -1.18571
 Alpha  occ. eigenvalues --   -0.93327  -0.75990  -0.66350  -0.57392  -0.55371
 Alpha  occ. eigenvalues --   -0.50614  -0.46457  -0.46149  -0.34919  -0.33801
 Alpha virt. eigenvalues --   -0.02004   0.05498   0.07025   0.07904   0.09533
 Alpha virt. eigenvalues --    0.12362   0.14118   0.15248   0.17428   0.19081
 Alpha virt. eigenvalues --    0.20076   0.21911   0.24948   0.26697   0.28509

 Mulliken charges:
               1
     1  C    0.162995
     2  O   -0.353461
     3  C   -0.047742
     4  C   -0.120635
     5  H    0.105161
     6  H    0.077624
     7  H    0.106803
     8  H    0.069255
 Sum of Mulliken charges =   0.00000

 Dipole moment (field-independent basis, Debye):
    X=             -3.6419    Y=              0.6249    Z=              0.0701  Tot=              3.6957
 Quadrupole moment (field-independent basis, Debye-Ang):
   XX=            -27.6159   YY=            -21.6897   ZZ=            -25.2639
   XY=              0.7944   XZ=              0.2401   YZ=             -0.1403

 Normal termination of Gaussian 09 at Wed Aug 26 10:18:32 2020.
