 Gaussian 09, Revision D.01,
 Gaussian 09:  ES64L-G09RevD.01 24-Apr-2013

 --------------------
 #p B2PLYPD3/Def2QZVP
 --------------------

 --------
 acrolein
 --------
 Symbolic Z-matrix:
 Charge =  0 Multiplicity = 1

                         Standard orientation:
 ---------------------------------------------------------------------
 Center     Atomic      Atomic             Coordinates (Angstroms)
 Number     Number       Type             X           Y           Z
 ---------------------------------------------------------------------
      1          6           0       -0.672078    0.305890    0.045600
      2          8           0       -1.813090   -0.082603   -0.015060
      3          6           0        0.576838   -0.487396   -0.015555
      4          6           0        1.748213    0.158952   -0.033267
      5          1           0        0.490384   -1.536374    0.023414
      6          1           0        1.910292    1.337327   -0.002915
      7          1           0        2.702262   -0.383034    0.131712
      8          1           0       -0.516064    1.378231   -0.012395
 ---------------------------------------------------------------------

 SCF Done:  E(RB2PLYPD3) =  -191.603621629     A.U. after   13 cycles
 E2(B2PLYPD3) =    -0.2477848797D+00 E(B2PLYPD3) =    -0.19185140650891D+03

 The electronic state is 1-A.
 Alpha  occ. eigenvalues --  -19.72727 -10.71254 -10.67079 -10.64753  -1.19623
 Alpha  occ. eigenvalues --   -0.92843  -0.74817  -0.67088  -0.56423  -0.55807
 Alpha  occ. eigenvalues --   -0.50732  -0.46760  -0.46030  -0.34876  -0.33503
 Alpha virt. eigenvalues --   -0.01939   0.05401   0.07173   0.08033   0.09464
 Alpha virt. eigenvalues --    0.12318   0.14238   0.15283   0.17835   0.19162
 Alpha virt. eigenvalues --    0.19745   0.21410   0.24936   0.26499   0.28440

 Mulliken charges:
               1
     1  C    0.161145
     2  O   -0.344630
     3  C   -0.047374
     4  C   -0.115131
     5  H    0.107279
     6  H    0.080474
     7  H    0.094248
     8  H    0.063989
 Sum of Mulliken charges =   0.00000

 Dipole moment (field-independent basis, Debye):
    X=              3.5740    Y=              0.5971    Z=              0.2155  Tot=              3.6299
 Quadrupole moment (field-independent basis, Debye-Ang):
   XX=            -27.5632   YY=            -21.7739   ZZ=            -25.2854
   XY=             -0.5415   XZ=              0.2911   YZ=             -0.1261

 Normal termination of Gaussian 09 at Wed Aug 26 14:24:03 2020.
