 Gaussian 09, Revision D.01,
 Gaussian 09:  ES64L-G09RevD.01 24-Apr-2013

 --------------------
 #p B2PLYPD3/Def2QZVP
 --------------------

 --------
 acrolein
 --------
 Symbolic Z-matrix:
 Charge =  0 Multiplicity = 1

                         Standard orientation:
 ---------------------------------------------------------------------
 Center     Atomic      Atomic             Coordinates (Angstroms)
 Number     Number       Type             X           Y           Z
 ---------------------------------------------------------------------
      1          6           0       -0.659789    0.333929    0.006829
      2          8           0       -1.790239   -0.106119    0.011220
      3          6           0        0.579561   -0.459044   -0.020751
      4          6           0        1.748531    0.156355    0.002938
      5          1           0        0.400619   -1.587870   -0.046235
      6          1           0        1.799102    1.232108   -0.018417
      7          1           0        2.649774   -0.400308    0.094953
      8          1           0       -0.537400    1.417582   -0.054163
 ---------------------------------------------------------------------

 SCF Done:  E(RB2PLYPD3) =  -191.612835271     A.U. after   12 cycles
 E2(B2PLYPD3) =    -0.2471426272D+00 E(B2PLYPD3) =    -0.19185997789800D+03

 The electronic state is 1-A.
 Alpha  occ. eigenvalues --  -19.72664 -10.71279 -10.65221 -10.64967  -1.19254
 Alpha  occ. eigenvalues --   -0.93362  -0.75552  -0.66546  -0.56592  -0.56576
 Alpha  occ. eigenvalues --   -0.50495  -0.46949  -0.46350  -0.34988  -0.33622
 Alpha virt. eigenvalues --   -0.01651   0.05824   0.06917   0.08223   0.09750
 Alpha virt. eigenvalues --    0.12620   0.14002   0.15284   0.17031   0.19869
 Alpha virt. eigenvalues --    0.19945   0.21754   0.25434   0.26546   0.28826

 Mulliken charges:
               1
     1  C    0.158721
     2  O   -0.352234
     3  C   -0.035548
     4  C   -0.129894
     5  H    0.099533
     6  H    0.089300
     7  H    0.105918
     8  H    0.064204
 Sum of Mulliken charges =   0.00000

 Dipole moment (field-independent basis, Debye):
    X=              3.5189    Y=              0.7186    Z=             -0.0086  Tot=              3.5916
 Quadrupole moment (field-independent basis, Debye-Ang):
   XX=            -27.6006   YY=            -21.6940   ZZ=            -25.1887
   XY=             -0.7871   XZ=              0.2579   YZ=             -0.0387

 Normal termination of Gaussian 09 at Wed Aug 26 09:02:46 2020.
