 Gaussian 09, Revision D.01,
 Gaussian 09:  ES64L-G09RevD.01 24-Apr-2013

 --------------------
 #p B2PLYPD3/Def2QZVP
 --------------------

 --------
 acrolein
 --------
 Symbolic Z-matrix:
 Charge =  0 Multiplicity = 1

                         Standard orientation:
 ---------------------------------------------------------------------
 Center     Atomic      Atomic             Coordinates (Angstroms)
 Number     Number       Type             X           Y           Z
 ---------------------------------------------------------------------
      1          6           0       -0.707552    0.387859    0.033499
      2          8           0       -1.763183   -0.164958   -0.043251
      3          6           0        0.561065   -0.415986    0.030317
      4          6           0        1.771506    0.104201   -0.048555
      5          1           0        0.404242   -1.482137    0.089164
      6          1           0        1.878208    1.160942   -0.143020
      7          1           0        2.648319   -0.399294    0.110477
      8          1           0       -0.575420    1.583708    0.197824
 ---------------------------------------------------------------------

 SCF Done:  E(RB2PLYPD3) =  -191.605391254     A.U. after   13 cycles
 E2(B2PLYPD3) =    -0.2467615874D+00 E(B2PLYPD3) =    -0.19185215284137D+03

 The electronic state is 1-A.
 Alpha  occ. eigenvalues --  -19.73498 -10.72900 -10.64198 -10.63927  -1.21110
 Alpha  occ. eigenvalues --   -0.92536  -0.75130  -0.65811  -0.57319  -0.56068
 Alpha  occ. eigenvalues --   -0.51627  -0.47462  -0.46264  -0.34703  -0.33758
 Alpha virt. eigenvalues --   -0.01340   0.05910   0.07011   0.08215   0.09858
 Alpha virt. eigenvalues --    0.12398   0.13895   0.15601   0.17049   0.19343
 Alpha virt. eigenvalues --    0.19928   0.22387   0.25317   0.26520   0.28707

 Mulliken charges:
               1
     1  C    0.163023
     2  O   -0.325704
     3  C   -0.053823
     4  C   -0.122460
     5  H    0.105648
     6  H    0.072044
     7  H    0.101771
     8  H    0.059502
 Sum of Mulliken charges =   0.00000

 Dipole moment (field-independent basis, Debye):
    X=              3.1189    Y=              0.8165    Z=              0.2372  Tot=              3.2327
 Quadrupole moment (field-independent basis, Debye-Ang):
   XX=            -26.9474   YY=            -22.0408   ZZ=            -25.1680
   XY=             -1.0614   XZ=             -0.0892   YZ=             -0.2381

 Normal termination of Gaussian 09 at Wed Aug 26 14:35:13 2020.
