 Gaussian 09, Revision D.01,
 Gaussian 09:  ES64L-G09RevD.01 24-Apr-2013

 --------------------
 #p B2PLYPD3/Def2QZVP
 --------------------

 --------
 acrolein
 --------
 Symbolic Z-matrix:
 Charge =  0 Multiplicity = 1

                         Standard orientation:
 ---------------------------------------------------------------------
 Center     Atomic      Atomic             Coordinates (Angstroms)
 Number     Number       Type             X           Y           Z
 ---------------------------------------------------------------------
      1          6           0        0.675108    0.350713    0.014273
      2          8           0        1.791753   -0.125119   -0.007235
      3          6           0       -0.566355   -0.449060   -0.009170
      4          6           0       -1.751469    0.147441   -0.010436
      5          1           0       -0.460128   -1.531628    0.034429
      6          1           0       -1.788197    1.205920   -0.017168
      7          1           0       -2.719834   -0.417978    0.045295
      8          1           0        0.490428    1.450068    0.027320
 ---------------------------------------------------------------------

 SCF Done:  E(RB2PLYPD3) =  -191.614845598     A.U. after   12 cycles
 E2(B2PLYPD3) =    -0.2474694711D+00 E(B2PLYPD3) =    -0.19186231506951D+03

 The electronic state is 1-A.
 Alpha  occ. eigenvalues --  -19.73007 -10.71903 -10.65495 -10.64369  -1.19416
 Alpha  occ. eigenvalues --   -0.93122  -0.75105  -0.66991  -0.56454  -0.56144
 Alpha  occ. eigenvalues --   -0.50545  -0.46815  -0.46668  -0.34804  -0.33928
 Alpha virt. eigenvalues --   -0.01691   0.05722   0.07052   0.08091   0.09761
 Alpha virt. eigenvalues --    0.12553   0.13918   0.15328   0.17432   0.19882
 Alpha virt. eigenvalues --    0.20000   0.21364   0.25473   0.26451   0.28865

 Mulliken charges:
               1
     1  C    0.153793
     2  O   -0.347543
     3  C   -0.032909
     4  C   -0.132390
     5  H    0.103583
     6  H    0.084422
     7  H    0.101602
     8  H    0.069442
 Sum of Mulliken charges =   0.00000

 Dipole moment (field-independent basis, Debye):
    X=             -3.4658    Y=              0.7683    Z=              0.0987  Tot=              3.5513
 Quadrupole moment (field-independent basis, Debye-Ang):
   XX=            -27.4780   YY=            -21.8059   ZZ=            -25.2406
   XY=              0.9806   XZ=             -0.0811   YZ=             -0.0900

 Normal termination of Gaussian 09 at Wed Aug 26 16:09:59 2020.
