 Gaussian 09, Revision D.01,
 Gaussian 09:  ES64L-G09RevD.01 24-Apr-2013

 --------------------
 #p B2PLYPD3/Def2QZVP
 --------------------

 --------
 acrolein
 --------
 Symbolic Z-matrix:
 Charge =  0 Multiplicity = 1

                         Standard orientation:
 ---------------------------------------------------------------------
 Center     Atomic      Atomic             Coordinates (Angstroms)
 Number     Number       Type             X           Y           Z
 ---------------------------------------------------------------------
      1          6           0        0.662867    0.338132    0.009855
      2          8           0        1.797394   -0.106828   -0.012011
      3          6           0       -0.568505   -0.457737    0.005519
      4          6           0       -1.759205    0.148836   -0.004957
      5          1           0       -0.437173   -1.537524    0.010347
      6          1           0       -1.816946    1.239587   -0.067787
      7          1           0       -2.642209   -0.408565    0.020553
      8          1           0        0.506235    1.385742    0.070474
 ---------------------------------------------------------------------

 SCF Done:  E(RB2PLYPD3) =  -191.614573746     A.U. after   12 cycles
 E2(B2PLYPD3) =    -0.2471716991D+00 E(B2PLYPD3) =    -0.19186174544518D+03

 The electronic state is 1-A.
 Alpha  occ. eigenvalues --  -19.72666 -10.71063 -10.65401 -10.64521  -1.18888
 Alpha  occ. eigenvalues --   -0.93224  -0.76058  -0.67466  -0.56853  -0.56444
 Alpha  occ. eigenvalues --   -0.50605  -0.47251  -0.46407  -0.34663  -0.33853
 Alpha virt. eigenvalues --   -0.01949   0.05767   0.07242   0.08155   0.09728
 Alpha virt. eigenvalues --    0.12705   0.14030   0.15322   0.17474   0.19568
 Alpha virt. eigenvalues --    0.20138   0.21787   0.25299   0.26698   0.28824

 Mulliken charges:
               1
     1  C    0.155944
     2  O   -0.356972
     3  C   -0.036287
     4  C   -0.133354
     5  H    0.103100
     6  H    0.086567
     7  H    0.106448
     8  H    0.074555
 Sum of Mulliken charges =   0.00000

 Dipole moment (field-independent basis, Debye):
    X=             -3.5894    Y=              0.7401    Z=              0.0338  Tot=              3.6651
 Quadrupole moment (field-independent basis, Debye-Ang):
   XX=            -27.6077   YY=            -21.6586   ZZ=            -25.1617
   XY=              0.8583   XZ=              0.1158   YZ=             -0.0831

 Normal termination of Gaussian 09 at Wed Aug 26 18:36:43 2020.
