 Gaussian 09, Revision D.01,
 Gaussian 09:  ES64L-G09RevD.01 24-Apr-2013

 --------------------
 #p B2PLYPD3/Def2QZVP
 --------------------

 --------
 acrolein
 --------
 Symbolic Z-matrix:
 Charge =  0 Multiplicity = 1

                         Standard orientation:
 ---------------------------------------------------------------------
 Center     Atomic      Atomic             Coordinates (Angstroms)
 Number     Number       Type             X           Y           Z
 ---------------------------------------------------------------------
      1          6           0        0.670424    0.353427    0.010892
      2          8           0        1.787270   -0.129405   -0.012183
      3          6           0       -0.557641   -0.428593    0.008110
      4          6           0       -1.753632    0.132229   -0.014547
      5          1           0       -0.437983   -1.497253    0.048819
      6          1           0       -1.815219    1.175056    0.027332
      7          1           0       -2.700474   -0.423269   -0.024419
      8          1           0        0.500608    1.438321    0.019001
 ---------------------------------------------------------------------

 SCF Done:  E(RB2PLYPD3) =  -191.615264415     A.U. after   12 cycles
 E2(B2PLYPD3) =    -0.2470003989D+00 E(B2PLYPD3) =    -0.19186226481428D+03

 The electronic state is 1-A.
 Alpha  occ. eigenvalues --  -19.72898 -10.71543 -10.65115 -10.63984  -1.19204
 Alpha  occ. eigenvalues --   -0.93557  -0.75919  -0.67368  -0.56859  -0.56519
 Alpha  occ. eigenvalues --   -0.50751  -0.46977  -0.46492  -0.34860  -0.34007
 Alpha virt. eigenvalues --   -0.01885   0.05752   0.07227   0.08349   0.09798
 Alpha virt. eigenvalues --    0.12611   0.14017   0.15347   0.17533   0.19907
 Alpha virt. eigenvalues --    0.20039   0.21582   0.25696   0.26429   0.28862

 Mulliken charges:
               1
     1  C    0.152631
     2  O   -0.352609
     3  C   -0.027693
     4  C   -0.132073
     5  H    0.103207
     6  H    0.082350
     7  H    0.102927
     8  H    0.071259
 Sum of Mulliken charges =   0.00000

 Dipole moment (field-independent basis, Debye):
    X=             -3.5316    Y=              0.7987    Z=              0.0914  Tot=              3.6219
 Quadrupole moment (field-independent basis, Debye-Ang):
   XX=            -27.3003   YY=            -21.8899   ZZ=            -25.1106
   XY=              0.9913   XZ=              0.0487   YZ=             -0.0086

 Normal termination of Gaussian 09 at Wed Aug 26 16:02:32 2020.
