 Gaussian 09, Revision D.01,
 Gaussian 09:  ES64L-G09RevD.01 24-Apr-2013

 --------------------
 #p B2PLYPD3/Def2QZVP
 --------------------

 --------
 acrolein
 --------
 Symbolic Z-matrix:
 Charge =  0 Multiplicity = 1

                         Standard orientation:
 ---------------------------------------------------------------------
 Center     Atomic      Atomic             Coordinates (Angstroms)
 Number     Number       Type             X           Y           Z
 ---------------------------------------------------------------------
      1          6           0        0.666461    0.356751    0.034306
      2          8           0        1.778899   -0.139227   -0.039244
      3          6           0       -0.547658   -0.441087    0.059525
      4          6           0       -1.743430    0.122589   -0.042416
      5          1           0       -0.457288   -1.421239    0.004969
      6          1           0       -1.805508    1.228102   -0.025385
      7          1           0       -2.723650   -0.437986   -0.036148
      8          1           0        0.503017    1.515422    0.062026
 ---------------------------------------------------------------------

 SCF Done:  E(RB2PLYPD3) =  -191.603645845     A.U. after   13 cycles
 E2(B2PLYPD3) =    -0.2480375607D+00 E(B2PLYPD3) =    -0.19185168340617D+03

 The electronic state is 1-A.
 Alpha  occ. eigenvalues --  -19.72981 -10.72282 -10.66143 -10.63264  -1.19125
 Alpha  occ. eigenvalues --   -0.93604  -0.75039  -0.67575  -0.56457  -0.56048
 Alpha  occ. eigenvalues --   -0.50406  -0.46914  -0.46689  -0.34856  -0.33907
 Alpha virt. eigenvalues --   -0.01935   0.05584   0.07199   0.08114   0.09787
 Alpha virt. eigenvalues --    0.12241   0.13609   0.15290   0.18011   0.19493
 Alpha virt. eigenvalues --    0.19908   0.21188   0.25324   0.26237   0.29153

 Mulliken charges:
               1
     1  C    0.156557
     2  O   -0.350996
     3  C   -0.038897
     4  C   -0.116637
     5  H    0.115069
     6  H    0.076068
     7  H    0.097794
     8  H    0.061042
 Sum of Mulliken charges =   0.00000

 Dipole moment (field-independent basis, Debye):
    X=             -3.5230    Y=              0.7235    Z=              0.0927  Tot=              3.5978
 Quadrupole moment (field-independent basis, Debye-Ang):
   XX=            -27.2776   YY=            -21.9343   ZZ=            -25.2115
   XY=              1.1090   XZ=              0.3164   YZ=              0.0402

 Normal termination of Gaussian 09 at Wed Aug 26 08:56:29 2020.
