 Gaussian 09, Revision D.01,
 Gaussian 09:  ES64L-G09RevD.01 24-Apr-2013

 --------------------
 #p B2PLYPD3/Def2QZVP
 --------------------

 --------
 acrolein
 --------
 Symbolic Z-matrix:
 Charge =  0 Multiplicity = 1

                         Standard orientation:
 ---------------------------------------------------------------------
 Center     Atomic      Atomic             Coordinates (Angstroms)
 Number     Number       Type             X           Y           Z
 ---------------------------------------------------------------------
      1          6           0       -0.677320    0.355258   -0.003901
      2          8           0       -1.784125   -0.133484    0.006166
      3          6           0        0.555655   -0.445565   -0.007304
      4          6           0        1.749376    0.140940   -0.005649
      5          1           0        0.463588   -1.508057    0.015756
      6          1           0        1.796668    1.198914    0.064077
      7          1           0        2.756671   -0.417136    0.005833
      8          1           0       -0.510186    1.490348   -0.033871
 ---------------------------------------------------------------------

 SCF Done:  E(RB2PLYPD3) =  -191.611778129     A.U. after   12 cycles
 E2(B2PLYPD3) =    -0.2476266355D+00 E(B2PLYPD3) =    -0.19185940476454D+03

 The electronic state is 1-A.
 Alpha  occ. eigenvalues --  -19.73010 -10.72138 -10.65822 -10.64215  -1.19727
 Alpha  occ. eigenvalues --   -0.93030  -0.74812  -0.66887  -0.56443  -0.55978
 Alpha  occ. eigenvalues --   -0.50398  -0.46998  -0.46575  -0.34731  -0.33910
 Alpha virt. eigenvalues --   -0.01700   0.05639   0.07044   0.08109   0.09743
 Alpha virt. eigenvalues --    0.12362   0.13909   0.15367   0.17521   0.19778
 Alpha virt. eigenvalues --    0.20126   0.21107   0.25508   0.26184   0.28929

 Mulliken charges:
               1
     1  C    0.153878
     2  O   -0.343788
     3  C   -0.036336
     4  C   -0.127780
     5  H    0.107861
     6  H    0.083017
     7  H    0.097792
     8  H    0.065356
 Sum of Mulliken charges =   0.00000

 Dipole moment (field-independent basis, Debye):
    X=              3.4360    Y=              0.7599    Z=              0.0455  Tot=              3.5193
 Quadrupole moment (field-independent basis, Debye-Ang):
   XX=            -27.3080   YY=            -21.8891   ZZ=            -25.2751
   XY=             -1.0353   XZ=              0.1577   YZ=              0.0350

 Normal termination of Gaussian 09 at Wed Aug 26 14:58:39 2020.
