 Gaussian 09, Revision D.01,
 Gaussian 09:  ES64L-G09RevD.01 24-Apr-2013

 --------------------
 #p B2PLYPD3/Def2QZVP
 --------------------

 --------
 acrolein
 --------
 Symbolic Z-matrix:
 Charge =  0 Multiplicity = 1

                         Standard orientation:
 ---------------------------------------------------------------------
 Center     Atomic      Atomic             Coordinates (Angstroms)
 Number     Number       Type             X           Y           Z
 ---------------------------------------------------------------------
      1          6           0        0.648493    0.353361    0.097490
      2          8           0        1.767655   -0.152168   -0.074162
      3          6           0       -0.547936   -0.414557    0.043698
      4          6           0       -1.724118    0.131175   -0.071775
      5          1           0       -0.486510   -1.371495    0.132430
      6          1           0       -1.683062    1.129720   -0.082593
      7          1           0       -2.794899   -0.422204    0.022531
      8          1           0        0.564594    1.461443    0.104454
 ---------------------------------------------------------------------

 SCF Done:  E(RB2PLYPD3) =  -191.580707316     A.U. after   13 cycles
 E2(B2PLYPD3) =    -0.2480268207D+00 E(B2PLYPD3) =    -0.19182873413647D+03

 The electronic state is 1-A.
 Alpha  occ. eigenvalues --  -19.72762 -10.71686 -10.65291 -10.62404  -1.17955
 Alpha  occ. eigenvalues --   -0.95069  -0.75771  -0.69250  -0.57657  -0.55686
 Alpha  occ. eigenvalues --   -0.50067  -0.47152  -0.46164  -0.35101  -0.34050
 Alpha virt. eigenvalues --   -0.02261   0.05516   0.07180   0.08163   0.09832
 Alpha virt. eigenvalues --    0.12262   0.13952   0.15251   0.18172   0.19411
 Alpha virt. eigenvalues --    0.20373   0.21036   0.25665   0.25900   0.29819

 Mulliken charges:
               1
     1  C    0.137348
     2  O   -0.361970
     3  C   -0.012821
     4  C   -0.124439
     5  H    0.111474
     6  H    0.080127
     7  H    0.096477
     8  H    0.073804
 Sum of Mulliken charges =   0.00000

 Dipole moment (field-independent basis, Debye):
    X=             -3.5722    Y=              0.8488    Z=              0.3905  Tot=              3.6923
 Quadrupole moment (field-independent basis, Debye-Ang):
   XX=            -27.2743   YY=            -21.9625   ZZ=            -24.9604
   XY=              1.4612   XZ=              0.2820   YZ=             -0.2143

 Normal termination of Gaussian 09 at Wed Aug 26 14:47:36 2020.
