 Gaussian 09, Revision D.01,
 Gaussian 09:  ES64L-G09RevD.01 24-Apr-2013

 --------------------
 #p B2PLYPD3/Def2QZVP
 --------------------

 --------
 acrolein
 --------
 Symbolic Z-matrix:
 Charge =  0 Multiplicity = 1

                         Standard orientation:
 ---------------------------------------------------------------------
 Center     Atomic      Atomic             Coordinates (Angstroms)
 Number     Number       Type             X           Y           Z
 ---------------------------------------------------------------------
      1          6           0        0.687836    0.360640   -0.017166
      2          8           0        1.778894   -0.133077    0.018982
      3          6           0       -0.564135   -0.447971   -0.012798
      4          6           0       -1.758676    0.144806    0.002343
      5          1           0       -0.475541   -1.507245   -0.010975
      6          1           0       -1.831609    1.203183    0.094013
      7          1           0       -2.646389   -0.427628    0.004437
      8          1           0        0.532235    1.451459   -0.073608
 ---------------------------------------------------------------------

 SCF Done:  E(RB2PLYPD3) =  -191.616516204     A.U. after   12 cycles
 E2(B2PLYPD3) =    -0.2461611783D+00 E(B2PLYPD3) =    -0.19186267738255D+03

 The electronic state is 1-A.
 Alpha  occ. eigenvalues --  -19.72899 -10.71602 -10.64660 -10.64047  -1.20364
 Alpha  occ. eigenvalues --   -0.92725  -0.75220  -0.67312  -0.56901  -0.56469
 Alpha  occ. eigenvalues --   -0.50878  -0.47372  -0.47109  -0.34537  -0.33810
 Alpha virt. eigenvalues --   -0.01362   0.05892   0.07337   0.08094   0.09791
 Alpha virt. eigenvalues --    0.12686   0.14028   0.15447   0.17618   0.19656
 Alpha virt. eigenvalues --    0.20127   0.21747   0.25417   0.26464   0.28609

 Mulliken charges:
               1
     1  C    0.154083
     2  O   -0.338750
     3  C   -0.047447
     4  C   -0.134906
     5  H    0.105797
     6  H    0.083752
     7  H    0.101366
     8  H    0.076104
 Sum of Mulliken charges =   0.00000

 Dipole moment (field-independent basis, Debye):
    X=             -3.3109    Y=              0.7985    Z=             -0.0102  Tot=              3.4059
 Quadrupole moment (field-independent basis, Debye-Ang):
   XX=            -27.4081   YY=            -21.6805   ZZ=            -25.1468
   XY=              1.0779   XZ=             -0.2536   YZ=              0.0936

 Normal termination of Gaussian 09 at Wed Aug 26 15:31:40 2020.
