 Gaussian 09, Revision D.01,
 Gaussian 09:  ES64L-G09RevD.01 24-Apr-2013

 --------------------
 #p B2PLYPD3/Def2QZVP
 --------------------

 --------
 acrolein
 --------
 Symbolic Z-matrix:
 Charge =  0 Multiplicity = 1

                         Standard orientation:
 ---------------------------------------------------------------------
 Center     Atomic      Atomic             Coordinates (Angstroms)
 Number     Number       Type             X           Y           Z
 ---------------------------------------------------------------------
      1          6           0       -0.701786    0.364076    0.098769
      2          8           0       -1.742763   -0.148419   -0.069643
      3          6           0        0.548372   -0.418742    0.020855
      4          6           0        1.743222    0.142879   -0.065099
      5          1           0        0.403213   -1.447181    0.115334
      6          1           0        1.698152    1.131867   -0.153531
      7          1           0        2.857365   -0.425097    0.123175
      8          1           0       -0.555467    1.398485    0.145017
 ---------------------------------------------------------------------

 SCF Done:  E(RB2PLYPD3) =  -191.583024915     A.U. after   12 cycles
 E2(B2PLYPD3) =    -0.2454456639D+00 E(B2PLYPD3) =    -0.19182847057875D+03

 The electronic state is 1-A.
 Alpha  occ. eigenvalues --  -19.72947 -10.70669 -10.65391 -10.63123  -1.22200
 Alpha  occ. eigenvalues --   -0.92980  -0.74871  -0.68647  -0.57678  -0.55465
 Alpha  occ. eigenvalues --   -0.50811  -0.48073  -0.46146  -0.34749  -0.33618
 Alpha virt. eigenvalues --   -0.01223   0.05487   0.07344   0.08290   0.09871
 Alpha virt. eigenvalues --    0.12222   0.14047   0.15453   0.17989   0.19377
 Alpha virt. eigenvalues --    0.20056   0.21101   0.25351   0.26634   0.28918

 Mulliken charges:
               1
     1  C    0.147728
     2  O   -0.326106
     3  C   -0.033781
     4  C   -0.149109
     5  H    0.103716
     6  H    0.083992
     7  H    0.097117
     8  H    0.076442
 Sum of Mulliken charges =   0.00000

 Dipole moment (field-independent basis, Debye):
    X=              2.9622    Y=              0.9175    Z=              0.4084  Tot=              3.1278
 Quadrupole moment (field-independent basis, Debye-Ang):
   XX=            -27.0544   YY=            -22.0307   ZZ=            -25.0229
   XY=             -1.2345   XZ=             -0.1448   YZ=             -0.3419

 Normal termination of Gaussian 09 at Wed Aug 26 11:29:44 2020.
