 Gaussian 09, Revision D.01,
 Gaussian 09:  ES64L-G09RevD.01 24-Apr-2013

 --------------------
 #p B2PLYPD3/Def2QZVP
 --------------------

 --------
 acrolein
 --------
 Symbolic Z-matrix:
 Charge =  0 Multiplicity = 1

                         Standard orientation:
 ---------------------------------------------------------------------
 Center     Atomic      Atomic             Coordinates (Angstroms)
 Number     Number       Type             X           Y           Z
 ---------------------------------------------------------------------
      1          6           0       -0.674593    0.326294    0.019557
      2          8           0       -1.799715   -0.102424   -0.019666
      3          6           0        0.572123   -0.468318    0.013103
      4          6           0        1.756642    0.158188   -0.025201
      5          1           0        0.474214   -1.526441    0.091255
      6          1           0        1.810866    1.277229    0.089817
      7          1           0        2.691427   -0.410969   -0.070037
      8          1           0       -0.503819    1.382582    0.001540
 ---------------------------------------------------------------------

 SCF Done:  E(RB2PLYPD3) =  -191.613223291     A.U. after   13 cycles
 E2(B2PLYPD3) =    -0.2470738132D+00 E(B2PLYPD3) =    -0.19186029710437D+03

 The electronic state is 1-A.
 Alpha  occ. eigenvalues --  -19.72740 -10.71116 -10.66226 -10.64442  -1.19778
 Alpha  occ. eigenvalues --   -0.92835  -0.75191  -0.67381  -0.56361  -0.56186
 Alpha  occ. eigenvalues --   -0.50673  -0.47383  -0.46522  -0.34612  -0.33724
 Alpha virt. eigenvalues --   -0.01748   0.05654   0.07179   0.08163   0.09652
 Alpha virt. eigenvalues --    0.12580   0.13919   0.15327   0.17744   0.19514
 Alpha virt. eigenvalues --    0.20083   0.21330   0.25120   0.26651   0.28783

 Mulliken charges:
               1
     1  C    0.157006
     2  O   -0.346174
     3  C   -0.039764
     4  C   -0.131198
     5  H    0.103569
     6  H    0.085243
     7  H    0.102728
     8  H    0.068591
 Sum of Mulliken charges =   0.00000

 Dipole moment (field-independent basis, Debye):
    X=              3.5035    Y=              0.6810    Z=              0.1653  Tot=              3.5729
 Quadrupole moment (field-independent basis, Debye-Ang):
   XX=            -27.5592   YY=            -21.7547   ZZ=            -25.2185
   XY=             -0.8785   XZ=             -0.0722   YZ=              0.0318

 Normal termination of Gaussian 09 at Wed Aug 26 08:35:41 2020.
