 Gaussian 09, Revision D.01,
 Gaussian 09:  ES64L-G09RevD.01 24-Apr-2013

 --------------------
 #p B2PLYPD3/Def2QZVP
 --------------------

 --------
 acrolein
 --------
 Symbolic Z-matrix:
 Charge =  0 Multiplicity = 1

                         Standard orientation:
 ---------------------------------------------------------------------
 Center     Atomic      Atomic             Coordinates (Angstroms)
 Number     Number       Type             X           Y           Z
 ---------------------------------------------------------------------
      1          6           0       -0.689037    0.325807    0.077616
      2          8           0       -1.786020   -0.092957   -0.082905
      3          6           0        0.576270   -0.444986    0.030052
      4          6           0        1.775680    0.138474   -0.024529
      5          1           0        0.353207   -1.527229    0.196162
      6          1           0        1.905151    1.195966   -0.166005
      7          1           0        2.593450   -0.363045   -0.123343
      8          1           0       -0.541125    1.322195    0.257586
 ---------------------------------------------------------------------

 SCF Done:  E(RB2PLYPD3) =  -191.596494867     A.U. after   13 cycles
 E2(B2PLYPD3) =    -0.2451403739D+00 E(B2PLYPD3) =    -0.19184163524081D+03

 The electronic state is 1-A.
 Alpha  occ. eigenvalues --  -19.72790 -10.70269 -10.64751 -10.64085  -1.21068
 Alpha  occ. eigenvalues --   -0.92892  -0.77156  -0.67718  -0.57915  -0.56591
 Alpha  occ. eigenvalues --   -0.52090  -0.47821  -0.46227  -0.34798  -0.33547
 Alpha virt. eigenvalues --   -0.01536   0.06004   0.07545   0.08392   0.09609
 Alpha virt. eigenvalues --    0.13061   0.14149   0.15096   0.17760   0.19176
 Alpha virt. eigenvalues --    0.20117   0.22586   0.24607   0.27260   0.28413

 Mulliken charges:
               1
     1  C    0.160297
     2  O   -0.337473
     3  C   -0.041234
     4  C   -0.129285
     5  H    0.093628
     6  H    0.076726
     7  H    0.105057
     8  H    0.072286
 Sum of Mulliken charges =   0.00000

 Dipole moment (field-independent basis, Debye):
    X=              3.3123    Y=              0.7437    Z=              0.2836  Tot=              3.4066
 Quadrupole moment (field-independent basis, Debye-Ang):
   XX=            -27.1177   YY=            -21.9672   ZZ=            -24.9028
   XY=             -0.4809   XZ=             -0.9321   YZ=             -0.3466

 Normal termination of Gaussian 09 at Wed Aug 26 13:18:50 2020.
