 Gaussian 09, Revision D.01,
 Gaussian 09:  ES64L-G09RevD.01 24-Apr-2013

 --------------------
 #p B2PLYPD3/Def2QZVP
 --------------------

 --------
 acrolein
 --------
 Symbolic Z-matrix:
 Charge =  0 Multiplicity = 1

                         Standard orientation:
 ---------------------------------------------------------------------
 Center     Atomic      Atomic             Coordinates (Angstroms)
 Number     Number       Type             X           Y           Z
 ---------------------------------------------------------------------
      1          6           0       -0.666681    0.325163    0.025443
      2          8           0       -1.786991   -0.093245   -0.049743
      3          6           0        0.569142   -0.469268    0.070669
      4          6           0        1.773444    0.122702   -0.065857
      5          1           0        0.397975   -1.530231    0.100888
      6          1           0        1.931317    1.427487    0.059231
      7          1           0        2.532080   -0.404942   -0.085476
      8          1           0       -0.620874    1.382059    0.141769
 ---------------------------------------------------------------------

 SCF Done:  E(RB2PLYPD3) =  -191.563954014     A.U. after   13 cycles
 E2(B2PLYPD3) =    -0.2474618419D+00 E(B2PLYPD3) =    -0.19181141585579D+03

 The electronic state is 1-A.
 Alpha  occ. eigenvalues --  -19.72375 -10.70603 -10.66339 -10.64934  -1.20114
 Alpha  occ. eigenvalues --   -0.92884  -0.76672  -0.66973  -0.58006  -0.55229
 Alpha  occ. eigenvalues --   -0.51061  -0.46976  -0.45477  -0.34651  -0.33445
 Alpha virt. eigenvalues --   -0.01906   0.04874   0.07041   0.08475   0.09464
 Alpha virt. eigenvalues --    0.11777   0.14166   0.15366   0.17453   0.18674
 Alpha virt. eigenvalues --    0.19935   0.22310   0.24514   0.26398   0.28410

 Mulliken charges:
               1
     1  C    0.168019
     2  O   -0.345082
     3  C   -0.056507
     4  C   -0.136867
     5  H    0.103507
     6  H    0.080450
     7  H    0.121878
     8  H    0.064603
 Sum of Mulliken charges =   0.00000

 Dipole moment (field-independent basis, Debye):
    X=              3.4367    Y=              0.5844    Z=              0.2457  Tot=              3.4947
 Quadrupole moment (field-independent basis, Debye-Ang):
   XX=            -27.5646   YY=            -21.5727   ZZ=            -25.2503
   XY=             -0.8975   XZ=             -0.3544   YZ=              0.0826

 Normal termination of Gaussian 09 at Wed Aug 26 11:06:10 2020.
