 Gaussian 09, Revision D.01,
 Gaussian 09:  ES64L-G09RevD.01 24-Apr-2013

 --------------------
 #p B2PLYPD3/Def2QZVP
 --------------------

 --------
 acrolein
 --------
 Symbolic Z-matrix:
 Charge =  0 Multiplicity = 1

                         Standard orientation:
 ---------------------------------------------------------------------
 Center     Atomic      Atomic             Coordinates (Angstroms)
 Number     Number       Type             X           Y           Z
 ---------------------------------------------------------------------
      1          6           0        0.665031    0.352157    0.009914
      2          8           0        1.787393   -0.128847   -0.015148
      3          6           0       -0.558248   -0.432627    0.034658
      4          6           0       -1.748367    0.136102   -0.018503
      5          1           0       -0.441406   -1.525335   -0.014242
      6          1           0       -1.795692    1.192343    0.014362
      7          1           0       -2.690145   -0.439351   -0.042751
      8          1           0        0.477604    1.469322    0.007406
 ---------------------------------------------------------------------

 SCF Done:  E(RB2PLYPD3) =  -191.614050162     A.U. after   12 cycles
 E2(B2PLYPD3) =    -0.2478044843D+00 E(B2PLYPD3) =    -0.19186185464592D+03

 The electronic state is 1-A.
 Alpha  occ. eigenvalues --  -19.72984 -10.71964 -10.65360 -10.64251  -1.18980
 Alpha  occ. eigenvalues --   -0.93619  -0.75656  -0.66655  -0.56450  -0.56423
 Alpha  occ. eigenvalues --   -0.50477  -0.46673  -0.46535  -0.34939  -0.33986
 Alpha virt. eigenvalues --   -0.01938   0.05733   0.06946   0.08250   0.09831
 Alpha virt. eigenvalues --    0.12566   0.13802   0.15257   0.17332   0.19900
 Alpha virt. eigenvalues --    0.20044   0.21532   0.25457   0.26464   0.28867

 Mulliken charges:
               1
     1  C    0.154975
     2  O   -0.352569
     3  C   -0.025928
     4  C   -0.129466
     5  H    0.101197
     6  H    0.083799
     7  H    0.104609
     8  H    0.063383
 Sum of Mulliken charges =   0.00000

 Dipole moment (field-independent basis, Debye):
    X=             -3.5587    Y=              0.7535    Z=              0.0080  Tot=              3.6376
 Quadrupole moment (field-independent basis, Debye-Ang):
   XX=            -27.4202   YY=            -21.8741   ZZ=            -25.1999
   XY=              1.0000   XZ=              0.1703   YZ=              0.0883

 Normal termination of Gaussian 09 at Wed Aug 26 08:50:39 2020.
