 Gaussian 09, Revision D.01,
 Gaussian 09:  ES64L-G09RevD.01 24-Apr-2013

 --------------------
 #p B2PLYPD3/Def2QZVP
 --------------------

 --------
 acrolein
 --------
 Symbolic Z-matrix:
 Charge =  0 Multiplicity = 1

                         Standard orientation:
 ---------------------------------------------------------------------
 Center     Atomic      Atomic             Coordinates (Angstroms)
 Number     Number       Type             X           Y           Z
 ---------------------------------------------------------------------
      1          6           0       -0.682578    0.350045    0.026394
      2          8           0       -1.787936   -0.114300   -0.019742
      3          6           0        0.569800   -0.471192    0.021752
      4          6           0        1.754590    0.149916   -0.017067
      5          1           0        0.474031   -1.537481    0.004811
      6          1           0        1.854672    1.266005    0.006108
      7          1           0        2.653032   -0.393350   -0.032516
      8          1           0       -0.529122    1.406607   -0.006943
 ---------------------------------------------------------------------

 SCF Done:  E(RB2PLYPD3) =  -191.614561826     A.U. after   12 cycles
 E2(B2PLYPD3) =    -0.2464056254D+00 E(B2PLYPD3) =    -0.19186096745168D+03

 The electronic state is 1-A.
 Alpha  occ. eigenvalues --  -19.72744 -10.71226 -10.65340 -10.64434  -1.20126
 Alpha  occ. eigenvalues --   -0.92483  -0.75128  -0.67480  -0.56546  -0.56423
 Alpha  occ. eigenvalues --   -0.50884  -0.46984  -0.46933  -0.34549  -0.33738
 Alpha virt. eigenvalues --   -0.01340   0.05776   0.07360   0.07976   0.09651
 Alpha virt. eigenvalues --    0.12592   0.14219   0.15410   0.17650   0.19602
 Alpha virt. eigenvalues --    0.19985   0.21605   0.25305   0.26627   0.28620

 Mulliken charges:
               1
     1  C    0.157689
     2  O   -0.342110
     3  C   -0.053554
     4  C   -0.131286
     5  H    0.107251
     6  H    0.081059
     7  H    0.100963
     8  H    0.079986
 Sum of Mulliken charges =   0.00000

 Dipole moment (field-independent basis, Debye):
    X=              3.3748    Y=              0.7699    Z=              0.0523  Tot=              3.4619
 Quadrupole moment (field-independent basis, Debye-Ang):
   XX=            -27.4945   YY=            -21.5807   ZZ=            -25.2133
   XY=             -0.8993   XZ=             -0.1614   YZ=              0.0277

 Normal termination of Gaussian 09 at Wed Aug 26 18:55:28 2020.
