 Gaussian 09, Revision D.01,
 Gaussian 09:  ES64L-G09RevD.01 24-Apr-2013

 --------------------
 #p B2PLYPD3/Def2QZVP
 --------------------

 --------
 acrolein
 --------
 Symbolic Z-matrix:
 Charge =  0 Multiplicity = 1

                         Standard orientation:
 ---------------------------------------------------------------------
 Center     Atomic      Atomic             Coordinates (Angstroms)
 Number     Number       Type             X           Y           Z
 ---------------------------------------------------------------------
      1          6           0        0.650063    0.369256    0.054105
      2          8           0        1.788254   -0.123394   -0.039898
      3          6           0       -0.576269   -0.458816    0.019635
      4          6           0       -1.755779    0.143110   -0.052028
      5          1           0       -0.430170   -1.647866    0.012870
      6          1           0       -1.732925    1.264656   -0.147595
      7          1           0       -2.583191   -0.375777    0.174273
      8          1           0        0.532159    1.424846    0.149366
 ---------------------------------------------------------------------

 SCF Done:  E(RB2PLYPD3) =  -191.594290576     A.U. after   14 cycles
 E2(B2PLYPD3) =    -0.2493401543D+00 E(B2PLYPD3) =    -0.19184363073040D+03

 The electronic state is 1-A.
 Alpha  occ. eigenvalues --  -19.72796 -10.71768 -10.65578 -10.64900  -1.17565
 Alpha  occ. eigenvalues --   -0.93253  -0.75915  -0.66405  -0.57134  -0.55754
 Alpha  occ. eigenvalues --   -0.50262  -0.45986  -0.45508  -0.34739  -0.33817
 Alpha virt. eigenvalues --   -0.02233   0.05719   0.06603   0.07563   0.09777
 Alpha virt. eigenvalues --    0.12307   0.13941   0.15556   0.16621   0.18937
 Alpha virt. eigenvalues --    0.20053   0.22228   0.25042   0.26426   0.29455

 Mulliken charges:
               1
     1  C    0.152443
     2  O   -0.362898
     3  C   -0.040292
     4  C   -0.122379
     5  H    0.098609
     6  H    0.076164
     7  H    0.110063
     8  H    0.088289
 Sum of Mulliken charges =   0.00000

 Dipole moment (field-independent basis, Debye):
    X=             -3.5049    Y=              0.8589    Z=              0.2592  Tot=              3.6179
 Quadrupole moment (field-independent basis, Debye-Ang):
   XX=            -28.1746   YY=            -21.3740   ZZ=            -25.2751
   XY=              1.1238   XZ=             -0.0413   YZ=             -0.1849

 Normal termination of Gaussian 09 at Wed Aug 26 13:53:27 2020.
