 Gaussian 09, Revision D.01,
 Gaussian 09:  ES64L-G09RevD.01 24-Apr-2013

 --------------------
 #p B2PLYPD3/Def2QZVP
 --------------------

 --------
 acrolein
 --------
 Symbolic Z-matrix:
 Charge =  0 Multiplicity = 1

                         Standard orientation:
 ---------------------------------------------------------------------
 Center     Atomic      Atomic             Coordinates (Angstroms)
 Number     Number       Type             X           Y           Z
 ---------------------------------------------------------------------
      1          6           0        0.662832    0.366136    0.013237
      2          8           0        1.774188   -0.159223   -0.024229
      3          6           0       -0.557109   -0.404046    0.011426
      4          6           0       -1.721371    0.124931   -0.043291
      5          1           0       -0.498673   -1.390675    0.099691
      6          1           0       -1.743412    1.055802   -0.083642
      7          1           0       -2.717027   -0.438055    0.109187
      8          1           0        0.459503    1.524586    0.180368
 ---------------------------------------------------------------------

 SCF Done:  E(RB2PLYPD3) =  -191.575640756     A.U. after   12 cycles
 E2(B2PLYPD3) =    -0.2473236350D+00 E(B2PLYPD3) =    -0.19182296439144D+03

 The electronic state is 1-A.
 Alpha  occ. eigenvalues --  -19.73346 -10.72696 -10.63507 -10.62287  -1.18780
 Alpha  occ. eigenvalues --   -0.95409  -0.76135  -0.68609  -0.57148  -0.56422
 Alpha  occ. eigenvalues --   -0.50651  -0.47427  -0.46472  -0.35534  -0.34113
 Alpha virt. eigenvalues --   -0.01806   0.05726   0.06959   0.08362   0.09929
 Alpha virt. eigenvalues --    0.12618   0.13701   0.15291   0.17761   0.19400
 Alpha virt. eigenvalues --    0.20611   0.21807   0.25346   0.26815   0.28922

 Mulliken charges:
               1
     1  C    0.142713
     2  O   -0.351256
     3  C   -0.008151
     4  C   -0.130395
     5  H    0.106313
     6  H    0.087429
     7  H    0.093728
     8  H    0.059619
 Sum of Mulliken charges =   0.00000

 Dipole moment (field-independent basis, Debye):
    X=             -3.4939    Y=              0.8007    Z=              0.2327  Tot=              3.5920
 Quadrupole moment (field-independent basis, Debye-Ang):
   XX=            -27.2704   YY=            -22.0879   ZZ=            -24.8339
   XY=              1.1730   XZ=             -0.1035   YZ=             -0.1861

 Normal termination of Gaussian 09 at Wed Aug 26 13:17:10 2020.
