 Gaussian 09, Revision D.01,
 Gaussian 09:  ES64L-G09RevD.01 24-Apr-2013

 --------------------
 #p B2PLYPD3/Def2QZVP
 --------------------

 --------
 acrolein
 --------
 Symbolic Z-matrix:
 Charge =  0 Multiplicity = 1

                         Standard orientation:
 ---------------------------------------------------------------------
 Center     Atomic      Atomic             Coordinates (Angstroms)
 Number     Number       Type             X           Y           Z
 ---------------------------------------------------------------------
      1          6           0        0.671867    0.353472   -0.006530
      2          8           0        1.772263   -0.111793    0.041891
      3          6           0       -0.579591   -0.488147   -0.076467
      4          6           0       -1.731371    0.158124    0.006383
      5          1           0       -0.513406   -1.609555   -0.023878
      6          1           0       -1.803859    1.335495    0.032389
      7          1           0       -2.617267   -0.336786    0.246126
      8          1           0        0.590994    1.364499   -0.130086
 ---------------------------------------------------------------------

 SCF Done:  E(RB2PLYPD3) =  -191.599413419     A.U. after   13 cycles
 E2(B2PLYPD3) =    -0.2464498807D+00 E(B2PLYPD3) =    -0.19184586329924D+03

 The electronic state is 1-A.
 Alpha  occ. eigenvalues --  -19.72433 -10.70730 -10.65421 -10.64859  -1.20282
 Alpha  occ. eigenvalues --   -0.92539  -0.74707  -0.67425  -0.56495  -0.56311
 Alpha  occ. eigenvalues --   -0.50743  -0.46972  -0.45814  -0.34755  -0.33530
 Alpha virt. eigenvalues --   -0.00946   0.05672   0.07046   0.07653   0.09547
 Alpha virt. eigenvalues --    0.12423   0.14548   0.15358   0.17361   0.19520
 Alpha virt. eigenvalues --    0.19593   0.21676   0.24828   0.26295   0.28836

 Mulliken charges:
               1
     1  C    0.162028
     2  O   -0.339630
     3  C   -0.063996
     4  C   -0.116963
     5  H    0.104068
     6  H    0.068349
     7  H    0.098629
     8  H    0.087513
 Sum of Mulliken charges =   0.00000

 Dipole moment (field-independent basis, Debye):
    X=             -3.2753    Y=              0.7913    Z=              0.0761  Tot=              3.3704
 Quadrupole moment (field-independent basis, Debye-Ang):
   XX=            -27.7830   YY=            -21.3866   ZZ=            -25.1611
   XY=              1.0674   XZ=             -0.9018   YZ=             -0.1313

 Normal termination of Gaussian 09 at Wed Aug 26 12:02:32 2020.
