 Gaussian 09, Revision D.01,
 Gaussian 09:  ES64L-G09RevD.01 24-Apr-2013

 --------------------
 #p B2PLYPD3/Def2QZVP
 --------------------

 --------
 acrolein
 --------
 Symbolic Z-matrix:
 Charge =  0 Multiplicity = 1

                         Standard orientation:
 ---------------------------------------------------------------------
 Center     Atomic      Atomic             Coordinates (Angstroms)
 Number     Number       Type             X           Y           Z
 ---------------------------------------------------------------------
      1          6           0        0.683646    0.360517   -0.028215
      2          8           0        1.773608   -0.131100    0.019602
      3          6           0       -0.542031   -0.441428   -0.031663
      4          6           0       -1.753078    0.137592   -0.003965
      5          1           0       -0.404374   -1.534659    0.045220
      6          1           0       -1.860561    1.195996    0.022354
      7          1           0       -2.786741   -0.434222    0.099916
      8          1           0        0.531592    1.481602    0.058753
 ---------------------------------------------------------------------

 SCF Done:  E(RB2PLYPD3) =  -191.607693310     A.U. after   13 cycles
 E2(B2PLYPD3) =    -0.2475464361D+00 E(B2PLYPD3) =    -0.19185523974574D+03

 The electronic state is 1-A.
 Alpha  occ. eigenvalues --  -19.72883 -10.71719 -10.66395 -10.64743  -1.20533
 Alpha  occ. eigenvalues --   -0.92440  -0.74741  -0.66530  -0.56850  -0.55457
 Alpha  occ. eigenvalues --   -0.50324  -0.47362  -0.45922  -0.34546  -0.33807
 Alpha virt. eigenvalues --   -0.01703   0.05521   0.06947   0.08208   0.09705
 Alpha virt. eigenvalues --    0.12181   0.14024   0.15385   0.17469   0.19726
 Alpha virt. eigenvalues --    0.19921   0.21170   0.25284   0.26434   0.28730

 Mulliken charges:
               1
     1  C    0.158786
     2  O   -0.338662
     3  C   -0.043534
     4  C   -0.128276
     5  H    0.108775
     6  H    0.085390
     7  H    0.092914
     8  H    0.064607
 Sum of Mulliken charges =   0.00000

 Dipole moment (field-independent basis, Debye):
    X=             -3.3443    Y=              0.8001    Z=              0.0879  Tot=              3.4398
 Quadrupole moment (field-independent basis, Debye-Ang):
   XX=            -27.1793   YY=            -21.9117   ZZ=            -25.3379
   XY=              0.8417   XZ=             -0.3991   YZ=             -0.0778

 Normal termination of Gaussian 09 at Wed Aug 26 09:01:39 2020.
