 Gaussian 09, Revision D.01,
 Gaussian 09:  ES64L-G09RevD.01 24-Apr-2013

 --------------------
 #p B2PLYPD3/Def2QZVP
 --------------------

 --------
 acrolein
 --------
 Symbolic Z-matrix:
 Charge =  0 Multiplicity = 1

                         Standard orientation:
 ---------------------------------------------------------------------
 Center     Atomic      Atomic             Coordinates (Angstroms)
 Number     Number       Type             X           Y           Z
 ---------------------------------------------------------------------
      1          6           0       -0.673564    0.321008    0.034381
      2          8           0       -1.777778   -0.093622   -0.070189
      3          6           0        0.556242   -0.495816    0.079715
      4          6           0        1.744521    0.162347   -0.065606
      5          1           0        0.534720   -1.516741    0.154357
      6          1           0        1.896020    1.365088   -0.007876
      7          1           0        2.580242   -0.420657   -0.139754
      8          1           0       -0.551951    1.396049    0.263846
 ---------------------------------------------------------------------

 SCF Done:  E(RB2PLYPD3) =  -191.595870689     A.U. after   13 cycles
 E2(B2PLYPD3) =    -0.2468895314D+00 E(B2PLYPD3) =    -0.19184276022079D+03

 The electronic state is 1-A.
 Alpha  occ. eigenvalues --  -19.72413 -10.71024 -10.66393 -10.64379  -1.20922
 Alpha  occ. eigenvalues --   -0.92389  -0.74976  -0.67103  -0.56835  -0.56030
 Alpha  occ. eigenvalues --   -0.50598  -0.47668  -0.46772  -0.34258  -0.33250
 Alpha virt. eigenvalues --   -0.01504   0.05586   0.06883   0.08307   0.09438
 Alpha virt. eigenvalues --    0.12306   0.14180   0.15355   0.17929   0.18913
 Alpha virt. eigenvalues --    0.19949   0.21448   0.24729   0.26362   0.28415

 Mulliken charges:
               1
     1  C    0.157185
     2  O   -0.331969
     3  C   -0.061723
     4  C   -0.128359
     5  H    0.109067
     6  H    0.087125
     7  H    0.099903
     8  H    0.068770
 Sum of Mulliken charges =   0.00000

 Dipole moment (field-independent basis, Debye):
    X=              3.4062    Y=              0.5768    Z=              0.2901  Tot=              3.4668
 Quadrupole moment (field-independent basis, Debye-Ang):
   XX=            -27.5104   YY=            -21.5250   ZZ=            -25.2546
   XY=             -0.8166   XZ=             -0.6343   YZ=             -0.0359

 Normal termination of Gaussian 09 at Wed Aug 26 14:52:35 2020.
