 Gaussian 09, Revision D.01,
 Gaussian 09:  ES64L-G09RevD.01 24-Apr-2013

 --------------------
 #p B2PLYPD3/Def2QZVP
 --------------------

 --------
 acrolein
 --------
 Symbolic Z-matrix:
 Charge =  0 Multiplicity = 1

                         Standard orientation:
 ---------------------------------------------------------------------
 Center     Atomic      Atomic             Coordinates (Angstroms)
 Number     Number       Type             X           Y           Z
 ---------------------------------------------------------------------
      1          6           0       -0.681676    0.348203    0.015407
      2          8           0       -1.781835   -0.129990   -0.016300
      3          6           0        0.552889   -0.436845    0.012780
      4          6           0        1.760985    0.138307   -0.015922
      5          1           0        0.472385   -1.483926    0.008374
      6          1           0        1.800402    1.188971   -0.068362
      7          1           0        2.694560   -0.423727    0.042089
      8          1           0       -0.505853    1.460613    0.074703
 ---------------------------------------------------------------------

 SCF Done:  E(RB2PLYPD3) =  -191.615099916     A.U. after   12 cycles
 E2(B2PLYPD3) =    -0.2466602802D+00 E(B2PLYPD3) =    -0.19186176019614D+03

 The electronic state is 1-A.
 Alpha  occ. eigenvalues --  -19.72945 -10.71694 -10.65240 -10.63890  -1.20283
 Alpha  occ. eigenvalues --   -0.93064  -0.75513  -0.67229  -0.56757  -0.56491
 Alpha  occ. eigenvalues --   -0.50829  -0.47266  -0.47198  -0.34573  -0.33885
 Alpha virt. eigenvalues --   -0.01777   0.05826   0.07261   0.08385   0.09809
 Alpha virt. eigenvalues --    0.12612   0.13925   0.15438   0.17671   0.19681
 Alpha virt. eigenvalues --    0.20103   0.21501   0.25529   0.26368   0.28890

 Mulliken charges:
               1
     1  C    0.151906
     2  O   -0.340069
     3  C   -0.032943
     4  C   -0.134781
     5  H    0.104658
     6  H    0.083257
     7  H    0.104216
     8  H    0.063755
 Sum of Mulliken charges =   0.00000

 Dipole moment (field-independent basis, Debye):
    X=              3.4232    Y=              0.7321    Z=              0.0622  Tot=              3.5012
 Quadrupole moment (field-independent basis, Debye-Ang):
   XX=            -27.1958   YY=            -21.9297   ZZ=            -25.1523
   XY=             -1.0651   XZ=             -0.0725   YZ=             -0.0837

 Normal termination of Gaussian 09 at Wed Aug 26 16:14:55 2020.
