 Gaussian 09, Revision D.01,
 Gaussian 09:  ES64L-G09RevD.01 24-Apr-2013

 --------------------
 #p B2PLYPD3/Def2QZVP
 --------------------

 --------
 acrolein
 --------
 Symbolic Z-matrix:
 Charge =  0 Multiplicity = 1

                         Standard orientation:
 ---------------------------------------------------------------------
 Center     Atomic      Atomic             Coordinates (Angstroms)
 Number     Number       Type             X           Y           Z
 ---------------------------------------------------------------------
      1          6           0       -0.658998    0.328982   -0.038124
      2          8           0       -1.798296   -0.097230    0.026600
      3          6           0        0.568809   -0.485001   -0.001083
      4          6           0        1.737776    0.148959    0.008782
      5          1           0        0.475747   -1.500119   -0.034515
      6          1           0        1.847621    1.289846    0.099731
      7          1           0        2.642444   -0.381745   -0.021935
      8          1           0       -0.464966    1.412215   -0.073534
 ---------------------------------------------------------------------

 SCF Done:  E(RB2PLYPD3) =  -191.609758073     A.U. after   13 cycles
 E2(B2PLYPD3) =    -0.2473683688D+00 E(B2PLYPD3) =    -0.19185712644168D+03

 The electronic state is 1-A.
 Alpha  occ. eigenvalues --  -19.72731 -10.71506 -10.65842 -10.63962  -1.18928
 Alpha  occ. eigenvalues --   -0.93412  -0.75424  -0.67682  -0.56910  -0.55938
 Alpha  occ. eigenvalues --   -0.50703  -0.47218  -0.46422  -0.34823  -0.33723
 Alpha virt. eigenvalues --   -0.01742   0.05614   0.07346   0.07937   0.09635
 Alpha virt. eigenvalues --    0.12616   0.14080   0.15264   0.17746   0.19407
 Alpha virt. eigenvalues --    0.20097   0.21494   0.25126   0.26714   0.28732

 Mulliken charges:
               1
     1  C    0.157238
     2  O   -0.353761
     3  C   -0.043575
     4  C   -0.122332
     5  H    0.110744
     6  H    0.082680
     7  H    0.098676
     8  H    0.070330
 Sum of Mulliken charges =   0.00000

 Dipole moment (field-independent basis, Debye):
    X=              3.6111    Y=              0.6469    Z=             -0.0994  Tot=              3.6700
 Quadrupole moment (field-independent basis, Debye-Ang):
   XX=            -27.6114   YY=            -21.6625   ZZ=            -25.1637
   XY=             -0.6836   XZ=              0.2047   YZ=              0.1668

 Normal termination of Gaussian 09 at Wed Aug 26 10:12:21 2020.
