 Gaussian 09, Revision D.01,
 Gaussian 09:  ES64L-G09RevD.01 24-Apr-2013

 --------------------
 #p B2PLYPD3/Def2QZVP
 --------------------

 --------
 acrolein
 --------
 Symbolic Z-matrix:
 Charge =  0 Multiplicity = 1

                         Standard orientation:
 ---------------------------------------------------------------------
 Center     Atomic      Atomic             Coordinates (Angstroms)
 Number     Number       Type             X           Y           Z
 ---------------------------------------------------------------------
      1          6           0        0.675997    0.404523    0.068527
      2          8           0        1.762495   -0.172004   -0.074751
      3          6           0       -0.544030   -0.442198    0.047372
      4          6           0       -1.723337    0.134950   -0.059438
      5          1           0       -0.572095   -1.467654    0.249778
      6          1           0       -1.791073    1.162969   -0.013923
      7          1           0       -2.725786   -0.426125   -0.129165
      8          1           0        0.537221    1.523190    0.152553
 ---------------------------------------------------------------------

 SCF Done:  E(RB2PLYPD3) =  -191.599205596     A.U. after   13 cycles
 E2(B2PLYPD3) =    -0.2487020482D+00 E(B2PLYPD3) =    -0.19184790764451D+03

 The electronic state is 1-A.
 Alpha  occ. eigenvalues --  -19.73038 -10.72795 -10.64726 -10.63731  -1.18194
 Alpha  occ. eigenvalues --   -0.93231  -0.74500  -0.67814  -0.57098  -0.55495
 Alpha  occ. eigenvalues --   -0.50112  -0.47120  -0.45355  -0.34395  -0.34092
 Alpha virt. eigenvalues --   -0.01496   0.05668   0.06541   0.07601   0.09676
 Alpha virt. eigenvalues --    0.12253   0.13952   0.15079   0.18021   0.19737
 Alpha virt. eigenvalues --    0.20214   0.20957   0.25394   0.26211   0.28808

 Mulliken charges:
               1
     1  C    0.151396
     2  O   -0.352339
     3  C   -0.039006
     4  C   -0.124694
     5  H    0.108366
     6  H    0.073422
     7  H    0.088113
     8  H    0.094742
 Sum of Mulliken charges =   0.00000

 Dipole moment (field-independent basis, Debye):
    X=             -3.3609    Y=              1.0436    Z=              0.4196  Tot=              3.5442
 Quadrupole moment (field-independent basis, Debye-Ang):
   XX=            -27.6297   YY=            -21.5542   ZZ=            -25.1935
   XY=              1.4815   XZ=              0.4984   YZ=             -0.1668

 Normal termination of Gaussian 09 at Wed Aug 26 13:52:35 2020.
