 Gaussian 09, Revision D.01,
 Gaussian 09:  ES64L-G09RevD.01 24-Apr-2013

 --------------------
 #p B2PLYPD3/Def2QZVP
 --------------------

 --------
 acrolein
 --------
 Symbolic Z-matrix:
 Charge =  0 Multiplicity = 1

                         Standard orientation:
 ---------------------------------------------------------------------
 Center     Atomic      Atomic             Coordinates (Angstroms)
 Number     Number       Type             X           Y           Z
 ---------------------------------------------------------------------
      1          6           0        0.660072    0.303200   -0.060793
      2          8           0        1.787432   -0.096324    0.077998
      3          6           0       -0.560905   -0.475901   -0.125591
      4          6           0       -1.739125    0.171882    0.024310
      5          1           0       -0.547981   -1.549891    0.050618
      6          1           0       -1.806165    1.281175    0.111227
      7          1           0       -2.608949   -0.420123    0.292020
      8          1           0        0.503390    1.464354   -0.105405
 ---------------------------------------------------------------------

 SCF Done:  E(RB2PLYPD3) =  -191.606478206     A.U. after   13 cycles
 E2(B2PLYPD3) =    -0.2484918190D+00 E(B2PLYPD3) =    -0.19185497002468D+03

 The electronic state is 1-A.
 Alpha  occ. eigenvalues --  -19.72659 -10.71931 -10.66507 -10.64942  -1.19776
 Alpha  occ. eigenvalues --   -0.93236  -0.75214  -0.66038  -0.56411  -0.55981
 Alpha  occ. eigenvalues --   -0.49771  -0.47356  -0.46971  -0.34653  -0.33474
 Alpha virt. eigenvalues --   -0.02180   0.05694   0.06655   0.08128   0.09665
 Alpha virt. eigenvalues --    0.12652   0.13673   0.15236   0.17693   0.19506
 Alpha virt. eigenvalues --    0.19693   0.21457   0.23988   0.26389   0.28274

 Mulliken charges:
               1
     1  C    0.151701
     2  O   -0.340433
     3  C   -0.031841
     4  C   -0.108857
     5  H    0.101165
     6  H    0.087587
     7  H    0.097194
     8  H    0.043484
 Sum of Mulliken charges =   0.00000

 Dipole moment (field-independent basis, Debye):
    X=             -3.6047    Y=              0.5438    Z=              0.1333  Tot=              3.6479
 Quadrupole moment (field-independent basis, Debye-Ang):
   XX=            -27.6227   YY=            -21.8753   ZZ=            -25.2407
   XY=              0.8242   XZ=             -1.3120   YZ=             -0.1785

 Normal termination of Gaussian 09 at Wed Aug 26 12:09:16 2020.
