 Gaussian 09, Revision D.01,
 Gaussian 09:  ES64L-G09RevD.01 24-Apr-2013

 --------------------
 #p B2PLYPD3/Def2QZVP
 --------------------

 --------
 acrolein
 --------
 Symbolic Z-matrix:
 Charge =  0 Multiplicity = 1

                         Standard orientation:
 ---------------------------------------------------------------------
 Center     Atomic      Atomic             Coordinates (Angstroms)
 Number     Number       Type             X           Y           Z
 ---------------------------------------------------------------------
      1          6           0       -0.677030    0.332397    0.041844
      2          8           0       -1.790589   -0.108594   -0.027319
      3          6           0        0.571704   -0.481736    0.025419
      4          6           0        1.749103    0.145766   -0.025958
      5          1           0        0.467972   -1.487542    0.011914
      6          1           0        1.856328    1.320914    0.023727
      7          1           0        2.652651   -0.408642   -0.037626
      8          1           0       -0.514896    1.465458   -0.027300
 ---------------------------------------------------------------------

 SCF Done:  E(RB2PLYPD3) =  -191.605626828     A.U. after   13 cycles
 E2(B2PLYPD3) =    -0.2471786839D+00 E(B2PLYPD3) =    -0.19185280551178D+03

 The electronic state is 1-A.
 Alpha  occ. eigenvalues --  -19.72899 -10.71871 -10.66162 -10.64021  -1.20214
 Alpha  occ. eigenvalues --   -0.92816  -0.74664  -0.66987  -0.56830  -0.55640
 Alpha  occ. eigenvalues --   -0.50841  -0.47058  -0.46888  -0.34792  -0.33524
 Alpha virt. eigenvalues --   -0.01441   0.05596   0.07307   0.07957   0.09616
 Alpha virt. eigenvalues --    0.12330   0.13900   0.15360   0.17834   0.19241
 Alpha virt. eigenvalues --    0.19939   0.21414   0.25120   0.26602   0.28727

 Mulliken charges:
               1
     1  C    0.163549
     2  O   -0.338423
     3  C   -0.055700
     4  C   -0.121080
     5  H    0.111906
     6  H    0.081826
     7  H    0.100401
     8  H    0.057521
 Sum of Mulliken charges =   0.00000

 Dipole moment (field-independent basis, Debye):
    X=              3.4143    Y=              0.6039    Z=              0.0952  Tot=              3.4686
 Quadrupole moment (field-independent basis, Debye-Ang):
   XX=            -27.4532   YY=            -21.7443   ZZ=            -25.2688
   XY=             -0.8215   XZ=             -0.1707   YZ=              0.0276

 Normal termination of Gaussian 09 at Wed Aug 26 10:26:13 2020.
