 Gaussian 09, Revision D.01,
 Gaussian 09:  ES64L-G09RevD.01 24-Apr-2013

 --------------------
 #p B2PLYPD3/Def2QZVP
 --------------------

 --------
 acrolein
 --------
 Symbolic Z-matrix:
 Charge =  0 Multiplicity = 1

                         Standard orientation:
 ---------------------------------------------------------------------
 Center     Atomic      Atomic             Coordinates (Angstroms)
 Number     Number       Type             X           Y           Z
 ---------------------------------------------------------------------
      1          6           0       -0.702655    0.375036    0.043329
      2          8           0       -1.768032   -0.154367   -0.038481
      3          6           0        0.557012   -0.436243    0.013392
      4          6           0        1.766426    0.138640   -0.027036
      5          1           0        0.501326   -1.474087    0.080661
      6          1           0        1.821562    1.168648   -0.112597
      7          1           0        2.650207   -0.439484    0.041928
      8          1           0       -0.553536    1.515260    0.119739
 ---------------------------------------------------------------------

 SCF Done:  E(RB2PLYPD3) =  -191.611128676     A.U. after   13 cycles
 E2(B2PLYPD3) =    -0.2462588060D+00 E(B2PLYPD3) =    -0.19185738748165D+03

 The electronic state is 1-A.
 Alpha  occ. eigenvalues --  -19.73139 -10.72250 -10.64206 -10.63786  -1.20939
 Alpha  occ. eigenvalues --   -0.92469  -0.74907  -0.67132  -0.57129  -0.56322
 Alpha  occ. eigenvalues --   -0.50935  -0.47677  -0.47265  -0.34328  -0.33799
 Alpha virt. eigenvalues --   -0.01289   0.05958   0.07242   0.08061   0.09860
 Alpha virt. eigenvalues --    0.12584   0.13907   0.15496   0.17669   0.19649
 Alpha virt. eigenvalues --    0.20126   0.21774   0.25303   0.26425   0.28752

 Mulliken charges:
               1
     1  C    0.152974
     2  O   -0.328666
     3  C   -0.049352
     4  C   -0.138829
     5  H    0.106682
     6  H    0.083218
     7  H    0.101419
     8  H    0.072555
 Sum of Mulliken charges =   0.00000

 Dipole moment (field-independent basis, Debye):
    X=              3.1731    Y=              0.8329    Z=              0.1846  Tot=              3.2858
 Quadrupole moment (field-independent basis, Debye-Ang):
   XX=            -27.2510   YY=            -21.7466   ZZ=            -25.1663
   XY=             -1.2704   XZ=             -0.1971   YZ=             -0.2185

 Normal termination of Gaussian 09 at Wed Aug 26 08:35:23 2020.
