 Gaussian 09, Revision D.01,
 Gaussian 09:  ES64L-G09RevD.01 24-Apr-2013

 --------------------
 #p B2PLYPD3/Def2QZVP
 --------------------

 --------
 acrolein
 --------
 Symbolic Z-matrix:
 Charge =  0 Multiplicity = 1

                         Standard orientation:
 ---------------------------------------------------------------------
 Center     Atomic      Atomic             Coordinates (Angstroms)
 Number     Number       Type             X           Y           Z
 ---------------------------------------------------------------------
      1          6           0        0.675440    0.332884   -0.012156
      2          8           0        1.793219   -0.106763    0.029106
      3          6           0       -0.561675   -0.472321   -0.057873
      4          6           0       -1.759534    0.145216    0.005258
      5          1           0       -0.501157   -1.518434    0.018361
      6          1           0       -1.856943    1.287331    0.036545
      7          1           0       -2.612890   -0.394598    0.154580
      8          1           0        0.499853    1.445137   -0.053712
 ---------------------------------------------------------------------

 SCF Done:  E(RB2PLYPD3) =  -191.609428627     A.U. after   12 cycles
 E2(B2PLYPD3) =    -0.2472427062D+00 E(B2PLYPD3) =    -0.19185667133283D+03

 The electronic state is 1-A.
 Alpha  occ. eigenvalues --  -19.72817 -10.71713 -10.65705 -10.64427  -1.20021
 Alpha  occ. eigenvalues --   -0.92772  -0.75490  -0.66857  -0.56958  -0.55986
 Alpha  occ. eigenvalues --   -0.50706  -0.47235  -0.46992  -0.34505  -0.33715
 Alpha virt. eigenvalues --   -0.01820   0.05740   0.07232   0.08103   0.09634
 Alpha virt. eigenvalues --    0.12566   0.14077   0.15356   0.17688   0.19531
 Alpha virt. eigenvalues --    0.19833   0.21720   0.24920   0.26438   0.28571

 Mulliken charges:
               1
     1  C    0.157973
     2  O   -0.340510
     3  C   -0.046046
     4  C   -0.123412
     5  H    0.105392
     6  H    0.079771
     7  H    0.103166
     8  H    0.063666
 Sum of Mulliken charges =   0.00000

 Dipole moment (field-independent basis, Debye):
    X=             -3.4881    Y=              0.6437    Z=              0.0954  Tot=              3.5482
 Quadrupole moment (field-independent basis, Debye-Ang):
   XX=            -27.4613   YY=            -21.7441   ZZ=            -25.2230
   XY=              0.8563   XZ=             -0.6219   YZ=             -0.1156

 Normal termination of Gaussian 09 at Wed Aug 26 08:56:38 2020.
