 Gaussian 09, Revision D.01,
 Gaussian 09:  ES64L-G09RevD.01 24-Apr-2013

 --------------------
 #p B2PLYPD3/Def2QZVP
 --------------------

 --------
 acrolein
 --------
 Symbolic Z-matrix:
 Charge =  0 Multiplicity = 1

                         Standard orientation:
 ---------------------------------------------------------------------
 Center     Atomic      Atomic             Coordinates (Angstroms)
 Number     Number       Type             X           Y           Z
 ---------------------------------------------------------------------
      1          6           0        0.658437    0.357853    0.081206
      2          8           0        1.817114   -0.114833   -0.082704
      3          6           0       -0.569466   -0.489274    0.042024
      4          6           0       -1.765763    0.154343   -0.026458
      5          1           0       -0.518166   -1.581732    0.192407
      6          1           0       -1.900110    1.331377   -0.142067
      7          1           0       -2.583012   -0.446415   -0.179647
      8          1           0        0.525136    1.477901    0.210311
 ---------------------------------------------------------------------

 SCF Done:  E(RB2PLYPD3) =  -191.594038027     A.U. after   13 cycles
 E2(B2PLYPD3) =    -0.2514744996D+00 E(B2PLYPD3) =    -0.19184551252638D+03

 The electronic state is 1-A.
 Alpha  occ. eigenvalues --  -19.72867 -10.72831 -10.66417 -10.65804  -1.16481
 Alpha  occ. eigenvalues --   -0.92445  -0.75259  -0.66152  -0.56209  -0.55091
 Alpha  occ. eigenvalues --   -0.49376  -0.47121  -0.44767  -0.34277  -0.33806
 Alpha virt. eigenvalues --   -0.02451   0.05406   0.06389   0.07120   0.09380
 Alpha virt. eigenvalues --    0.12199   0.13778   0.14882   0.17525   0.19132
 Alpha virt. eigenvalues --    0.19809   0.21717   0.24289   0.26322   0.28422

 Mulliken charges:
               1
     1  C    0.158590
     2  O   -0.368631
     3  C   -0.049997
     4  C   -0.122156
     5  H    0.109541
     6  H    0.083085
     7  H    0.102008
     8  H    0.087560
 Sum of Mulliken charges =   0.00000

 Dipole moment (field-independent basis, Debye):
    X=             -3.7116    Y=              0.7630    Z=              0.2671  Tot=              3.7986
 Quadrupole moment (field-independent basis, Debye-Ang):
   XX=            -28.3107   YY=            -21.2017   ZZ=            -25.5216
   XY=              0.9676   XZ=              0.9602   YZ=             -0.2417

 Normal termination of Gaussian 09 at Wed Aug 26 15:01:54 2020.
