 Gaussian 09, Revision D.01,
 Gaussian 09:  ES64L-G09RevD.01 24-Apr-2013

 --------------------
 #p B2PLYPD3/Def2QZVP
 --------------------

 --------
 acrolein
 --------
 Symbolic Z-matrix:
 Charge =  0 Multiplicity = 1

                         Standard orientation:
 ---------------------------------------------------------------------
 Center     Atomic      Atomic             Coordinates (Angstroms)
 Number     Number       Type             X           Y           Z
 ---------------------------------------------------------------------
      1          6           0       -0.669990    0.353888   -0.035010
      2          8           0       -1.791638   -0.126593    0.031993
      3          6           0        0.550044   -0.443137   -0.037736
      4          6           0        1.761134    0.118918    0.022609
      5          1           0        0.427725   -1.481561   -0.042981
      6          1           0        1.901912    1.226015   -0.038088
      7          1           0        2.672565   -0.414335    0.112674
      8          1           0       -0.516223    1.504615    0.013277
 ---------------------------------------------------------------------

 SCF Done:  E(RB2PLYPD3) =  -191.611432722     A.U. after   13 cycles
 E2(B2PLYPD3) =    -0.2481453295D+00 E(B2PLYPD3) =    -0.19185957805179D+03

 The electronic state is 1-A.
 Alpha  occ. eigenvalues --  -19.72943 -10.72204 -10.65851 -10.64277  -1.18946
 Alpha  occ. eigenvalues --   -0.93101  -0.75750  -0.66669  -0.57045  -0.55873
 Alpha  occ. eigenvalues --   -0.50506  -0.46909  -0.46438  -0.34630  -0.33869
 Alpha virt. eigenvalues --   -0.02141   0.05647   0.07231   0.08072   0.09686
 Alpha virt. eigenvalues --    0.12339   0.13983   0.15346   0.17559   0.19628
 Alpha virt. eigenvalues --    0.19999   0.21617   0.25141   0.26456   0.28769

 Mulliken charges:
               1
     1  C    0.161866
     2  O   -0.352279
     3  C   -0.041102
     4  C   -0.122691
     5  H    0.110861
     6  H    0.079315
     7  H    0.102207
     8  H    0.061823
 Sum of Mulliken charges =   0.00000

 Dipole moment (field-independent basis, Debye):
    X=              3.5936    Y=              0.7133    Z=             -0.0745  Tot=              3.6645
 Quadrupole moment (field-independent basis, Debye-Ang):
   XX=            -27.2140   YY=            -21.9067   ZZ=            -25.2464
   XY=             -0.8650   XZ=              0.3498   YZ=             -0.0521

 Normal termination of Gaussian 09 at Wed Aug 26 08:35:10 2020.
