 Gaussian 09, Revision D.01,
 Gaussian 09:  ES64L-G09RevD.01 24-Apr-2013

 --------------------
 #p B2PLYPD3/Def2QZVP
 --------------------

 --------
 acrolein
 --------
 Symbolic Z-matrix:
 Charge =  0 Multiplicity = 1

                         Standard orientation:
 ---------------------------------------------------------------------
 Center     Atomic      Atomic             Coordinates (Angstroms)
 Number     Number       Type             X           Y           Z
 ---------------------------------------------------------------------
      1          6           0        0.650582    0.316771    0.029970
      2          8           0        1.827401   -0.085840   -0.048363
      3          6           0       -0.546128   -0.452819    0.018436
      4          6           0       -1.768600    0.141118   -0.016754
      5          1           0       -0.439499   -1.545674    0.135821
      6          1           0       -1.895219    1.198969   -0.188745
      7          1           0       -2.650412   -0.424246   -0.028979
      8          1           0        0.350799    1.427247    0.278888
 ---------------------------------------------------------------------

 SCF Done:  E(RB2PLYPD3) =  -191.602020765     A.U. after   13 cycles
 E2(B2PLYPD3) =    -0.2506660382D+00 E(B2PLYPD3) =    -0.19185268680312D+03

 The electronic state is 1-A.
 Alpha  occ. eigenvalues --  -19.73194 -10.72433 -10.66284 -10.65238  -1.17488
 Alpha  occ. eigenvalues --   -0.93672  -0.77209  -0.66011  -0.56997  -0.55528
 Alpha  occ. eigenvalues --   -0.50268  -0.47472  -0.45545  -0.34703  -0.33711
 Alpha virt. eigenvalues --   -0.03305   0.05659   0.06661   0.07959   0.09649
 Alpha virt. eigenvalues --    0.12858   0.13731   0.14964   0.17204   0.19164
 Alpha virt. eigenvalues --    0.20395   0.21746   0.24109   0.26921   0.28426

 Mulliken charges:
               1
     1  C    0.158243
     2  O   -0.362580
     3  C   -0.019157
     4  C   -0.122197
     5  H    0.101250
     6  H    0.089645
     7  H    0.105296
     8  H    0.049500
 Sum of Mulliken charges =   0.00000

 Dipole moment (field-independent basis, Debye):
    X=             -3.9536    Y=              0.5266    Z=              0.1624  Tot=              3.9918
 Quadrupole moment (field-independent basis, Debye-Ang):
   XX=            -27.4526   YY=            -22.1195   ZZ=            -25.2691
   XY=              0.3738   XZ=              0.5229   YZ=             -0.3098

 Normal termination of Gaussian 09 at Wed Aug 26 11:33:52 2020.
