 Gaussian 09, Revision D.01,
 Gaussian 09:  ES64L-G09RevD.01 24-Apr-2013

 --------------------
 #p B2PLYPD3/Def2QZVP
 --------------------

 --------
 acrolein
 --------
 Symbolic Z-matrix:
 Charge =  0 Multiplicity = 1

                         Standard orientation:
 ---------------------------------------------------------------------
 Center     Atomic      Atomic             Coordinates (Angstroms)
 Number     Number       Type             X           Y           Z
 ---------------------------------------------------------------------
      1          6           0       -0.670459    0.340878    0.014472
      2          8           0       -1.784772   -0.105241   -0.032071
      3          6           0        0.570267   -0.482134    0.024120
      4          6           0        1.755165    0.148163   -0.039420
      5          1           0        0.416396   -1.550509    0.097182
      6          1           0        1.835614    1.263699   -0.049054
      7          1           0        2.589999   -0.382434    0.028487
      8          1           0       -0.493668    1.469724    0.184922
 ---------------------------------------------------------------------

 SCF Done:  E(RB2PLYPD3) =  -191.606800842     A.U. after   13 cycles
 E2(B2PLYPD3) =    -0.2472358427D+00 E(B2PLYPD3) =    -0.19185403668513D+03

 The electronic state is 1-A.
 Alpha  occ. eigenvalues --  -19.72930 -10.71917 -10.64958 -10.64746  -1.20125
 Alpha  occ. eigenvalues --   -0.92743  -0.75554  -0.66228  -0.57217  -0.55712
 Alpha  occ. eigenvalues --   -0.50899  -0.47696  -0.46755  -0.34595  -0.33523
 Alpha virt. eigenvalues --   -0.01562   0.05848   0.06964   0.08097   0.09731
 Alpha virt. eigenvalues --    0.12637   0.14022   0.15348   0.17223   0.19341
 Alpha virt. eigenvalues --    0.20117   0.22029   0.24995   0.26686   0.28567

 Mulliken charges:
               1
     1  C    0.162501
     2  O   -0.339420
     3  C   -0.050453
     4  C   -0.126891
     5  H    0.106638
     6  H    0.085590
     7  H    0.104826
     8  H    0.057208
 Sum of Mulliken charges =   0.00000

 Dipole moment (field-independent basis, Debye):
    X=              3.4011    Y=              0.6214    Z=              0.2142  Tot=              3.4641
 Quadrupole moment (field-independent basis, Debye-Ang):
   XX=            -27.5071   YY=            -21.6914   ZZ=            -25.2329
   XY=             -0.6617   XZ=             -0.1160   YZ=             -0.1432

 Normal termination of Gaussian 09 at Wed Aug 26 10:11:14 2020.
