 Gaussian 09, Revision D.01,
 Gaussian 09:  ES64L-G09RevD.01 24-Apr-2013

 --------------------
 #p B2PLYPD3/Def2QZVP
 --------------------

 --------
 acrolein
 --------
 Symbolic Z-matrix:
 Charge =  0 Multiplicity = 1

                         Standard orientation:
 ---------------------------------------------------------------------
 Center     Atomic      Atomic             Coordinates (Angstroms)
 Number     Number       Type             X           Y           Z
 ---------------------------------------------------------------------
      1          6           0        0.701036    0.350773   -0.041045
      2          8           0        1.781105   -0.132893    0.062230
      3          6           0       -0.507159   -0.403947   -0.118268
      4          6           0       -1.776034    0.113675    0.015432
      5          1           0       -0.479526   -1.517330    0.076188
      6          1           0       -1.938076    1.186143    0.134062
      7          1           0       -2.768638   -0.477562    0.212547
      8          1           0        0.430340    1.508882   -0.057350
 ---------------------------------------------------------------------

 SCF Done:  E(RB2PLYPD3) =  -191.592899152     A.U. after   13 cycles
 E2(B2PLYPD3) =    -0.2494076566D+00 E(B2PLYPD3) =    -0.19184230680890D+03

 The electronic state is 1-A.
 Alpha  occ. eigenvalues --  -19.73290 -10.72198 -10.67496 -10.65110  -1.21325
 Alpha  occ. eigenvalues --   -0.92204  -0.75714  -0.65426  -0.56775  -0.55595
 Alpha  occ. eigenvalues --   -0.50135  -0.48097  -0.44894  -0.34332  -0.33821
 Alpha virt. eigenvalues --   -0.02743   0.05316   0.06731   0.08529   0.09686
 Alpha virt. eigenvalues --    0.12204   0.13541   0.15180   0.17918   0.19276
 Alpha virt. eigenvalues --    0.19785   0.21287   0.24432   0.26105   0.28171

 Mulliken charges:
               1
     1  C    0.159087
     2  O   -0.325890
     3  C   -0.027504
     4  C   -0.116280
     5  H    0.095773
     6  H    0.073752
     7  H    0.097797
     8  H    0.043266
 Sum of Mulliken charges =   0.00000

 Dipole moment (field-independent basis, Debye):
    X=             -3.5014    Y=              0.6998    Z=              0.1827  Tot=              3.5753
 Quadrupole moment (field-independent basis, Debye-Ang):
   XX=            -26.6234   YY=            -22.5158   ZZ=            -25.4019
   XY=              0.8435   XZ=             -1.1303   YZ=             -0.1753

 Normal termination of Gaussian 09 at Wed Aug 26 13:58:07 2020.
