 Gaussian 09, Revision D.01,
 Gaussian 09:  ES64L-G09RevD.01 24-Apr-2013

 --------------------
 #p B2PLYPD3/Def2QZVP
 --------------------

 --------
 acrolein
 --------
 Symbolic Z-matrix:
 Charge =  0 Multiplicity = 1

                         Standard orientation:
 ---------------------------------------------------------------------
 Center     Atomic      Atomic             Coordinates (Angstroms)
 Number     Number       Type             X           Y           Z
 ---------------------------------------------------------------------
      1          6           0       -0.678316    0.352390   -0.002350
      2          8           0       -1.789033   -0.126224   -0.008906
      3          6           0        0.556200   -0.438979    0.003607
      4          6           0        1.762559    0.137663   -0.002330
      5          1           0        0.417514   -1.536289    0.037095
      6          1           0        1.824928    1.204223   -0.059789
      7          1           0        2.724359   -0.436008    0.005932
      8          1           0       -0.497198    1.471425    0.094449
 ---------------------------------------------------------------------

 SCF Done:  E(RB2PLYPD3) =  -191.613942814     A.U. after   12 cycles
 E2(B2PLYPD3) =    -0.2477900966D+00 E(B2PLYPD3) =    -0.19186173291057D+03

 The electronic state is 1-A.
 Alpha  occ. eigenvalues --  -19.73041 -10.71965 -10.65858 -10.64676  -1.19745
 Alpha  occ. eigenvalues --   -0.92825  -0.75281  -0.66375  -0.56406  -0.56057
 Alpha  occ. eigenvalues --   -0.50579  -0.46959  -0.46429  -0.34675  -0.33888
 Alpha virt. eigenvalues --   -0.01899   0.05696   0.06980   0.08190   0.09772
 Alpha virt. eigenvalues --    0.12448   0.13859   0.15355   0.17306   0.19616
 Alpha virt. eigenvalues --    0.20131   0.21391   0.25331   0.26526   0.28763

 Mulliken charges:
               1
     1  C    0.159666
     2  O   -0.344944
     3  C   -0.036133
     4  C   -0.132022
     5  H    0.102653
     6  H    0.084937
     7  H    0.104205
     8  H    0.061638
 Sum of Mulliken charges =   0.00000

 Dipole moment (field-independent basis, Debye):
    X=              3.4645    Y=              0.7433    Z=              0.0329  Tot=              3.5435
 Quadrupole moment (field-independent basis, Debye-Ang):
   XX=            -27.2983   YY=            -21.9180   ZZ=            -25.3009
   XY=             -0.9130   XZ=             -0.1101   YZ=             -0.0905

 Normal termination of Gaussian 09 at Wed Aug 26 15:54:17 2020.
