 Gaussian 09, Revision D.01,
 Gaussian 09:  ES64L-G09RevD.01 24-Apr-2013

 --------------------
 #p B2PLYPD3/Def2QZVP
 --------------------

 --------
 acrolein
 --------
 Symbolic Z-matrix:
 Charge =  0 Multiplicity = 1

                         Standard orientation:
 ---------------------------------------------------------------------
 Center     Atomic      Atomic             Coordinates (Angstroms)
 Number     Number       Type             X           Y           Z
 ---------------------------------------------------------------------
      1          6           0       -0.653660    0.313182   -0.036473
      2          8           0       -1.826189   -0.093123    0.040922
      3          6           0        0.612533   -0.486892   -0.051306
      4          6           0        1.745758    0.145183    0.045943
      5          1           0        0.467920   -1.547401   -0.126227
      6          1           0        1.909168    1.326838   -0.154035
      7          1           0        2.489223   -0.377213    0.206500
      8          1           0       -0.484583    1.513920   -0.002597
 ---------------------------------------------------------------------

 SCF Done:  E(RB2PLYPD3) =  -191.568455531     A.U. after   14 cycles
 E2(B2PLYPD3) =    -0.2496405955D+00 E(B2PLYPD3) =    -0.19181809612626D+03

 The electronic state is 1-A.
 Alpha  occ. eigenvalues --  -19.73175 -10.73083 -10.64944 -10.64778  -1.17597
 Alpha  occ. eigenvalues --   -0.94420  -0.76326  -0.65377  -0.58303  -0.54502
 Alpha  occ. eigenvalues --   -0.50172  -0.47636  -0.45428  -0.35290  -0.33336
 Alpha virt. eigenvalues --   -0.01923   0.05341   0.06852   0.07542   0.09497
 Alpha virt. eigenvalues --    0.12212   0.13878   0.15098   0.16730   0.19424
 Alpha virt. eigenvalues --    0.20194   0.22292   0.24273   0.26716   0.28113

 Mulliken charges:
               1
     1  C    0.167843
     2  O   -0.356359
     3  C   -0.042176
     4  C   -0.124286
     5  H    0.102916
     6  H    0.094926
     7  H    0.114370
     8  H    0.042767
 Sum of Mulliken charges =   0.00000

 Dipole moment (field-independent basis, Debye):
    X=              3.7454    Y=              0.4759    Z=             -0.1946  Tot=              3.7805
 Quadrupole moment (field-independent basis, Debye-Ang):
   XX=            -27.8915   YY=            -21.7232   ZZ=            -25.1747
   XY=             -0.5512   XZ=              0.3554   YZ=             -0.1414

 Normal termination of Gaussian 09 at Wed Aug 26 11:58:25 2020.
