 Gaussian 09, Revision D.01,
 Gaussian 09:  ES64L-G09RevD.01 24-Apr-2013

 --------------------
 #p B2PLYPD3/Def2QZVP
 --------------------

 --------
 acrolein
 --------
 Symbolic Z-matrix:
 Charge =  0 Multiplicity = 1

                         Standard orientation:
 ---------------------------------------------------------------------
 Center     Atomic      Atomic             Coordinates (Angstroms)
 Number     Number       Type             X           Y           Z
 ---------------------------------------------------------------------
      1          6           0        0.672142    0.358618    0.019925
      2          8           0        1.785622   -0.129682   -0.014701
      3          6           0       -0.567375   -0.440953   -0.001548
      4          6           0       -1.753608    0.136673   -0.014037
      5          1           0       -0.439094   -1.541427    0.054511
      6          1           0       -1.836963    1.209215   -0.008373
      7          1           0       -2.647212   -0.419402    0.012237
      8          1           0        0.531334    1.463041    0.033199
 ---------------------------------------------------------------------

 SCF Done:  E(RB2PLYPD3) =  -191.615842659     A.U. after   12 cycles
 E2(B2PLYPD3) =    -0.2471026898D+00 E(B2PLYPD3) =    -0.19186294534842D+03

 The electronic state is 1-A.
 Alpha  occ. eigenvalues --  -19.72888 -10.71801 -10.64815 -10.64469  -1.19232
 Alpha  occ. eigenvalues --   -0.93214  -0.75565  -0.66665  -0.56752  -0.56520
 Alpha  occ. eigenvalues --   -0.50689  -0.46790  -0.46432  -0.34873  -0.33893
 Alpha virt. eigenvalues --   -0.01630   0.05818   0.07066   0.08154   0.09767
 Alpha virt. eigenvalues --    0.12575   0.14063   0.15330   0.17270   0.19862
 Alpha virt. eigenvalues --    0.19943   0.21869   0.25586   0.26404   0.28796

 Mulliken charges:
               1
     1  C    0.156659
     2  O   -0.349650
     3  C   -0.038189
     4  C   -0.129344
     5  H    0.101700
     6  H    0.082437
     7  H    0.104093
     8  H    0.072294
 Sum of Mulliken charges =   0.00000

 Dipole moment (field-independent basis, Debye):
    X=             -3.4654    Y=              0.8009    Z=              0.1195  Tot=              3.5588
 Quadrupole moment (field-independent basis, Debye-Ang):
   XX=            -27.4603   YY=            -21.7094   ZZ=            -25.1843
   XY=              0.9915   XZ=              0.0170   YZ=             -0.0833

 Normal termination of Gaussian 09 at Wed Aug 26 20:14:44 2020.
