 Gaussian 09, Revision D.01,
 Gaussian 09:  ES64L-G09RevD.01 24-Apr-2013

 --------------------
 #p B2PLYPD3/Def2QZVP
 --------------------

 --------
 acrolein
 --------
 Symbolic Z-matrix:
 Charge =  0 Multiplicity = 1

                         Standard orientation:
 ---------------------------------------------------------------------
 Center     Atomic      Atomic             Coordinates (Angstroms)
 Number     Number       Type             X           Y           Z
 ---------------------------------------------------------------------
      1          6           0        0.631373    0.322937    0.056764
      2          8           0        1.815777   -0.100487   -0.060968
      3          6           0       -0.594740   -0.476113    0.065360
      4          6           0       -1.712037    0.172644   -0.066698
      5          1           0       -0.443813   -1.618287    0.035848
      6          1           0       -1.738086    1.185799   -0.129298
      7          1           0       -2.746561   -0.357536    0.032229
      8          1           0        0.454669    1.477108    0.216409
 ---------------------------------------------------------------------

 SCF Done:  E(RB2PLYPD3) =  -191.592337659     A.U. after   13 cycles
 E2(B2PLYPD3) =    -0.2506924996D+00 E(B2PLYPD3) =    -0.19184303015894D+03

 The electronic state is 1-A.
 Alpha  occ. eigenvalues --  -19.73061 -10.72952 -10.65649 -10.65326  -1.16465
 Alpha  occ. eigenvalues --   -0.94638  -0.75250  -0.66330  -0.56444  -0.55590
 Alpha  occ. eigenvalues --   -0.49513  -0.46341  -0.45230  -0.35431  -0.33784
 Alpha virt. eigenvalues --   -0.02310   0.05584   0.06254   0.07576   0.09703
 Alpha virt. eigenvalues --    0.12388   0.13765   0.15130   0.16551   0.19191
 Alpha virt. eigenvalues --    0.20476   0.21492   0.25115   0.26244   0.29017

 Mulliken charges:
               1
     1  C    0.155008
     2  O   -0.371837
     3  C   -0.022575
     4  C   -0.108284
     5  H    0.105997
     6  H    0.090281
     7  H    0.093124
     8  H    0.058286
 Sum of Mulliken charges =   0.00000

 Dipole moment (field-independent basis, Debye):
    X=             -3.8080    Y=              0.6554    Z=              0.2216  Tot=              3.8704
 Quadrupole moment (field-independent basis, Debye-Ang):
   XX=            -28.0254   YY=            -21.7313   ZZ=            -25.3205
   XY=              0.5738   XZ=              0.3834   YZ=             -0.0947

 Normal termination of Gaussian 09 at Wed Aug 26 11:16:51 2020.
