 Gaussian 09, Revision D.01,
 Gaussian 09:  ES64L-G09RevD.01 24-Apr-2013

 --------------------
 #p B2PLYPD3/Def2QZVP
 --------------------

 --------
 acrolein
 --------
 Symbolic Z-matrix:
 Charge =  0 Multiplicity = 1

                         Standard orientation:
 ---------------------------------------------------------------------
 Center     Atomic      Atomic             Coordinates (Angstroms)
 Number     Number       Type             X           Y           Z
 ---------------------------------------------------------------------
      1          6           0       -0.669463    0.357390   -0.034081
      2          8           0       -1.794780   -0.145214    0.022182
      3          6           0        0.535225   -0.398958   -0.048165
      4          6           0        1.770060    0.122516   -0.025612
      5          1           0        0.412840   -1.483901    0.103733
      6          1           0        1.875089    1.155625    0.056938
      7          1           0        2.818816   -0.490165    0.187094
      8          1           0       -0.563435    1.494462    0.121930
 ---------------------------------------------------------------------

 SCF Done:  E(RB2PLYPD3) =  -191.592517302     A.U. after   13 cycles
 E2(B2PLYPD3) =    -0.2500243065D+00 E(B2PLYPD3) =    -0.19184254160865D+03

 The electronic state is 1-A.
 Alpha  occ. eigenvalues --  -19.72974 -10.72166 -10.67049 -10.64811  -1.18388
 Alpha  occ. eigenvalues --   -0.93358  -0.75902  -0.66413  -0.56962  -0.55197
 Alpha  occ. eigenvalues --   -0.49696  -0.46643  -0.45226  -0.34721  -0.34014
 Alpha virt. eigenvalues --   -0.02933   0.05114   0.06623   0.08285   0.09707
 Alpha virt. eigenvalues --    0.11896   0.13927   0.15248   0.17642   0.19304
 Alpha virt. eigenvalues --    0.19942   0.21168   0.24852   0.26487   0.28734

 Mulliken charges:
               1
     1  C    0.155155
     2  O   -0.357181
     3  C   -0.030855
     4  C   -0.116429
     5  H    0.108271
     6  H    0.085375
     7  H    0.092924
     8  H    0.062740
 Sum of Mulliken charges =   0.00000

 Dipole moment (field-independent basis, Debye):
    X=              3.6320    Y=              0.8372    Z=              0.2464  Tot=              3.7354
 Quadrupole moment (field-independent basis, Debye-Ang):
   XX=            -27.2475   YY=            -22.1417   ZZ=            -25.3150
   XY=             -1.0734   XZ=              0.7041   YZ=             -0.1420

 Normal termination of Gaussian 09 at Wed Aug 26 12:11:30 2020.
