 Gaussian 09, Revision D.01,
 Gaussian 09:  ES64L-G09RevD.01 24-Apr-2013

 --------------------
 #p B2PLYPD3/Def2QZVP
 --------------------

 --------
 acrolein
 --------
 Symbolic Z-matrix:
 Charge =  0 Multiplicity = 1

                         Standard orientation:
 ---------------------------------------------------------------------
 Center     Atomic      Atomic             Coordinates (Angstroms)
 Number     Number       Type             X           Y           Z
 ---------------------------------------------------------------------
      1          6           0       -0.678807    0.346288    0.015074
      2          8           0       -1.782572   -0.129291   -0.016194
      3          6           0        0.554515   -0.431283    0.029377
      4          6           0        1.760767    0.142221   -0.018298
      5          1           0        0.461745   -1.510949   -0.012294
      6          1           0        1.801773    1.193761    0.001937
      7          1           0        2.702092   -0.442045   -0.025013
      8          1           0       -0.523887    1.450208    0.008012
 ---------------------------------------------------------------------

 SCF Done:  E(RB2PLYPD3) =  -191.615527715     A.U. after   12 cycles
 E2(B2PLYPD3) =    -0.2468597702D+00 E(B2PLYPD3) =    -0.19186238748545D+03

 The electronic state is 1-A.
 Alpha  occ. eigenvalues --  -19.72854 -10.71527 -10.65468 -10.64227  -1.20093
 Alpha  occ. eigenvalues --   -0.93077  -0.75532  -0.66946  -0.56806  -0.56322
 Alpha  occ. eigenvalues --   -0.50637  -0.47166  -0.46829  -0.34657  -0.33889
 Alpha virt. eigenvalues --   -0.01819   0.05780   0.07116   0.08438   0.09806
 Alpha virt. eigenvalues --    0.12549   0.13903   0.15365   0.17562   0.19888
 Alpha virt. eigenvalues --    0.19974   0.21458   0.25489   0.26376   0.28895

 Mulliken charges:
               1
     1  C    0.151846
     2  O   -0.342452
     3  C   -0.030639
     4  C   -0.134611
     5  H    0.101410
     6  H    0.085268
     7  H    0.105103
     8  H    0.064076
 Sum of Mulliken charges =   0.00000

 Dipole moment (field-independent basis, Debye):
    X=              3.4496    Y=              0.7510    Z=              0.0222  Tot=              3.5305
 Quadrupole moment (field-independent basis, Debye-Ang):
   XX=            -27.2503   YY=            -21.8951   ZZ=            -25.1936
   XY=             -1.0954   XZ=             -0.1485   YZ=              0.0550

 Normal termination of Gaussian 09 at Wed Aug 26 19:22:02 2020.
