 Gaussian 09, Revision D.01,
 Gaussian 09:  ES64L-G09RevD.01 24-Apr-2013

 --------------------
 #p B2PLYPD3/Def2QZVP
 --------------------

 --------
 acrolein
 --------
 Symbolic Z-matrix:
 Charge =  0 Multiplicity = 1

                         Standard orientation:
 ---------------------------------------------------------------------
 Center     Atomic      Atomic             Coordinates (Angstroms)
 Number     Number       Type             X           Y           Z
 ---------------------------------------------------------------------
      1          6           0        0.637530    0.314642    0.020656
      2          8           0        1.800972   -0.079650   -0.027743
      3          6           0       -0.566747   -0.467315   -0.003731
      4          6           0       -1.748461    0.141625   -0.054233
      5          1           0       -0.412758   -1.567274    0.123905
      6          1           0       -1.921890    1.258810   -0.043529
      7          1           0       -2.499013   -0.372869    0.158215
      8          1           0        0.491951    1.384812    0.207198
 ---------------------------------------------------------------------

 SCF Done:  E(RB2PLYPD3) =  -191.587550639     A.U. after   14 cycles
 E2(B2PLYPD3) =    -0.2480234650D+00 E(B2PLYPD3) =    -0.19183557410385D+03

 The electronic state is 1-A.
 Alpha  occ. eigenvalues --  -19.72546 -10.71084 -10.65011 -10.64682  -1.18167
 Alpha  occ. eigenvalues --   -0.94198  -0.77655  -0.66498  -0.57783  -0.56267
 Alpha  occ. eigenvalues --   -0.50506  -0.47421  -0.45813  -0.34887  -0.33637
 Alpha virt. eigenvalues --   -0.02522   0.05754   0.06773   0.08366   0.09661
 Alpha virt. eigenvalues --    0.12769   0.14391   0.15171   0.17149   0.19086
 Alpha virt. eigenvalues --    0.20095   0.22864   0.24523   0.26926   0.28070

 Mulliken charges:
               1
     1  C    0.151609
     2  O   -0.361007
     3  C   -0.029364
     4  C   -0.120212
     5  H    0.100674
     6  H    0.083192
     7  H    0.109431
     8  H    0.065677
 Sum of Mulliken charges =   0.00000

 Dipole moment (field-independent basis, Debye):
    X=             -3.7436    Y=              0.6069    Z=              0.3654  Tot=              3.8101
 Quadrupole moment (field-independent basis, Debye-Ang):
   XX=            -27.7536   YY=            -21.6567   ZZ=            -25.0210
   XY=              0.3890   XZ=             -0.2185   YZ=             -0.2425

 Normal termination of Gaussian 09 at Wed Aug 26 12:13:56 2020.
