 Gaussian 09, Revision D.01,
 Gaussian 09:  ES64L-G09RevD.01 24-Apr-2013

 --------------------
 #p B2PLYPD3/Def2QZVP
 --------------------

 --------
 acrolein
 --------
 Symbolic Z-matrix:
 Charge =  0 Multiplicity = 1

                         Standard orientation:
 ---------------------------------------------------------------------
 Center     Atomic      Atomic             Coordinates (Angstroms)
 Number     Number       Type             X           Y           Z
 ---------------------------------------------------------------------
      1          6           0       -0.689980    0.365299    0.056494
      2          8           0       -1.749013   -0.145030   -0.068052
      3          6           0        0.541699   -0.403544    0.038042
      4          6           0        1.776741    0.130086   -0.069127
      5          1           0        0.288878   -1.554583    0.170790
      6          1           0        1.756868    1.135851   -0.129638
      7          1           0        2.777740   -0.449621    0.084209
      8          1           0       -0.602137    1.477550    0.266593
 ---------------------------------------------------------------------

 SCF Done:  E(RB2PLYPD3) =  -191.594647929     A.U. after   13 cycles
 E2(B2PLYPD3) =    -0.2473004608D+00 E(B2PLYPD3) =    -0.19184194838947D+03

 The electronic state is 1-A.
 Alpha  occ. eigenvalues --  -19.72919 -10.71427 -10.65653 -10.65216  -1.21586
 Alpha  occ. eigenvalues --   -0.92438  -0.75427  -0.65810  -0.56880  -0.55854
 Alpha  occ. eigenvalues --   -0.51075  -0.47858  -0.45018  -0.34345  -0.33877
 Alpha virt. eigenvalues --   -0.01840   0.05786   0.06653   0.08587   0.09871
 Alpha virt. eigenvalues --    0.12228   0.13857   0.15409   0.16900   0.19191
 Alpha virt. eigenvalues --    0.20055   0.21255   0.25334   0.26969   0.29196

 Mulliken charges:
               1
     1  C    0.156093
     2  O   -0.328806
     3  C   -0.036932
     4  C   -0.138737
     5  H    0.091132
     6  H    0.087760
     7  H    0.110176
     8  H    0.059315
 Sum of Mulliken charges =   0.00000

 Dipole moment (field-independent basis, Debye):
    X=              3.1515    Y=              0.8394    Z=              0.3879  Tot=              3.2844
 Quadrupole moment (field-independent basis, Debye-Ang):
   XX=            -26.8798   YY=            -22.1547   ZZ=            -25.2925
   XY=             -1.0755   XZ=             -0.2369   YZ=             -0.3317

 Normal termination of Gaussian 09 at Wed Aug 26 12:15:36 2020.
