 Gaussian 09, Revision D.01,
 Gaussian 09:  ES64L-G09RevD.01 24-Apr-2013

 --------------------
 #p B2PLYPD3/Def2QZVP
 --------------------

 --------
 acrolein
 --------
 Symbolic Z-matrix:
 Charge =  0 Multiplicity = 1

                         Standard orientation:
 ---------------------------------------------------------------------
 Center     Atomic      Atomic             Coordinates (Angstroms)
 Number     Number       Type             X           Y           Z
 ---------------------------------------------------------------------
      1          6           0        0.688386    0.359448   -0.033253
      2          8           0        1.768066   -0.137340    0.025008
      3          6           0       -0.547545   -0.444120   -0.029154
      4          6           0       -1.746471    0.132087   -0.006889
      5          1           0       -0.485674   -1.438482    0.023560
      6          1           0       -1.830080    1.198228    0.047267
      7          1           0       -2.733977   -0.399919    0.111366
      8          1           0        0.538978    1.454411    0.033524
 ---------------------------------------------------------------------

 SCF Done:  E(RB2PLYPD3) =  -191.608855803     A.U. after   13 cycles
 E2(B2PLYPD3) =    -0.2458400182D+00 E(B2PLYPD3) =    -0.19185469582155D+03

 The electronic state is 1-A.
 Alpha  occ. eigenvalues --  -19.72836 -10.71440 -10.65383 -10.63265  -1.20928
 Alpha  occ. eigenvalues --   -0.92957  -0.74846  -0.68142  -0.57104  -0.56329
 Alpha  occ. eigenvalues --   -0.51006  -0.47545  -0.46771  -0.34632  -0.33844
 Alpha virt. eigenvalues --   -0.01338   0.05746   0.07509   0.08246   0.09712
 Alpha virt. eigenvalues --    0.12477   0.14190   0.15454   0.18167   0.19722
 Alpha virt. eigenvalues --    0.19874   0.21232   0.25504   0.26393   0.28810

 Mulliken charges:
               1
     1  C    0.152078
     2  O   -0.335012
     3  C   -0.048115
     4  C   -0.124912
     5  H    0.113931
     6  H    0.075646
     7  H    0.091538
     8  H    0.074846
 Sum of Mulliken charges =   0.00000

 Dipole moment (field-independent basis, Debye):
    X=             -3.2771    Y=              0.8052    Z=              0.0773  Tot=              3.3755
 Quadrupole moment (field-independent basis, Debye-Ang):
   XX=            -27.1068   YY=            -21.9013   ZZ=            -25.0794
   XY=              1.0664   XZ=             -0.4909   YZ=             -0.0259

 Normal termination of Gaussian 09 at Wed Aug 26 08:57:56 2020.
