 Gaussian 09, Revision D.01,
 Gaussian 09:  ES64L-G09RevD.01 24-Apr-2013

 --------------------
 #p B2PLYPD3/Def2QZVP
 --------------------

 --------
 acrolein
 --------
 Symbolic Z-matrix:
 Charge =  0 Multiplicity = 1

                         Standard orientation:
 ---------------------------------------------------------------------
 Center     Atomic      Atomic             Coordinates (Angstroms)
 Number     Number       Type             X           Y           Z
 ---------------------------------------------------------------------
      1          6           0       -0.657559    0.329556   -0.006932
      2          8           0       -1.796934   -0.106498    0.006331
      3          6           0        0.564097   -0.459598    0.000918
      4          6           0        1.751939    0.154960   -0.007338
      5          1           0        0.470056   -1.531961   -0.022915
      6          1           0        1.796065    1.224786    0.017851
      7          1           0        2.652449   -0.408417    0.042417
      8          1           0       -0.493960    1.418060   -0.007892
 ---------------------------------------------------------------------

 SCF Done:  E(RB2PLYPD3) =  -191.616042975     A.U. after   12 cycles
 E2(B2PLYPD3) =    -0.2474795625D+00 E(B2PLYPD3) =    -0.19186352253733D+03

 The electronic state is 1-A.
 Alpha  occ. eigenvalues --  -19.72675 -10.71411 -10.65452 -10.64432  -1.18819
 Alpha  occ. eigenvalues --   -0.93489  -0.75935  -0.67229  -0.56831  -0.56393
 Alpha  occ. eigenvalues --   -0.50294  -0.47593  -0.46475  -0.34713  -0.33803
 Alpha virt. eigenvalues --   -0.02069   0.05787   0.07112   0.08236   0.09743
 Alpha virt. eigenvalues --    0.12739   0.13984   0.15264   0.17464   0.19944
 Alpha virt. eigenvalues --    0.19972   0.21644   0.25366   0.26456   0.28888

 Mulliken charges:
               1
     1  C    0.151480
     2  O   -0.355319
     3  C   -0.027696
     4  C   -0.130532
     5  H    0.103184
     6  H    0.088434
     7  H    0.104440
     8  H    0.066007
 Sum of Mulliken charges =   0.00000

 Dipole moment (field-independent basis, Debye):
    X=              3.6439    Y=              0.6840    Z=              0.0063  Tot=              3.7075
 Quadrupole moment (field-independent basis, Debye-Ang):
   XX=            -27.5736   YY=            -21.7200   ZZ=            -25.1722
   XY=             -0.8841   XZ=              0.1503   YZ=              0.0330

 Normal termination of Gaussian 09 at Wed Aug 26 11:37:55 2020.
