 Gaussian 09, Revision D.01,
 Gaussian 09:  ES64L-G09RevD.01 24-Apr-2013

 --------------------
 #p B2PLYPD3/Def2QZVP
 --------------------

 --------
 acrolein
 --------
 Symbolic Z-matrix:
 Charge =  0 Multiplicity = 1

                         Standard orientation:
 ---------------------------------------------------------------------
 Center     Atomic      Atomic             Coordinates (Angstroms)
 Number     Number       Type             X           Y           Z
 ---------------------------------------------------------------------
      1          6           0        0.677706    0.368332    0.028958
      2          8           0        1.793283   -0.145203   -0.053018
      3          6           0       -0.552191   -0.409459    0.040876
      4          6           0       -1.768144    0.129226   -0.054757
      5          1           0       -0.353473   -1.547314    0.192833
      6          1           0       -1.762652    1.048828   -0.041594
      7          1           0       -2.796567   -0.442341   -0.035788
      8          1           0        0.422201    1.573858    0.218230
 ---------------------------------------------------------------------

 SCF Done:  E(RB2PLYPD3) =  -191.566356517     A.U. after   13 cycles
 E2(B2PLYPD3) =    -0.2504541235D+00 E(B2PLYPD3) =    -0.19181681064036D+03

 The electronic state is 1-A.
 Alpha  occ. eigenvalues --  -19.73809 -10.73561 -10.65310 -10.64921  -1.18988
 Alpha  occ. eigenvalues --   -0.93814  -0.76317  -0.65670  -0.56325  -0.55947
 Alpha  occ. eigenvalues --   -0.50470  -0.47228  -0.45210  -0.34905  -0.34001
 Alpha virt. eigenvalues --   -0.02496   0.05534   0.06095   0.08181   0.09864
 Alpha virt. eigenvalues --    0.12243   0.13388   0.15101   0.16520   0.19641
 Alpha virt. eigenvalues --    0.20246   0.22132   0.25111   0.26093   0.28822

 Mulliken charges:
               1
     1  C    0.161313
     2  O   -0.345760
     3  C   -0.010971
     4  C   -0.149357
     5  H    0.093373
     6  H    0.100959
     7  H    0.109169
     8  H    0.041274
 Sum of Mulliken charges =   0.00000

 Dipole moment (field-independent basis, Debye):
    X=             -3.5240    Y=              0.7308    Z=              0.2923  Tot=              3.6109
 Quadrupole moment (field-independent basis, Debye-Ang):
   XX=            -27.0140   YY=            -22.3721   ZZ=            -25.3406
   XY=              0.8362   XZ=              0.3003   YZ=             -0.1765

 Normal termination of Gaussian 09 at Wed Aug 26 12:44:13 2020.
