 Gaussian 09, Revision D.01,
 Gaussian 09:  ES64L-G09RevD.01 24-Apr-2013

 --------------------
 #p B2PLYPD3/Def2QZVP
 --------------------

 --------
 acrolein
 --------
 Symbolic Z-matrix:
 Charge =  0 Multiplicity = 1

                         Standard orientation:
 ---------------------------------------------------------------------
 Center     Atomic      Atomic             Coordinates (Angstroms)
 Number     Number       Type             X           Y           Z
 ---------------------------------------------------------------------
      1          6           0       -0.671165    0.336895    0.026135
      2          8           0       -1.785106   -0.109418   -0.020162
      3          6           0        0.565104   -0.462854    0.023970
      4          6           0        1.753016    0.149764   -0.012861
      5          1           0        0.477001   -1.541790   -0.003339
      6          1           0        1.836759    1.238158   -0.004114
      7          1           0        2.611277   -0.384299   -0.047272
      8          1           0       -0.525915    1.420448   -0.007444
 ---------------------------------------------------------------------

 SCF Done:  E(RB2PLYPD3) =  -191.614013216     A.U. after   12 cycles
 E2(B2PLYPD3) =    -0.2462733168D+00 E(B2PLYPD3) =    -0.19186028653314D+03

 The electronic state is 1-A.
 Alpha  occ. eigenvalues --  -19.72644 -10.71215 -10.64808 -10.64432  -1.20000
 Alpha  occ. eigenvalues --   -0.93053  -0.75870  -0.67103  -0.57076  -0.56618
 Alpha  occ. eigenvalues --   -0.50777  -0.47413  -0.46979  -0.34647  -0.33703
 Alpha virt. eigenvalues --   -0.01588   0.05885   0.07247   0.08272   0.09717
 Alpha virt. eigenvalues --    0.12741   0.14271   0.15368   0.17449   0.19828
 Alpha virt. eigenvalues --    0.20015   0.21911   0.25366   0.26493   0.28718

 Mulliken charges:
               1
     1  C    0.154172
     2  O   -0.343390
     3  C   -0.040306
     4  C   -0.131079
     5  H    0.102602
     6  H    0.084614
     7  H    0.104181
     8  H    0.069205
 Sum of Mulliken charges =   0.00000

 Dipole moment (field-independent basis, Debye):
    X=              3.4737    Y=              0.7066    Z=              0.0223  Tot=              3.5449
 Quadrupole moment (field-independent basis, Debye-Ang):
   XX=            -27.3963   YY=            -21.6729   ZZ=            -25.1268
   XY=             -0.8766   XZ=             -0.2245   YZ=              0.0320

 Normal termination of Gaussian 09 at Wed Aug 26 15:10:04 2020.
