 Gaussian 09, Revision D.01,
 Gaussian 09:  ES64L-G09RevD.01 24-Apr-2013

 --------------------
 #p B2PLYPD3/Def2QZVP
 --------------------

 --------
 acrolein
 --------
 Symbolic Z-matrix:
 Charge =  0 Multiplicity = 1

                         Standard orientation:
 ---------------------------------------------------------------------
 Center     Atomic      Atomic             Coordinates (Angstroms)
 Number     Number       Type             X           Y           Z
 ---------------------------------------------------------------------
      1          6           0       -0.679855    0.357566    0.028334
      2          8           0       -1.776790   -0.131203   -0.018923
      3          6           0        0.547953   -0.437888    0.021938
      4          6           0        1.751717    0.144197   -0.017902
      5          1           0        0.462891   -1.517850   -0.000370
      6          1           0        1.806615    1.183117    0.017542
      7          1           0        2.743654   -0.428910   -0.030650
      8          1           0       -0.517732    1.430021   -0.029360
 ---------------------------------------------------------------------

 SCF Done:  E(RB2PLYPD3) =  -191.612477043     A.U. after   12 cycles
 E2(B2PLYPD3) =    -0.2467917568D+00 E(B2PLYPD3) =    -0.19185926879966D+03

 The electronic state is 1-A.
 Alpha  occ. eigenvalues --  -19.72784 -10.71306 -10.65588 -10.64214  -1.20109
 Alpha  occ. eigenvalues --   -0.92898  -0.75288  -0.67476  -0.57077  -0.55892
 Alpha  occ. eigenvalues --   -0.50467  -0.47139  -0.46680  -0.34557  -0.33931
 Alpha virt. eigenvalues --   -0.01684   0.05695   0.07176   0.08211   0.09757
 Alpha virt. eigenvalues --    0.12511   0.14098   0.15384   0.17636   0.19792
 Alpha virt. eigenvalues --    0.20138   0.21265   0.25450   0.26484   0.28885

 Mulliken charges:
               1
     1  C    0.149935
     2  O   -0.343372
     3  C   -0.035326
     4  C   -0.135372
     5  H    0.105486
     6  H    0.084404
     7  H    0.098768
     8  H    0.075476
 Sum of Mulliken charges =   0.00000

 Dipole moment (field-independent basis, Debye):
    X=              3.4024    Y=              0.8241    Z=              0.0529  Tot=              3.5012
 Quadrupole moment (field-independent basis, Debye-Ang):
   XX=            -27.2819   YY=            -21.8051   ZZ=            -25.2003
   XY=             -1.0622   XZ=             -0.1321   YZ=              0.0392

 Normal termination of Gaussian 09 at Wed Aug 26 15:49:41 2020.
