 Gaussian 09, Revision D.01,
 Gaussian 09:  ES64L-G09RevD.01 24-Apr-2013

 --------------------
 #p B2PLYPD3/Def2QZVP
 --------------------

 --------
 acrolein
 --------
 Symbolic Z-matrix:
 Charge =  0 Multiplicity = 1

                         Standard orientation:
 ---------------------------------------------------------------------
 Center     Atomic      Atomic             Coordinates (Angstroms)
 Number     Number       Type             X           Y           Z
 ---------------------------------------------------------------------
      1          6           0       -0.671033    0.337678    0.034679
      2          8           0       -1.783755   -0.112261   -0.022314
      3          6           0        0.572949   -0.462546    0.006768
      4          6           0        1.747843    0.149531   -0.017248
      5          1           0        0.473813   -1.529675    0.026047
      6          1           0        1.836585    1.254620   -0.036101
      7          1           0        2.605503   -0.394229    0.017904
      8          1           0       -0.544406    1.419390    0.025469
 ---------------------------------------------------------------------

 SCF Done:  E(RB2PLYPD3) =  -191.613679078     A.U. after   12 cycles
 E2(B2PLYPD3) =    -0.2460517059D+00 E(B2PLYPD3) =    -0.19185973078427D+03

 The electronic state is 1-A.
 Alpha  occ. eigenvalues --  -19.72640 -10.71184 -10.64771 -10.64194  -1.19961
 Alpha  occ. eigenvalues --   -0.93200  -0.75603  -0.67184  -0.57095  -0.56546
 Alpha  occ. eigenvalues --   -0.50816  -0.47294  -0.46929  -0.34837  -0.33647
 Alpha virt. eigenvalues --   -0.01392   0.05865   0.07278   0.08245   0.09720
 Alpha virt. eigenvalues --    0.12679   0.14227   0.15364   0.17516   0.19696
 Alpha virt. eigenvalues --    0.19975   0.21930   0.25518   0.26438   0.28763

 Mulliken charges:
               1
     1  C    0.155390
     2  O   -0.343762
     3  C   -0.043845
     4  C   -0.129287
     5  H    0.103622
     6  H    0.084376
     7  H    0.103276
     8  H    0.070230
 Sum of Mulliken charges =   0.00000

 Dipole moment (field-independent basis, Debye):
    X=              3.4361    Y=              0.7140    Z=              0.1077  Tot=              3.5112
 Quadrupole moment (field-independent basis, Debye-Ang):
   XX=            -27.4773   YY=            -21.6310   ZZ=            -25.1021
   XY=             -0.9188   XZ=             -0.0982   YZ=             -0.0853

 Normal termination of Gaussian 09 at Wed Aug 26 16:12:32 2020.
