 Gaussian 09, Revision D.01,
 Gaussian 09:  ES64L-G09RevD.01 24-Apr-2013

 --------------------
 #p B2PLYPD3/Def2QZVP
 --------------------

 --------
 acrolein
 --------
 Symbolic Z-matrix:
 Charge =  0 Multiplicity = 1

                         Standard orientation:
 ---------------------------------------------------------------------
 Center     Atomic      Atomic             Coordinates (Angstroms)
 Number     Number       Type             X           Y           Z
 ---------------------------------------------------------------------
      1          6           0        0.662565    0.343513    0.040050
      2          8           0        1.796848   -0.116359   -0.042698
      3          6           0       -0.579950   -0.475593    0.010477
      4          6           0       -1.742608    0.150112   -0.016603
      5          1           0       -0.494190   -1.506332    0.125188
      6          1           0       -1.820278    1.227321   -0.116252
      7          1           0       -2.593070   -0.378662   -0.033726
      8          1           0        0.492710    1.480349    0.162826
 ---------------------------------------------------------------------

 SCF Done:  E(RB2PLYPD3) =  -191.607630407     A.U. after   13 cycles
 E2(B2PLYPD3) =    -0.2476171882D+00 E(B2PLYPD3) =    -0.19185524759501D+03

 The electronic state is 1-A.
 Alpha  occ. eigenvalues --  -19.72987 -10.72401 -10.64362 -10.64102  -1.18581
 Alpha  occ. eigenvalues --   -0.93609  -0.75642  -0.67066  -0.57352  -0.55970
 Alpha  occ. eigenvalues --   -0.50551  -0.47934  -0.46081  -0.34951  -0.33724
 Alpha virt. eigenvalues --   -0.01624   0.05869   0.07085   0.07743   0.09718
 Alpha virt. eigenvalues --    0.12793   0.13982   0.15103   0.17477   0.19601
 Alpha virt. eigenvalues --    0.20228   0.21852   0.24924   0.26708   0.28688

 Mulliken charges:
               1
     1  C    0.154556
     2  O   -0.351500
     3  C   -0.041544
     4  C   -0.122044
     5  H    0.108506
     6  H    0.084085
     7  H    0.099369
     8  H    0.068572
 Sum of Mulliken charges =   0.00000

 Dipole moment (field-independent basis, Debye):
    X=             -3.5533    Y=              0.6891    Z=              0.1836  Tot=              3.6241
 Quadrupole moment (field-independent basis, Debye-Ang):
   XX=            -27.6581   YY=            -21.6471   ZZ=            -25.1178
   XY=              0.8581   XZ=              0.3922   YZ=             -0.2379

 Normal termination of Gaussian 09 at Wed Aug 26 08:52:33 2020.
