 Gaussian 09, Revision D.01,
 Gaussian 09:  ES64L-G09RevD.01 24-Apr-2013

 --------------------
 #p B2PLYPD3/Def2QZVP
 --------------------

 --------
 acrolein
 --------
 Symbolic Z-matrix:
 Charge =  0 Multiplicity = 1

                         Standard orientation:
 ---------------------------------------------------------------------
 Center     Atomic      Atomic             Coordinates (Angstroms)
 Number     Number       Type             X           Y           Z
 ---------------------------------------------------------------------
      1          6           0       -0.697689    0.383317    0.057147
      2          8           0       -1.745791   -0.152398   -0.065000
      3          6           0        0.524850   -0.438208    0.075668
      4          6           0        1.760973    0.126113   -0.073180
      5          1           0        0.442974   -1.453147    0.057949
      6          1           0        1.819441    1.119639   -0.100574
      7          1           0        2.655835   -0.423643    0.038932
      8          1           0       -0.480723    1.549002    0.165882
 ---------------------------------------------------------------------

 SCF Done:  E(RB2PLYPD3) =  -191.598303910     A.U. after   13 cycles
 E2(B2PLYPD3) =    -0.2467743182D+00 E(B2PLYPD3) =    -0.19184507822791D+03

 The electronic state is 1-A.
 Alpha  occ. eigenvalues --  -19.73218 -10.72267 -10.64180 -10.63682  -1.21666
 Alpha  occ. eigenvalues --   -0.92316  -0.75591  -0.67282  -0.56932  -0.56506
 Alpha  occ. eigenvalues --   -0.51013  -0.48236  -0.47739  -0.34126  -0.33507
 Alpha virt. eigenvalues --   -0.01726   0.05946   0.07223   0.08187   0.10008
 Alpha virt. eigenvalues --    0.12713   0.13677   0.15495   0.17709   0.19507
 Alpha virt. eigenvalues --    0.20153   0.21931   0.25179   0.26246   0.28711

 Mulliken charges:
               1
     1  C    0.154957
     2  O   -0.324035
     3  C   -0.048064
     4  C   -0.132139
     5  H    0.113026
     6  H    0.078497
     7  H    0.097198
     8  H    0.060560
 Sum of Mulliken charges =   0.00000

 Dipole moment (field-independent basis, Debye):
    X=              3.1362    Y=              0.7771    Z=              0.2440  Tot=              3.2402
 Quadrupole moment (field-independent basis, Debye-Ang):
   XX=            -26.9822   YY=            -21.8992   ZZ=            -25.1688
   XY=             -1.0250   XZ=             -0.3309   YZ=             -0.1135

 Normal termination of Gaussian 09 at Wed Aug 26 12:28:26 2020.
