 Gaussian 09, Revision D.01,
 Gaussian 09:  ES64L-G09RevD.01 24-Apr-2013

 --------------------
 #p B2PLYPD3/Def2QZVP
 --------------------

 --------
 acrolein
 --------
 Symbolic Z-matrix:
 Charge =  0 Multiplicity = 1

                         Standard orientation:
 ---------------------------------------------------------------------
 Center     Atomic      Atomic             Coordinates (Angstroms)
 Number     Number       Type             X           Y           Z
 ---------------------------------------------------------------------
      1          6           0       -0.669853    0.320022    0.027916
      2          8           0       -1.796995   -0.095850   -0.036680
      3          6           0        0.558351   -0.461652    0.020825
      4          6           0        1.769748    0.147808   -0.041038
      5          1           0        0.423146   -1.566771    0.093392
      6          1           0        1.896404    1.319222   -0.045027
      7          1           0        2.673453   -0.432044    0.033767
      8          1           0       -0.566511    1.409325    0.165087
 ---------------------------------------------------------------------

 SCF Done:  E(RB2PLYPD3) =  -191.607346080     A.U. after   13 cycles
 E2(B2PLYPD3) =    -0.2479539940D+00 E(B2PLYPD3) =    -0.19185530007390D+03

 The electronic state is 1-A.
 Alpha  occ. eigenvalues --  -19.72549 -10.71118 -10.67031 -10.65322  -1.19832
 Alpha  occ. eigenvalues --   -0.92424  -0.75414  -0.66137  -0.56413  -0.55780
 Alpha  occ. eigenvalues --   -0.50468  -0.46924  -0.46206  -0.34485  -0.33559
 Alpha virt. eigenvalues --   -0.02151   0.05528   0.06829   0.08477   0.09570
 Alpha virt. eigenvalues --    0.12223   0.14028   0.15340   0.17441   0.18899
 Alpha virt. eigenvalues --    0.20021   0.21527   0.25027   0.26560   0.28754

 Mulliken charges:
               1
     1  C    0.160123
     2  O   -0.344350
     3  C   -0.044850
     4  C   -0.125166
     5  H    0.101853
     6  H    0.086048
     7  H    0.106297
     8  H    0.060045
 Sum of Mulliken charges =   0.00000

 Dipole moment (field-independent basis, Debye):
    X=              3.5560    Y=              0.6303    Z=              0.2401  Tot=              3.6194
 Quadrupole moment (field-independent basis, Debye-Ang):
   XX=            -27.4185   YY=            -21.7454   ZZ=            -25.3868
   XY=             -0.7426   XZ=             -0.1367   YZ=             -0.1566

 Normal termination of Gaussian 09 at Wed Aug 26 08:47:40 2020.
