 Gaussian 09, Revision D.01,
 Gaussian 09:  ES64L-G09RevD.01 24-Apr-2013

 --------------------
 #p B2PLYPD3/Def2QZVP
 --------------------

 --------
 acrolein
 --------
 Symbolic Z-matrix:
 Charge =  0 Multiplicity = 1

                         Standard orientation:
 ---------------------------------------------------------------------
 Center     Atomic      Atomic             Coordinates (Angstroms)
 Number     Number       Type             X           Y           Z
 ---------------------------------------------------------------------
      1          6           0       -0.679390    0.350130    0.032065
      2          8           0       -1.771759   -0.132055   -0.034023
      3          6           0        0.567250   -0.434388    0.008342
      4          6           0        1.758107    0.146786   -0.028595
      5          1           0        0.405714   -1.522382    0.120269
      6          1           0        1.764354    1.156990   -0.035548
      7          1           0        2.704651   -0.406817    0.000868
      8          1           0       -0.576445    1.453482    0.115722
 ---------------------------------------------------------------------

 SCF Done:  E(RB2PLYPD3) =  -191.611959959     A.U. after   12 cycles
 E2(B2PLYPD3) =    -0.2460809223D+00 E(B2PLYPD3) =    -0.19185804088114D+03

 The electronic state is 1-A.
 Alpha  occ. eigenvalues --  -19.72802 -10.71402 -10.64618 -10.64356  -1.20498
 Alpha  occ. eigenvalues --   -0.93172  -0.75431  -0.66939  -0.57191  -0.56465
 Alpha  occ. eigenvalues --   -0.50930  -0.47540  -0.46559  -0.34790  -0.33746
 Alpha virt. eigenvalues --   -0.01421   0.05929   0.07103   0.08420   0.09856
 Alpha virt. eigenvalues --    0.12566   0.14007   0.15310   0.17348   0.19811
 Alpha virt. eigenvalues --    0.20261   0.21639   0.25493   0.26534   0.29195

 Mulliken charges:
               1
     1  C    0.150580
     2  O   -0.339074
     3  C   -0.032530
     4  C   -0.136812
     5  H    0.099853
     6  H    0.087367
     7  H    0.105764
     8  H    0.064853
 Sum of Mulliken charges =   0.00000

 Dipole moment (field-independent basis, Debye):
    X=              3.3232    Y=              0.7898    Z=              0.2234  Tot=              3.4230
 Quadrupole moment (field-independent basis, Debye-Ang):
   XX=            -27.1832   YY=            -21.9057   ZZ=            -25.1098
   XY=             -1.0643   XZ=             -0.1582   YZ=             -0.1711

 Normal termination of Gaussian 09 at Wed Aug 26 09:27:56 2020.
