 Gaussian 09, Revision D.01,
 Gaussian 09:  ES64L-G09RevD.01 24-Apr-2013

 --------------------
 #p B2PLYPD3/Def2QZVP
 --------------------

 --------
 acrolein
 --------
 Symbolic Z-matrix:
 Charge =  0 Multiplicity = 1

                         Standard orientation:
 ---------------------------------------------------------------------
 Center     Atomic      Atomic             Coordinates (Angstroms)
 Number     Number       Type             X           Y           Z
 ---------------------------------------------------------------------
      1          6           0        0.673005    0.347609   -0.028134
      2          8           0        1.781030   -0.125051    0.018806
      3          6           0       -0.554313   -0.444436   -0.006328
      4          6           0       -1.745496    0.136975    0.004764
      5          1           0       -0.452903   -1.480309   -0.013307
      6          1           0       -1.827637    1.200515    0.059783
      7          1           0       -2.708920   -0.416196    0.004006
      8          1           0        0.502044    1.455510   -0.022741
 ---------------------------------------------------------------------

 SCF Done:  E(RB2PLYPD3) =  -191.615202882     A.U. after   13 cycles
 E2(B2PLYPD3) =    -0.2466647437D+00 E(B2PLYPD3) =    -0.19186186762590D+03

 The electronic state is 1-A.
 Alpha  occ. eigenvalues --  -19.72856 -10.71591 -10.65462 -10.63747  -1.19886
 Alpha  occ. eigenvalues --   -0.93332  -0.75356  -0.67424  -0.56737  -0.56386
 Alpha  occ. eigenvalues --   -0.50723  -0.47092  -0.46952  -0.34818  -0.33841
 Alpha virt. eigenvalues --   -0.01663   0.05731   0.07303   0.08309   0.09759
 Alpha virt. eigenvalues --    0.12555   0.14006   0.15368   0.17727   0.19856
 Alpha virt. eigenvalues --    0.19989   0.21367   0.25630   0.26367   0.28825

 Mulliken charges:
               1
     1  C    0.154211
     2  O   -0.345599
     3  C   -0.034868
     4  C   -0.129021
     5  H    0.108606
     6  H    0.082892
     7  H    0.097974
     8  H    0.065804
 Sum of Mulliken charges =   0.00000

 Dipole moment (field-independent basis, Debye):
    X=             -3.4648    Y=              0.7392    Z=             -0.0397  Tot=              3.5430
 Quadrupole moment (field-independent basis, Debye-Ang):
   XX=            -27.2531   YY=            -21.8858   ZZ=            -25.1317
   XY=              0.9183   XZ=             -0.1812   YZ=              0.0826

 Normal termination of Gaussian 09 at Wed Aug 26 18:50:54 2020.
