 Gaussian 09, Revision D.01,
 Gaussian 09:  ES64L-G09RevD.01 24-Apr-2013

 --------------------
 #p B2PLYPD3/Def2QZVP
 --------------------

 --------
 acrolein
 --------
 Symbolic Z-matrix:
 Charge =  0 Multiplicity = 1

                         Standard orientation:
 ---------------------------------------------------------------------
 Center     Atomic      Atomic             Coordinates (Angstroms)
 Number     Number       Type             X           Y           Z
 ---------------------------------------------------------------------
      1          6           0       -0.701899    0.365913    0.021670
      2          8           0       -1.778774   -0.135133   -0.059815
      3          6           0        0.551736   -0.456981    0.041516
      4          6           0        1.791819    0.134699   -0.060310
      5          1           0        0.375073   -1.530588    0.210720
      6          1           0        1.946576    1.195814   -0.122317
      7          1           0        2.622762   -0.445539    0.037796
      8          1           0       -0.564157    1.599587    0.335066
 ---------------------------------------------------------------------

 SCF Done:  E(RB2PLYPD3) =  -191.593456532     A.U. after   13 cycles
 E2(B2PLYPD3) =    -0.2488040448D+00 E(B2PLYPD3) =    -0.19184226057693D+03

 The electronic state is 1-A.
 Alpha  occ. eigenvalues --  -19.73523 -10.73175 -10.65653 -10.65208  -1.21293
 Alpha  occ. eigenvalues --   -0.91466  -0.75327  -0.64713  -0.56715  -0.55642
 Alpha  occ. eigenvalues --   -0.50853  -0.48197  -0.46725  -0.34044  -0.33255
 Alpha virt. eigenvalues --   -0.01896   0.05701   0.06231   0.08149   0.09609
 Alpha virt. eigenvalues --    0.12355   0.13721   0.15334   0.17068   0.19151
 Alpha virt. eigenvalues --    0.20073   0.22068   0.24486   0.26622   0.28242

 Mulliken charges:
               1
     1  C    0.169820
     2  O   -0.319055
     3  C   -0.062421
     4  C   -0.131015
     5  H    0.108843
     6  H    0.091740
     7  H    0.103730
     8  H    0.038358
 Sum of Mulliken charges =   0.00000

 Dipole moment (field-independent basis, Debye):
    X=              3.2220    Y=              0.5880    Z=              0.3297  Tot=              3.2918
 Quadrupole moment (field-independent basis, Debye-Ang):
   XX=            -27.0426   YY=            -22.0420   ZZ=            -25.4394
   XY=             -0.6331   XZ=             -0.2846   YZ=             -0.3745

 Normal termination of Gaussian 09 at Wed Aug 26 10:48:41 2020.
