 Gaussian 09, Revision D.01,
 Gaussian 09:  ES64L-G09RevD.01 24-Apr-2013

 --------------------
 #p B2PLYPD3/Def2QZVP
 --------------------

 --------
 acrolein
 --------
 Symbolic Z-matrix:
 Charge =  0 Multiplicity = 1

                         Standard orientation:
 ---------------------------------------------------------------------
 Center     Atomic      Atomic             Coordinates (Angstroms)
 Number     Number       Type             X           Y           Z
 ---------------------------------------------------------------------
      1          6           0       -0.664902    0.355341   -0.029525
      2          8           0       -1.780992   -0.133721    0.025778
      3          6           0        0.553128   -0.430169   -0.009186
      4          6           0        1.749485    0.133322    0.007141
      5          1           0        0.470633   -1.512221   -0.047028
      6          1           0        1.803260    1.220773    0.078552
      7          1           0        2.673208   -0.443419    0.018793
      8          1           0       -0.525435    1.453675   -0.067123
 ---------------------------------------------------------------------

 SCF Done:  E(RB2PLYPD3) =  -191.615712226     A.U. after   12 cycles
 E2(B2PLYPD3) =    -0.2474433035D+00 E(B2PLYPD3) =    -0.19186315552983D+03

 The electronic state is 1-A.
 Alpha  occ. eigenvalues --  -19.72771 -10.71610 -10.65477 -10.64081  -1.18998
 Alpha  occ. eigenvalues --   -0.93484  -0.75632  -0.66908  -0.56668  -0.56442
 Alpha  occ. eigenvalues --   -0.50444  -0.46678  -0.46433  -0.34807  -0.34006
 Alpha virt. eigenvalues --   -0.01894   0.05725   0.07023   0.08275   0.09778
 Alpha virt. eigenvalues --    0.12505   0.13998   0.15306   0.17509   0.19625
 Alpha virt. eigenvalues --    0.20018   0.21547   0.25567   0.26372   0.29052

 Mulliken charges:
               1
     1  C    0.151726
     2  O   -0.352704
     3  C   -0.031092
     4  C   -0.128417
     5  H    0.102462
     6  H    0.080162
     7  H    0.104681
     8  H    0.073183
 Sum of Mulliken charges =   0.00000

 Dipole moment (field-independent basis, Debye):
    X=              3.5324    Y=              0.7854    Z=             -0.0743  Tot=              3.6194
 Quadrupole moment (field-independent basis, Debye-Ang):
   XX=            -27.4607   YY=            -21.7581   ZZ=            -25.1798
   XY=             -1.1894   XZ=              0.2626   YZ=              0.1198

 Normal termination of Gaussian 09 at Wed Aug 26 12:42:57 2020.
