 Gaussian 09, Revision D.01,
 Gaussian 09:  ES64L-G09RevD.01 24-Apr-2013

 --------------------
 #p B2PLYPD3/Def2QZVP
 --------------------

 --------
 acrolein
 --------
 Symbolic Z-matrix:
 Charge =  0 Multiplicity = 1

                         Standard orientation:
 ---------------------------------------------------------------------
 Center     Atomic      Atomic             Coordinates (Angstroms)
 Number     Number       Type             X           Y           Z
 ---------------------------------------------------------------------
      1          6           0        0.650023    0.336309    0.054583
      2          8           0        1.823062   -0.105005   -0.047608
      3          6           0       -0.602614   -0.504015    0.041451
      4          6           0       -1.747686    0.148811   -0.068299
      5          1           0       -0.467855   -1.500099    0.029845
      6          1           0       -1.831764    1.287811   -0.085962
      7          1           0       -2.533743   -0.365196    0.117369
      8          1           0        0.450524    1.530897    0.153202
 ---------------------------------------------------------------------

 SCF Done:  E(RB2PLYPD3) =  -191.579271601     A.U. after   13 cycles
 E2(B2PLYPD3) =    -0.2503741759D+00 E(B2PLYPD3) =    -0.19182964577737D+03

 The electronic state is 1-A.
 Alpha  occ. eigenvalues --  -19.73314 -10.73464 -10.64720 -10.64469  -1.16904
 Alpha  occ. eigenvalues --   -0.93959  -0.75881  -0.66914  -0.57701  -0.54634
 Alpha  occ. eigenvalues --   -0.50199  -0.48170  -0.45153  -0.35043  -0.33599
 Alpha virt. eigenvalues --   -0.02275   0.05605   0.06746   0.07506   0.09637
 Alpha virt. eigenvalues --    0.12493   0.13662   0.15275   0.17047   0.18956
 Alpha virt. eigenvalues --    0.19996   0.22221   0.24534   0.26733   0.28330

 Mulliken charges:
               1
     1  C    0.163778
     2  O   -0.363133
     3  C   -0.047269
     4  C   -0.107865
     5  H    0.113916
     6  H    0.081916
     7  H    0.102135
     8  H    0.056522
 Sum of Mulliken charges =   0.00000

 Dipole moment (field-independent basis, Debye):
    X=             -3.6843    Y=              0.5908    Z=              0.2758  Tot=              3.7415
 Quadrupole moment (field-independent basis, Debye-Ang):
   XX=            -28.1647   YY=            -21.5295   ZZ=            -25.2561
   XY=              0.6208   XZ=              0.0454   YZ=             -0.1296

 Normal termination of Gaussian 09 at Wed Aug 26 12:52:56 2020.
