 Gaussian 09, Revision D.01,
 Gaussian 09:  ES64L-G09RevD.01 24-Apr-2013

 --------------------
 #p B2PLYPD3/Def2QZVP
 --------------------

 --------
 acrolein
 --------
 Symbolic Z-matrix:
 Charge =  0 Multiplicity = 1

                         Standard orientation:
 ---------------------------------------------------------------------
 Center     Atomic      Atomic             Coordinates (Angstroms)
 Number     Number       Type             X           Y           Z
 ---------------------------------------------------------------------
      1          6           0        0.669656    0.342366   -0.003223
      2          8           0        1.791038   -0.109435    0.014925
      3          6           0       -0.562485   -0.460917   -0.025044
      4          6           0       -1.751950    0.144387    0.006540
      5          1           0       -0.447191   -1.572432   -0.020898
      6          1           0       -1.876370    1.256072    0.006742
      7          1           0       -2.643240   -0.407072    0.071772
      8          1           0        0.507175    1.443897   -0.046645
 ---------------------------------------------------------------------

 SCF Done:  E(RB2PLYPD3) =  -191.614290932     A.U. after   12 cycles
 E2(B2PLYPD3) =    -0.2473721001D+00 E(B2PLYPD3) =    -0.19186166303245D+03

 The electronic state is 1-A.
 Alpha  occ. eigenvalues --  -19.72770 -10.71593 -10.65593 -10.64899  -1.19557
 Alpha  occ. eigenvalues --   -0.92873  -0.75493  -0.66369  -0.56705  -0.56062
 Alpha  occ. eigenvalues --   -0.50557  -0.46853  -0.46541  -0.34715  -0.33747
 Alpha virt. eigenvalues --   -0.01731   0.05726   0.06990   0.08190   0.09654
 Alpha virt. eigenvalues --    0.12539   0.14131   0.15338   0.17235   0.19664
 Alpha virt. eigenvalues --    0.19962   0.21758   0.25368   0.26426   0.28530

 Mulliken charges:
               1
     1  C    0.159238
     2  O   -0.346770
     3  C   -0.041335
     4  C   -0.127253
     5  H    0.101993
     6  H    0.083636
     7  H    0.103313
     8  H    0.067177
 Sum of Mulliken charges =   0.00000

 Dipole moment (field-independent basis, Debye):
    X=             -3.5212    Y=              0.7076    Z=             -0.0017  Tot=              3.5916
 Quadrupole moment (field-independent basis, Debye-Ang):
   XX=            -27.4559   YY=            -21.6902   ZZ=            -25.2679
   XY=              0.7637   XZ=             -0.2616   YZ=             -0.0318

 Normal termination of Gaussian 09 at Wed Aug 26 16:03:49 2020.
