 Gaussian 09, Revision D.01,
 Gaussian 09:  ES64L-G09RevD.01 24-Apr-2013

 --------------------
 #p B2PLYPD3/Def2QZVP
 --------------------

 --------
 acrolein
 --------
 Symbolic Z-matrix:
 Charge =  0 Multiplicity = 1

                         Standard orientation:
 ---------------------------------------------------------------------
 Center     Atomic      Atomic             Coordinates (Angstroms)
 Number     Number       Type             X           Y           Z
 ---------------------------------------------------------------------
      1          6           0        0.672272    0.345977   -0.002204
      2          8           0        1.804104   -0.126038   -0.014115
      3          6           0       -0.568125   -0.454863    0.039967
      4          6           0       -1.753185    0.159256   -0.038368
      5          1           0       -0.468688   -1.546558    0.076261
      6          1           0       -1.797327    1.095751    0.231803
      7          1           0       -2.725007   -0.399516   -0.152408
      8          1           0        0.452415    1.556409   -0.039105
 ---------------------------------------------------------------------

 SCF Done:  E(RB2PLYPD3) =  -191.591137111     A.U. after   14 cycles
 E2(B2PLYPD3) =    -0.2495565284D+00 E(B2PLYPD3) =    -0.19184069363949D+03

 The electronic state is 1-A.
 Alpha  occ. eigenvalues --  -19.73405 -10.73273 -10.65106 -10.64967  -1.18892
 Alpha  occ. eigenvalues --   -0.93452  -0.75505  -0.66249  -0.56211  -0.56055
 Alpha  occ. eigenvalues --   -0.49984  -0.48013  -0.46234  -0.34510  -0.33737
 Alpha virt. eigenvalues --   -0.02384   0.05738   0.06674   0.07545   0.09819
 Alpha virt. eigenvalues --    0.12403   0.13755   0.15188   0.16498   0.19709
 Alpha virt. eigenvalues --    0.20734   0.22083   0.23959   0.26334   0.28145

 Mulliken charges:
               1
     1  C    0.160268
     2  O   -0.344887
     3  C   -0.029340
     4  C   -0.127927
     5  H    0.103949
     6  H    0.096473
     7  H    0.096132
     8  H    0.045333
 Sum of Mulliken charges =   0.00000

 Dipole moment (field-independent basis, Debye):
    X=             -3.5682    Y=              0.6155    Z=              0.1602  Tot=              3.6244
 Quadrupole moment (field-independent basis, Debye-Ang):
   XX=            -27.4405   YY=            -22.0933   ZZ=            -25.2345
   XY=              0.8696   XZ=              0.0366   YZ=              0.2341

 Normal termination of Gaussian 09 at Wed Aug 26 11:50:05 2020.
