 Gaussian 09, Revision D.01,
 Gaussian 09:  ES64L-G09RevD.01 24-Apr-2013

 --------------------
 #p B2PLYPD3/Def2QZVP
 --------------------

 --------
 acrolein
 --------
 Symbolic Z-matrix:
 Charge =  0 Multiplicity = 1

                         Standard orientation:
 ---------------------------------------------------------------------
 Center     Atomic      Atomic             Coordinates (Angstroms)
 Number     Number       Type             X           Y           Z
 ---------------------------------------------------------------------
      1          6           0       -0.662720    0.328657   -0.026502
      2          8           0       -1.806129   -0.097246    0.019832
      3          6           0        0.569303   -0.461656   -0.030417
      4          6           0        1.757676    0.148033   -0.002982
      5          1           0        0.387407   -1.552100    0.035821
      6          1           0        1.885529    1.287058    0.028059
      7          1           0        2.667071   -0.462511    0.100190
      8          1           0       -0.476528    1.415321    0.036677
 ---------------------------------------------------------------------

 SCF Done:  E(RB2PLYPD3) =  -191.610275678     A.U. after   13 cycles
 E2(B2PLYPD3) =    -0.2484876664D+00 E(B2PLYPD3) =    -0.19185876334451D+03

 The electronic state is 1-A.
 Alpha  occ. eigenvalues --  -19.72833 -10.71498 -10.66727 -10.64971  -1.18818
 Alpha  occ. eigenvalues --   -0.93043  -0.75453  -0.66371  -0.56334  -0.55607
 Alpha  occ. eigenvalues --   -0.50355  -0.46574  -0.46292  -0.34846  -0.33708
 Alpha virt. eigenvalues --   -0.02105   0.05498   0.06919   0.08176   0.09669
 Alpha virt. eigenvalues --    0.12402   0.13706   0.15260   0.17414   0.19214
 Alpha virt. eigenvalues --    0.19952   0.21588   0.25074   0.26860   0.28406

 Mulliken charges:
               1
     1  C    0.165353
     2  O   -0.356873
     3  C   -0.038202
     4  C   -0.126541
     5  H    0.103550
     6  H    0.089972
     7  H    0.102997
     8  H    0.059744
 Sum of Mulliken charges =   0.00000

 Dipole moment (field-independent basis, Debye):
    X=              3.6241    Y=              0.6621    Z=              0.0795  Tot=              3.6849
 Quadrupole moment (field-independent basis, Debye-Ang):
   XX=            -27.6977   YY=            -21.7399   ZZ=            -25.3343
   XY=             -0.5770   XZ=              0.4034   YZ=             -0.0729

 Normal termination of Gaussian 09 at Wed Aug 26 09:05:16 2020.
