 Gaussian 09, Revision D.01,
 Gaussian 09:  ES64L-G09RevD.01 24-Apr-2013

 --------------------
 #p B2PLYPD3/Def2QZVP
 --------------------

 --------
 acrolein
 --------
 Symbolic Z-matrix:
 Charge =  0 Multiplicity = 1

                         Standard orientation:
 ---------------------------------------------------------------------
 Center     Atomic      Atomic             Coordinates (Angstroms)
 Number     Number       Type             X           Y           Z
 ---------------------------------------------------------------------
      1          6           0       -0.667336    0.340010    0.036914
      2          8           0       -1.780415   -0.097428   -0.047771
      3          6           0        0.535232   -0.475082    0.042585
      4          6           0        1.754970    0.123350   -0.055057
      5          1           0        0.413286   -1.525494    0.041709
      6          1           0        1.930991    1.381261   -0.121621
      7          1           0        2.659014   -0.425209    0.090237
      8          1           0       -0.497164    1.419197    0.225185
 ---------------------------------------------------------------------

 SCF Done:  E(RB2PLYPD3) =  -191.594641808     A.U. after   13 cycles
 E2(B2PLYPD3) =    -0.2483416961D+00 E(B2PLYPD3) =    -0.19184298350386D+03

 The electronic state is 1-A.
 Alpha  occ. eigenvalues --  -19.72617 -10.71134 -10.67635 -10.64662  -1.20157
 Alpha  occ. eigenvalues --   -0.92359  -0.75118  -0.66612  -0.56600  -0.55336
 Alpha  occ. eigenvalues --   -0.50791  -0.46915  -0.45592  -0.34290  -0.33714
 Alpha virt. eigenvalues --   -0.02143   0.05080   0.07030   0.08219   0.09516
 Alpha virt. eigenvalues --    0.11928   0.13929   0.15514   0.17682   0.18222
 Alpha virt. eigenvalues --    0.19983   0.21600   0.24973   0.26641   0.28770

 Mulliken charges:
               1
     1  C    0.163844
     2  O   -0.343673
     3  C   -0.056134
     4  C   -0.121756
     5  H    0.112497
     6  H    0.072542
     7  H    0.104448
     8  H    0.068233
 Sum of Mulliken charges =   0.00000

 Dipole moment (field-independent basis, Debye):
    X=              3.4763    Y=              0.6000    Z=              0.2427  Tot=              3.5360
 Quadrupole moment (field-independent basis, Debye-Ang):
   XX=            -27.4382   YY=            -21.7096   ZZ=            -25.3910
   XY=             -0.6986   XZ=             -0.1845   YZ=             -0.1611

 Normal termination of Gaussian 09 at Wed Aug 26 13:50:15 2020.
