 Gaussian 09, Revision D.01,
 Gaussian 09:  ES64L-G09RevD.01 24-Apr-2013

 --------------------
 #p B2PLYPD3/Def2QZVP
 --------------------

 --------
 acrolein
 --------
 Symbolic Z-matrix:
 Charge =  0 Multiplicity = 1

                         Standard orientation:
 ---------------------------------------------------------------------
 Center     Atomic      Atomic             Coordinates (Angstroms)
 Number     Number       Type             X           Y           Z
 ---------------------------------------------------------------------
      1          6           0        0.690623    0.349244   -0.050712
      2          8           0        1.772233   -0.126259    0.070683
      3          6           0       -0.550444   -0.420718   -0.085360
      4          6           0       -1.782563    0.116315    0.054691
      5          1           0       -0.386247   -1.478260   -0.169832
      6          1           0       -1.911452    1.212867   -0.080246
      7          1           0       -2.591983   -0.435407    0.255161
      8          1           0        0.566118    1.441824   -0.082265
 ---------------------------------------------------------------------

 SCF Done:  E(RB2PLYPD3) =  -191.607205466     A.U. after   14 cycles
 E2(B2PLYPD3) =    -0.2462012091D+00 E(B2PLYPD3) =    -0.19185340667537D+03

 The electronic state is 1-A.
 Alpha  occ. eigenvalues --  -19.72755 -10.71070 -10.65233 -10.64348  -1.20978
 Alpha  occ. eigenvalues --   -0.92577  -0.76405  -0.66842  -0.57502  -0.56290
 Alpha  occ. eigenvalues --   -0.51571  -0.48120  -0.46428  -0.34236  -0.33559
 Alpha virt. eigenvalues --   -0.01919   0.05874   0.07404   0.08516   0.09769
 Alpha virt. eigenvalues --    0.12404   0.14058   0.15402   0.17575   0.19607
 Alpha virt. eigenvalues --    0.20008   0.22069   0.24969   0.26561   0.28553

 Mulliken charges:
               1
     1  C    0.161555
     2  O   -0.337089
     3  C   -0.040736
     4  C   -0.139960
     5  H    0.100303
     6  H    0.085123
     7  H    0.109893
     8  H    0.060911
 Sum of Mulliken charges =   0.00000

 Dipole moment (field-independent basis, Debye):
    X=             -3.3525    Y=              0.7341    Z=             -0.2193  Tot=              3.4390
 Quadrupole moment (field-independent basis, Debye-Ang):
   XX=            -27.0515   YY=            -21.9997   ZZ=            -25.0462
   XY=              0.9375   XZ=             -0.7870   YZ=             -0.0930

 Normal termination of Gaussian 09 at Wed Aug 26 10:34:54 2020.
