 Gaussian 09, Revision D.01,
 Gaussian 09:  ES64L-G09RevD.01 24-Apr-2013

 --------------------
 #p B2PLYPD3/Def2QZVP
 --------------------

 --------
 acrolein
 --------
 Symbolic Z-matrix:
 Charge =  0 Multiplicity = 1

                         Standard orientation:
 ---------------------------------------------------------------------
 Center     Atomic      Atomic             Coordinates (Angstroms)
 Number     Number       Type             X           Y           Z
 ---------------------------------------------------------------------
      1          6           0       -0.655696    0.338171   -0.024861
      2          8           0       -1.792295   -0.123777    0.017710
      3          6           0        0.548755   -0.440133    0.006370
      4          6           0        1.746997    0.142228   -0.000100
      5          1           0        0.502942   -1.501990   -0.040233
      6          1           0        1.801582    1.170223    0.101182
      7          1           0        2.678269   -0.415776   -0.022132
      8          1           0       -0.484772    1.496160   -0.068943
 ---------------------------------------------------------------------

 SCF Done:  E(RB2PLYPD3) =  -191.610077822     A.U. after   13 cycles
 E2(B2PLYPD3) =    -0.2482869733D+00 E(B2PLYPD3) =    -0.19185836479546D+03

 The electronic state is 1-A.
 Alpha  occ. eigenvalues --  -19.72873 -10.72212 -10.65260 -10.64147  -1.18544
 Alpha  occ. eigenvalues --   -0.93915  -0.76119  -0.66916  -0.56712  -0.56481
 Alpha  occ. eigenvalues --   -0.50080  -0.47422  -0.46508  -0.34752  -0.33899
 Alpha virt. eigenvalues --   -0.02346   0.05764   0.06915   0.08254   0.09770
 Alpha virt. eigenvalues --    0.12656   0.13945   0.15205   0.17367   0.19825
 Alpha virt. eigenvalues --    0.20372   0.21499   0.25202   0.26305   0.28928

 Mulliken charges:
               1
     1  C    0.150077
     2  O   -0.353963
     3  C   -0.019948
     4  C   -0.124779
     5  H    0.103411
     6  H    0.086714
     7  H    0.101357
     8  H    0.057130
 Sum of Mulliken charges =   0.00000

 Dipole moment (field-independent basis, Debye):
    X=              3.7030    Y=              0.6767    Z=             -0.0582  Tot=              3.7647
 Quadrupole moment (field-independent basis, Debye-Ang):
   XX=            -27.3362   YY=            -21.9160   ZZ=            -25.1636
   XY=             -1.0101   XZ=              0.1525   YZ=              0.1691

 Normal termination of Gaussian 09 at Wed Aug 26 08:54:21 2020.
