 Gaussian 09, Revision D.01,
 Gaussian 09:  ES64L-G09RevD.01 24-Apr-2013

 --------------------
 #p B2PLYPD3/Def2QZVP
 --------------------

 --------
 acrolein
 --------
 Symbolic Z-matrix:
 Charge =  0 Multiplicity = 1

                         Standard orientation:
 ---------------------------------------------------------------------
 Center     Atomic      Atomic             Coordinates (Angstroms)
 Number     Number       Type             X           Y           Z
 ---------------------------------------------------------------------
      1          6           0        0.651981    0.334259    0.018558
      2          8           0        1.802269   -0.098569   -0.030142
      3          6           0       -0.565912   -0.474088    0.013059
      4          6           0       -1.741381    0.138182   -0.006583
      5          1           0       -0.479633   -1.569998    0.055961
      6          1           0       -1.882534    1.330213   -0.139330
      7          1           0       -2.626744   -0.376089   -0.004629
      8          1           0        0.502633    1.414308    0.178937
 ---------------------------------------------------------------------

 SCF Done:  E(RB2PLYPD3) =  -191.602940419     A.U. after   13 cycles
 E2(B2PLYPD3) =    -0.2484965725D+00 E(B2PLYPD3) =    -0.19185143699173D+03

 The electronic state is 1-A.
 Alpha  occ. eigenvalues --  -19.72672 -10.71644 -10.66159 -10.64862  -1.18226
 Alpha  occ. eigenvalues --   -0.93404  -0.75755  -0.66446  -0.57081  -0.55587
 Alpha  occ. eigenvalues --   -0.50370  -0.46076  -0.45948  -0.34925  -0.33812
 Alpha virt. eigenvalues --   -0.01981   0.05426   0.06896   0.07835   0.09536
 Alpha virt. eigenvalues --    0.12381   0.14303   0.15200   0.17295   0.19078
 Alpha virt. eigenvalues --    0.20151   0.21662   0.24858   0.26672   0.28712

 Mulliken charges:
               1
     1  C    0.158299
     2  O   -0.358259
     3  C   -0.045052
     4  C   -0.116979
     5  H    0.105549
     6  H    0.075298
     7  H    0.104271
     8  H    0.076872
 Sum of Mulliken charges =   0.00000

 Dipole moment (field-independent basis, Debye):
    X=             -3.6895    Y=              0.6461    Z=              0.0911  Tot=              3.7468
 Quadrupole moment (field-independent basis, Debye-Ang):
   XX=            -27.6715   YY=            -21.6192   ZZ=            -25.2696
   XY=              0.7942   XZ=              0.3652   YZ=             -0.1735

 Normal termination of Gaussian 09 at Wed Aug 26 09:28:56 2020.
