 Gaussian 09, Revision D.01,
 Gaussian 09:  ES64L-G09RevD.01 24-Apr-2013

 --------------------
 #p B2PLYPD3/Def2QZVP
 --------------------

 --------
 acrolein
 --------
 Symbolic Z-matrix:
 Charge =  0 Multiplicity = 1

                         Standard orientation:
 ---------------------------------------------------------------------
 Center     Atomic      Atomic             Coordinates (Angstroms)
 Number     Number       Type             X           Y           Z
 ---------------------------------------------------------------------
      1          6           0       -0.669442    0.349875   -0.011391
      2          8           0       -1.788409   -0.129587   -0.003713
      3          6           0        0.531824   -0.427747   -0.006227
      4          6           0        1.766115    0.127768    0.002516
      5          1           0        0.402234   -1.464321    0.044300
      6          1           0        1.898294    1.172062   -0.084836
      7          1           0        2.773744   -0.458894    0.037471
      8          1           0       -0.537986    1.488473    0.123381
 ---------------------------------------------------------------------

 SCF Done:  E(RB2PLYPD3) =  -191.606262897     A.U. after   13 cycles
 E2(B2PLYPD3) =    -0.2484605703D+00 E(B2PLYPD3) =    -0.19185472346713D+03

 The electronic state is 1-A.
 Alpha  occ. eigenvalues --  -19.72776 -10.71788 -10.66731 -10.64342  -1.19193
 Alpha  occ. eigenvalues --   -0.93030  -0.75820  -0.66943  -0.56873  -0.55760
 Alpha  occ. eigenvalues --   -0.50068  -0.46886  -0.46652  -0.34446  -0.33820
 Alpha virt. eigenvalues --   -0.02530   0.05476   0.07131   0.08274   0.09712
 Alpha virt. eigenvalues --    0.12173   0.13930   0.15330   0.17745   0.19535
 Alpha virt. eigenvalues --    0.20188   0.21095   0.25056   0.26472   0.28777

 Mulliken charges:
               1
     1  C    0.155929
     2  O   -0.352624
     3  C   -0.036166
     4  C   -0.126671
     5  H    0.113604
     6  H    0.089662
     7  H    0.095968
     8  H    0.060298
 Sum of Mulliken charges =   0.00000

 Dipole moment (field-independent basis, Debye):
    X=              3.6260    Y=              0.7447    Z=              0.0330  Tot=              3.7019
 Quadrupole moment (field-independent basis, Debye-Ang):
   XX=            -27.0559   YY=            -22.0317   ZZ=            -25.2841
   XY=             -0.8533   XZ=             -0.0594   YZ=             -0.1350

 Normal termination of Gaussian 09 at Wed Aug 26 09:19:00 2020.
