 Gaussian 09, Revision D.01,
 Gaussian 09:  ES64L-G09RevD.01 24-Apr-2013

 --------------------
 #p B2PLYPD3/Def2QZVP
 --------------------

 --------
 acrolein
 --------
 Symbolic Z-matrix:
 Charge =  0 Multiplicity = 1

                         Standard orientation:
 ---------------------------------------------------------------------
 Center     Atomic      Atomic             Coordinates (Angstroms)
 Number     Number       Type             X           Y           Z
 ---------------------------------------------------------------------
      1          6           0       -0.673543    0.291659    0.063068
      2          8           0       -1.816505   -0.079185   -0.060221
      3          6           0        0.585443   -0.470178    0.006381
      4          6           0        1.771262    0.146939   -0.055607
      5          1           0        0.433516   -1.567887    0.213300
      6          1           0        1.906336    1.295255   -0.041109
      7          1           0        2.577542   -0.372631    0.014338
      8          1           0       -0.484322    1.468227    0.212182
 ---------------------------------------------------------------------

 SCF Done:  E(RB2PLYPD3) =  -191.590627141     A.U. after   13 cycles
 E2(B2PLYPD3) =    -0.2484357811D+00 E(B2PLYPD3) =    -0.19183906292196D+03

 The electronic state is 1-A.
 Alpha  occ. eigenvalues --  -19.73297 -10.72464 -10.65569 -10.65406  -1.19856
 Alpha  occ. eigenvalues --   -0.93241  -0.76592  -0.64839  -0.57834  -0.55255
 Alpha  occ. eigenvalues --   -0.51080  -0.47544  -0.46043  -0.35068  -0.33279
 Alpha virt. eigenvalues --   -0.02195   0.05746   0.06629   0.08359   0.09530
 Alpha virt. eigenvalues --    0.12513   0.13940   0.14944   0.17167   0.19351
 Alpha virt. eigenvalues --    0.19991   0.22239   0.24574   0.26605   0.28535

 Mulliken charges:
               1
     1  C    0.162045
     2  O   -0.333057
     3  C   -0.028884
     4  C   -0.121178
     5  H    0.091232
     6  H    0.087374
     7  H    0.111317
     8  H    0.031151
 Sum of Mulliken charges =   0.00000

 Dipole moment (field-independent basis, Debye):
    X=              3.5865    Y=              0.4369    Z=              0.4159  Tot=              3.6368
 Quadrupole moment (field-independent basis, Debye-Ang):
   XX=            -27.2747   YY=            -22.1370   ZZ=            -25.2685
   XY=             -0.3432   XZ=             -0.1892   YZ=             -0.3520

 Normal termination of Gaussian 09 at Wed Aug 26 11:41:21 2020.
