 Gaussian 09, Revision D.01,
 Gaussian 09:  ES64L-G09RevD.01 24-Apr-2013

 --------------------
 #p B2PLYPD3/Def2QZVP
 --------------------

 --------
 acrolein
 --------
 Symbolic Z-matrix:
 Charge =  0 Multiplicity = 1

                         Standard orientation:
 ---------------------------------------------------------------------
 Center     Atomic      Atomic             Coordinates (Angstroms)
 Number     Number       Type             X           Y           Z
 ---------------------------------------------------------------------
      1          6           0        0.665630    0.337558    0.005583
      2          8           0        1.799610   -0.112914   -0.016332
      3          6           0       -0.570910   -0.446624    0.029498
      4          6           0       -1.754608    0.142410   -0.023303
      5          1           0       -0.426724   -1.532722    0.036663
      6          1           0       -1.862515    1.226988    0.043299
      7          1           0       -2.645095   -0.438216   -0.055623
      8          1           0        0.496785    1.447190    0.035648
 ---------------------------------------------------------------------

 SCF Done:  E(RB2PLYPD3) =  -191.615266916     A.U. after   12 cycles
 E2(B2PLYPD3) =    -0.2476137848D+00 E(B2PLYPD3) =    -0.19186288070066D+03

 The electronic state is 1-A.
 Alpha  occ. eigenvalues --  -19.72906 -10.71776 -10.65448 -10.64531  -1.18928
 Alpha  occ. eigenvalues --   -0.93434  -0.75805  -0.66547  -0.56737  -0.56232
 Alpha  occ. eigenvalues --   -0.50546  -0.46998  -0.46410  -0.34957  -0.33782
 Alpha virt. eigenvalues --   -0.01933   0.05739   0.07043   0.08260   0.09743
 Alpha virt. eigenvalues --    0.12588   0.13881   0.15285   0.17301   0.19780
 Alpha virt. eigenvalues --    0.19965   0.21785   0.25329   0.26516   0.28482

 Mulliken charges:
               1
     1  C    0.160640
     2  O   -0.353651
     3  C   -0.033726
     4  C   -0.128227
     5  H    0.101726
     6  H    0.088219
     7  H    0.103866
     8  H    0.061153
 Sum of Mulliken charges =   0.00000

 Dipole moment (field-independent basis, Debye):
    X=             -3.5939    Y=              0.6966    Z=              0.0746  Tot=              3.6615
 Quadrupole moment (field-independent basis, Debye-Ang):
   XX=            -27.5132   YY=            -21.8032   ZZ=            -25.2012
   XY=              0.7797   XZ=              0.1329   YZ=              0.0664

 Normal termination of Gaussian 09 at Wed Aug 26 15:16:28 2020.
