 Gaussian 09, Revision D.01,
 Gaussian 09:  ES64L-G09RevD.01 24-Apr-2013

 --------------------
 #p B2PLYPD3/Def2QZVP
 --------------------

 --------
 acrolein
 --------
 Symbolic Z-matrix:
 Charge =  0 Multiplicity = 1

                         Standard orientation:
 ---------------------------------------------------------------------
 Center     Atomic      Atomic             Coordinates (Angstroms)
 Number     Number       Type             X           Y           Z
 ---------------------------------------------------------------------
      1          6           0        0.659748    0.338422    0.022467
      2          8           0        1.796639   -0.109550   -0.021469
      3          6           0       -0.574498   -0.456642    0.051465
      4          6           0       -1.732634    0.157263   -0.029892
      5          1           0       -0.439658   -1.578819   -0.059856
      6          1           0       -1.821649    1.190022    0.012311
      7          1           0       -2.698530   -0.405051   -0.032674
      8          1           0        0.471027    1.435984   -0.012263
 ---------------------------------------------------------------------

 SCF Done:  E(RB2PLYPD3) =  -191.610387271     A.U. after   12 cycles
 E2(B2PLYPD3) =    -0.2478150880D+00 E(B2PLYPD3) =    -0.19185820235924D+03

 The electronic state is 1-A.
 Alpha  occ. eigenvalues --  -19.72902 -10.71815 -10.65256 -10.64811  -1.18770
 Alpha  occ. eigenvalues --   -0.93707  -0.75481  -0.66711  -0.56865  -0.55993
 Alpha  occ. eigenvalues --   -0.50261  -0.46684  -0.46217  -0.35192  -0.33794
 Alpha virt. eigenvalues --   -0.01757   0.05731   0.06814   0.07986   0.09754
 Alpha virt. eigenvalues --    0.12669   0.13865   0.15153   0.17160   0.19872
 Alpha virt. eigenvalues --    0.20216   0.21632   0.25070   0.26696   0.28555

 Mulliken charges:
               1
     1  C    0.154189
     2  O   -0.354128
     3  C   -0.028913
     4  C   -0.123337
     5  H    0.102114
     6  H    0.088260
     7  H    0.096381
     8  H    0.065434
 Sum of Mulliken charges =   0.00000

 Dipole moment (field-independent basis, Debye):
    X=             -3.5915    Y=              0.7430    Z=             -0.0004  Tot=              3.6676
 Quadrupole moment (field-independent basis, Debye-Ang):
   XX=            -27.5835   YY=            -21.7855   ZZ=            -25.1974
   XY=              0.6810   XZ=              0.1880   YZ=              0.1462

 Normal termination of Gaussian 09 at Wed Aug 26 08:32:29 2020.
