 Gaussian 09, Revision D.01,
 Gaussian 09:  ES64L-G09RevD.01 24-Apr-2013

 --------------------
 #p B2PLYPD3/Def2QZVP
 --------------------

 --------
 acrolein
 --------
 Symbolic Z-matrix:
 Charge =  0 Multiplicity = 1

                         Standard orientation:
 ---------------------------------------------------------------------
 Center     Atomic      Atomic             Coordinates (Angstroms)
 Number     Number       Type             X           Y           Z
 ---------------------------------------------------------------------
      1          6           0        0.683240    0.352461   -0.033667
      2          8           0        1.771929   -0.132457    0.029438
      3          6           0       -0.543202   -0.415144   -0.010155
      4          6           0       -1.770669    0.129381    0.001349
      5          1           0       -0.386499   -1.495245   -0.048724
      6          1           0       -1.799158    1.159789    0.103277
      7          1           0       -2.723049   -0.447066    0.034830
      8          1           0        0.517062    1.441992   -0.070052
 ---------------------------------------------------------------------

 SCF Done:  E(RB2PLYPD3) =  -191.612468151     A.U. after   12 cycles
 E2(B2PLYPD3) =    -0.2465599065D+00 E(B2PLYPD3) =    -0.19185902805722D+03

 The electronic state is 1-A.
 Alpha  occ. eigenvalues --  -19.72875 -10.71176 -10.65472 -10.64179  -1.20704
 Alpha  occ. eigenvalues --   -0.92971  -0.75963  -0.67018  -0.56868  -0.56428
 Alpha  occ. eigenvalues --   -0.51059  -0.47532  -0.46479  -0.34502  -0.33949
 Alpha virt. eigenvalues --   -0.01948   0.05788   0.07272   0.08598   0.09878
 Alpha virt. eigenvalues --    0.12555   0.13897   0.15368   0.17536   0.19660
 Alpha virt. eigenvalues --    0.20134   0.21555   0.25472   0.26532   0.28882

 Mulliken charges:
               1
     1  C    0.156269
     2  O   -0.340533
     3  C   -0.028832
     4  C   -0.138673
     5  H    0.098881
     6  H    0.084047
     7  H    0.107225
     8  H    0.061616
 Sum of Mulliken charges =   0.00000

 Dipole moment (field-independent basis, Debye):
    X=             -3.3814    Y=              0.7735    Z=             -0.0478  Tot=              3.4691
 Quadrupole moment (field-independent basis, Debye-Ang):
   XX=            -27.0197   YY=            -22.0547   ZZ=            -25.1433
   XY=              1.0435   XZ=             -0.3666   YZ=              0.1483

 Normal termination of Gaussian 09 at Wed Aug 26 10:02:42 2020.
