 Gaussian 09, Revision D.01,
 Gaussian 09:  ES64L-G09RevD.01 24-Apr-2013

 --------------------
 #p B2PLYPD3/Def2QZVP
 --------------------

 --------
 acrolein
 --------
 Symbolic Z-matrix:
 Charge =  0 Multiplicity = 1

                         Standard orientation:
 ---------------------------------------------------------------------
 Center     Atomic      Atomic             Coordinates (Angstroms)
 Number     Number       Type             X           Y           Z
 ---------------------------------------------------------------------
      1          6           0       -0.659328    0.332068   -0.014076
      2          8           0       -1.797734   -0.102857    0.015908
      3          6           0        0.565154   -0.453710   -0.014167
      4          6           0        1.749020    0.148788    0.005985
      5          1           0        0.437217   -1.575809   -0.036582
      6          1           0        1.857482    1.229180   -0.006031
      7          1           0        2.645513   -0.412425    0.066826
      8          1           0       -0.487414    1.419036   -0.017932
 ---------------------------------------------------------------------

 SCF Done:  E(RB2PLYPD3) =  -191.614485087     A.U. after   12 cycles
 E2(B2PLYPD3) =    -0.2475720829D+00 E(B2PLYPD3) =    -0.19186205717003D+03

 The electronic state is 1-A.
 Alpha  occ. eigenvalues --  -19.72730 -10.71411 -10.65483 -10.64886  -1.18899
 Alpha  occ. eigenvalues --   -0.93434  -0.76031  -0.66552  -0.56773  -0.56337
 Alpha  occ. eigenvalues --   -0.50410  -0.46831  -0.46430  -0.34872  -0.33794
 Alpha virt. eigenvalues --   -0.01989   0.05741   0.06927   0.08321   0.09695
 Alpha virt. eigenvalues --    0.12665   0.14081   0.15268   0.17163   0.19836
 Alpha virt. eigenvalues --    0.19988   0.21804   0.25427   0.26535   0.28551

 Mulliken charges:
               1
     1  C    0.156932
     2  O   -0.354718
     3  C   -0.028865
     4  C   -0.128680
     5  H    0.098509
     6  H    0.087790
     7  H    0.104165
     8  H    0.064866
 Sum of Mulliken charges =   0.00000

 Dipole moment (field-independent basis, Debye):
    X=              3.6432    Y=              0.7001    Z=             -0.0378  Tot=              3.7100
 Quadrupole moment (field-independent basis, Debye-Ang):
   XX=            -27.5114   YY=            -21.7415   ZZ=            -25.2045
   XY=             -0.6957   XZ=              0.2141   YZ=             -0.0013

 Normal termination of Gaussian 09 at Wed Aug 26 19:36:07 2020.
