 Gaussian 09, Revision D.01,
 Gaussian 09:  ES64L-G09RevD.01 24-Apr-2013

 --------------------
 #p B2PLYPD3/Def2QZVP
 --------------------

 --------
 acrolein
 --------
 Symbolic Z-matrix:
 Charge =  0 Multiplicity = 1

                         Standard orientation:
 ---------------------------------------------------------------------
 Center     Atomic      Atomic             Coordinates (Angstroms)
 Number     Number       Type             X           Y           Z
 ---------------------------------------------------------------------
      1          6           0        0.701807    0.355959   -0.038363
      2          8           0        1.778363   -0.145405    0.020880
      3          6           0       -0.528158   -0.429976   -0.054580
      4          6           0       -1.748746    0.122398    0.041161
      5          1           0       -0.541165   -1.380904    0.097622
      6          1           0       -1.794105    1.172495   -0.092184
      7          1           0       -2.879250   -0.414141    0.014989
      8          1           0        0.438202    1.495500    0.123226
 ---------------------------------------------------------------------

 SCF Done:  E(RB2PLYPD3) =  -191.575634969     A.U. after   13 cycles
 E2(B2PLYPD3) =    -0.2481542815D+00 E(B2PLYPD3) =    -0.19182378925091D+03

 The electronic state is 1-A.
 Alpha  occ. eigenvalues --  -19.73483 -10.72505 -10.66664 -10.62980  -1.21412
 Alpha  occ. eigenvalues --   -0.93205  -0.74438  -0.68095  -0.56637  -0.55892
 Alpha  occ. eigenvalues --   -0.50267  -0.47931  -0.45721  -0.34907  -0.33799
 Alpha virt. eigenvalues --   -0.01914   0.05233   0.07167   0.07944   0.09638
 Alpha virt. eigenvalues --    0.12094   0.13772   0.15084   0.18488   0.19209
 Alpha virt. eigenvalues --    0.20186   0.20686   0.24168   0.26520   0.28414

 Mulliken charges:
               1
     1  C    0.154775
     2  O   -0.323524
     3  C   -0.038858
     4  C   -0.120358
     5  H    0.112069
     6  H    0.070252
     7  H    0.090584
     8  H    0.055060
 Sum of Mulliken charges =   0.00000

 Dipole moment (field-independent basis, Debye):
    X=             -3.2957    Y=              0.7279    Z=             -0.0257  Tot=              3.3753
 Quadrupole moment (field-independent basis, Debye-Ang):
   XX=            -26.7260   YY=            -22.4584   ZZ=            -25.2119
   XY=              1.0916   XZ=             -0.0704   YZ=             -0.2249

 Normal termination of Gaussian 09 at Wed Aug 26 14:16:15 2020.
