 Gaussian 09, Revision D.01,
 Gaussian 09:  ES64L-G09RevD.01 24-Apr-2013

 --------------------
 #p B2PLYPD3/Def2QZVP
 --------------------

 --------
 acrolein
 --------
 Symbolic Z-matrix:
 Charge =  0 Multiplicity = 1

                         Standard orientation:
 ---------------------------------------------------------------------
 Center     Atomic      Atomic             Coordinates (Angstroms)
 Number     Number       Type             X           Y           Z
 ---------------------------------------------------------------------
      1          6           0       -0.656426    0.345661   -0.045793
      2          8           0       -1.802310   -0.104710    0.028859
      3          6           0        0.579413   -0.488773    0.005764
      4          6           0        1.735444    0.157041   -0.005350
      5          1           0        0.462903   -1.560190   -0.031828
      6          1           0        1.843064    1.271293    0.146174
      7          1           0        2.631046   -0.392211   -0.005638
      8          1           0       -0.469123    1.435219   -0.067311
 ---------------------------------------------------------------------

 SCF Done:  E(RB2PLYPD3) =  -191.610170589     A.U. after   13 cycles
 E2(B2PLYPD3) =    -0.2484155389D+00 E(B2PLYPD3) =    -0.19185858612800D+03

 The electronic state is 1-A.
 Alpha  occ. eigenvalues --  -19.72837 -10.71972 -10.65479 -10.64682  -1.18066
 Alpha  occ. eigenvalues --   -0.93244  -0.75147  -0.67029  -0.56547  -0.55773
 Alpha  occ. eigenvalues --   -0.50374  -0.46992  -0.45900  -0.34842  -0.33750
 Alpha virt. eigenvalues --   -0.01741   0.05627   0.07090   0.07468   0.09663
 Alpha virt. eigenvalues --    0.12649   0.14039   0.15161   0.17310   0.19612
 Alpha virt. eigenvalues --    0.20107   0.21656   0.24779   0.26673   0.28374

 Mulliken charges:
               1
     1  C    0.159993
     2  O   -0.359418
     3  C   -0.046649
     4  C   -0.121966
     5  H    0.109222
     6  H    0.085081
     7  H    0.096937
     8  H    0.076800
 Sum of Mulliken charges =   0.00000

 Dipole moment (field-independent basis, Debye):
    X=              3.6017    Y=              0.7131    Z=             -0.0538  Tot=              3.6720
 Quadrupole moment (field-independent basis, Debye-Ang):
   XX=            -27.9285   YY=            -21.4732   ZZ=            -25.2535
   XY=             -0.7181   XZ=              0.3347   YZ=              0.2156

 Normal termination of Gaussian 09 at Wed Aug 26 09:21:03 2020.
