 Gaussian 09, Revision D.01,
 Gaussian 09:  ES64L-G09RevD.01 24-Apr-2013

 --------------------
 #p B2PLYPD3/Def2QZVP
 --------------------

 --------
 acrolein
 --------
 Symbolic Z-matrix:
 Charge =  0 Multiplicity = 1

                         Standard orientation:
 ---------------------------------------------------------------------
 Center     Atomic      Atomic             Coordinates (Angstroms)
 Number     Number       Type             X           Y           Z
 ---------------------------------------------------------------------
      1          6           0        0.652932    0.341130    0.034124
      2          8           0        1.796544   -0.106328   -0.024140
      3          6           0       -0.558266   -0.454919    0.015659
      4          6           0       -1.739894    0.130487   -0.030042
      5          1           0       -0.425932   -1.517847    0.002742
      6          1           0       -1.877313    1.271760   -0.060979
      7          1           0       -2.686260   -0.404547    0.071234
      8          1           0        0.488527    1.401071    0.061676
 ---------------------------------------------------------------------

 SCF Done:  E(RB2PLYPD3) =  -191.610944070     A.U. after   13 cycles
 E2(B2PLYPD3) =    -0.2479200906D+00 E(B2PLYPD3) =    -0.19185886416046D+03

 The electronic state is 1-A.
 Alpha  occ. eigenvalues --  -19.72670 -10.71214 -10.66318 -10.64243  -1.18291
 Alpha  occ. eigenvalues --   -0.93632  -0.75765  -0.67352  -0.56839  -0.55948
 Alpha  occ. eigenvalues --   -0.50489  -0.46408  -0.46003  -0.34964  -0.33897
 Alpha virt. eigenvalues --   -0.02093   0.05497   0.07182   0.08170   0.09641
 Alpha virt. eigenvalues --    0.12415   0.14083   0.15331   0.17585   0.19232
 Alpha virt. eigenvalues --    0.19963   0.21587   0.25481   0.26645   0.28809

 Mulliken charges:
               1
     1  C    0.157109
     2  O   -0.362959
     3  C   -0.035877
     4  C   -0.118760
     5  H    0.108771
     6  H    0.076388
     7  H    0.099491
     8  H    0.075838
 Sum of Mulliken charges =   0.00000

 Dipole moment (field-independent basis, Debye):
    X=             -3.6779    Y=              0.7330    Z=              0.1296  Tot=              3.7525
 Quadrupole moment (field-independent basis, Debye-Ang):
   XX=            -27.5478   YY=            -21.7456   ZZ=            -25.1864
   XY=              0.7272   XZ=              0.0285   YZ=             -0.0777

 Normal termination of Gaussian 09 at Wed Aug 26 09:01:05 2020.
