 Gaussian 09, Revision D.01,
 Gaussian 09:  ES64L-G09RevD.01 24-Apr-2013

 --------------------
 #p B2PLYPD3/Def2QZVP
 --------------------

 --------
 acrolein
 --------
 Symbolic Z-matrix:
 Charge =  0 Multiplicity = 1

                         Standard orientation:
 ---------------------------------------------------------------------
 Center     Atomic      Atomic             Coordinates (Angstroms)
 Number     Number       Type             X           Y           Z
 ---------------------------------------------------------------------
      1          6           0       -0.670169    0.351234    0.004729
      2          8           0       -1.786722   -0.120223   -0.003420
      3          6           0        0.565085   -0.465547   -0.011457
      4          6           0        1.745591    0.146462   -0.007006
      5          1           0        0.445995   -1.526522    0.059892
      6          1           0        1.836210    1.240115    0.023288
      7          1           0        2.679028   -0.413613    0.008290
      8          1           0       -0.510491    1.468911    0.018296
 ---------------------------------------------------------------------

 SCF Done:  E(RB2PLYPD3) =  -191.615926604     A.U. after   12 cycles
 E2(B2PLYPD3) =    -0.2473629039D+00 E(B2PLYPD3) =    -0.19186328950779D+03

 The electronic state is 1-A.
 Alpha  occ. eigenvalues --  -19.72842 -10.71868 -10.65585 -10.64384  -1.19444
 Alpha  occ. eigenvalues --   -0.92941  -0.74921  -0.66869  -0.56381  -0.56198
 Alpha  occ. eigenvalues --   -0.50529  -0.47079  -0.46569  -0.34747  -0.33742
 Alpha virt. eigenvalues --   -0.01555   0.05717   0.07114   0.07991   0.09718
 Alpha virt. eigenvalues --    0.12494   0.13932   0.15314   0.17499   0.19767
 Alpha virt. eigenvalues --    0.19962   0.21466   0.25413   0.26430   0.28767

 Mulliken charges:
               1
     1  C    0.156724
     2  O   -0.347628
     3  C   -0.043781
     4  C   -0.126981
     5  H    0.109405
     6  H    0.084768
     7  H    0.098895
     8  H    0.068598
 Sum of Mulliken charges =   0.00000

 Dipole moment (field-independent basis, Debye):
    X=              3.4653    Y=              0.7372    Z=              0.1018  Tot=              3.5443
 Quadrupole moment (field-independent basis, Debye-Ang):
   XX=            -27.5247   YY=            -21.6807   ZZ=            -25.2551
   XY=             -0.8649   XZ=              0.0802   YZ=             -0.0623

 Normal termination of Gaussian 09 at Wed Aug 26 16:21:45 2020.
