 Gaussian 09, Revision D.01,
 Gaussian 09:  ES64L-G09RevD.01 24-Apr-2013

 --------------------
 #p B2PLYPD3/Def2QZVP
 --------------------

 --------
 acrolein
 --------
 Symbolic Z-matrix:
 Charge =  0 Multiplicity = 1

                         Standard orientation:
 ---------------------------------------------------------------------
 Center     Atomic      Atomic             Coordinates (Angstroms)
 Number     Number       Type             X           Y           Z
 ---------------------------------------------------------------------
      1          6           0        0.672882    0.345227   -0.017877
      2          8           0        1.784680   -0.108285    0.017701
      3          6           0       -0.561039   -0.462492   -0.029815
      4          6           0       -1.750544    0.148765    0.006733
      5          1           0       -0.446146   -1.584891    0.022948
      6          1           0       -1.874232    1.259920    0.019452
      7          1           0       -2.655864   -0.401646    0.061592
      8          1           0        0.531010    1.403891    0.000158
 ---------------------------------------------------------------------

 SCF Done:  E(RB2PLYPD3) =  -191.613572279     A.U. after   12 cycles
 E2(B2PLYPD3) =    -0.2467579737D+00 E(B2PLYPD3) =    -0.19186033025318D+03

 The electronic state is 1-A.
 Alpha  occ. eigenvalues --  -19.72586 -10.70999 -10.65636 -10.64960  -1.19960
 Alpha  occ. eigenvalues --   -0.92632  -0.75416  -0.66879  -0.56718  -0.56135
 Alpha  occ. eigenvalues --   -0.50622  -0.46958  -0.46403  -0.34611  -0.33753
 Alpha virt. eigenvalues --   -0.01548   0.05735   0.07040   0.08213   0.09635
 Alpha virt. eigenvalues --    0.12562   0.14238   0.15369   0.17332   0.19633
 Alpha virt. eigenvalues --    0.19974   0.21696   0.25325   0.26575   0.28593

 Mulliken charges:
               1
     1  C    0.157883
     2  O   -0.345165
     3  C   -0.044936
     4  C   -0.129501
     5  H    0.101678
     6  H    0.082837
     7  H    0.102072
     8  H    0.075133
 Sum of Mulliken charges =   0.00000

 Dipole moment (field-independent basis, Debye):
    X=             -3.4579    Y=              0.7618    Z=              0.0323  Tot=              3.5409
 Quadrupole moment (field-independent basis, Debye-Ang):
   XX=            -27.4497   YY=            -21.6096   ZZ=            -25.2458
   XY=              0.7968   XZ=             -0.2884   YZ=             -0.0589

 Normal termination of Gaussian 09 at Wed Aug 26 19:16:50 2020.
