 Gaussian 09, Revision D.01,
 Gaussian 09:  ES64L-G09RevD.01 24-Apr-2013

 --------------------
 #p B2PLYPD3/Def2QZVP
 --------------------

 --------
 acrolein
 --------
 Symbolic Z-matrix:
 Charge =  0 Multiplicity = 1

                         Standard orientation:
 ---------------------------------------------------------------------
 Center     Atomic      Atomic             Coordinates (Angstroms)
 Number     Number       Type             X           Y           Z
 ---------------------------------------------------------------------
      1          6           0       -0.677718    0.352148    0.004763
      2          8           0       -1.787197   -0.137766    0.018363
      3          6           0        0.550418   -0.436710   -0.041471
      4          6           0        1.759938    0.140275    0.000700
      5          1           0        0.465512   -1.428623   -0.019242
      6          1           0        1.796497    1.177428    0.019347
      7          1           0        2.746911   -0.464087    0.129280
      8          1           0       -0.507164    1.483125   -0.060246
 ---------------------------------------------------------------------

 SCF Done:  E(RB2PLYPD3) =  -191.603204403     A.U. after   13 cycles
 E2(B2PLYPD3) =    -0.2476752517D+00 E(B2PLYPD3) =    -0.19185087965453D+03

 The electronic state is 1-A.
 Alpha  occ. eigenvalues --  -19.73003 -10.72045 -10.65958 -10.63494  -1.19545
 Alpha  occ. eigenvalues --   -0.93274  -0.75224  -0.67932  -0.56645  -0.55911
 Alpha  occ. eigenvalues --   -0.50325  -0.47579  -0.46857  -0.34594  -0.33881
 Alpha virt. eigenvalues --   -0.02034   0.05597   0.07237   0.08131   0.09797
 Alpha virt. eigenvalues --    0.12370   0.13642   0.15372   0.18030   0.19666
 Alpha virt. eigenvalues --    0.20026   0.21194   0.25395   0.26140   0.28930

 Mulliken charges:
               1
     1  C    0.151640
     2  O   -0.347414
     3  C   -0.033864
     4  C   -0.131039
     5  H    0.112687
     6  H    0.087267
     7  H    0.098033
     8  H    0.062688
 Sum of Mulliken charges =   0.00000

 Dipole moment (field-independent basis, Debye):
    X=              3.4788    Y=              0.7474    Z=              0.0614  Tot=              3.5587
 Quadrupole moment (field-independent basis, Debye-Ang):
   XX=            -27.3283   YY=            -21.9348   ZZ=            -25.1916
   XY=             -1.1166   XZ=              0.4550   YZ=             -0.0749

 Normal termination of Gaussian 09 at Wed Aug 26 08:52:24 2020.
