 Gaussian 09, Revision D.01,
 Gaussian 09:  ES64L-G09RevD.01 24-Apr-2013

 --------------------
 #p B2PLYPD3/Def2QZVP
 --------------------

 --------
 acrolein
 --------
 Symbolic Z-matrix:
 Charge =  0 Multiplicity = 1

                         Standard orientation:
 ---------------------------------------------------------------------
 Center     Atomic      Atomic             Coordinates (Angstroms)
 Number     Number       Type             X           Y           Z
 ---------------------------------------------------------------------
      1          6           0        0.677632   -0.323580    0.080215
      2          8           0        1.810741    0.090103   -0.077332
      3          6           0       -0.574142    0.464081    0.055874
      4          6           0       -1.784688   -0.164950   -0.081235
      5          1           0       -0.357234    1.636354    0.059787
      6          1           0       -1.904717   -1.234384   -0.177785
      7          1           0       -2.629768    0.461978    0.128567
      8          1           0        0.492975   -1.438077    0.278971
 ---------------------------------------------------------------------

 SCF Done:  E(RB2PLYPD3) =  -191.598361887     A.U. after   14 cycles
 E2(B2PLYPD3) =    -0.2498076596D+00 E(B2PLYPD3) =    -0.19184816954707D+03

 The electronic state is 1-A.
 Alpha  occ. eigenvalues --  -19.73137 -10.72090 -10.66425 -10.66273  -1.19249
 Alpha  occ. eigenvalues --   -0.92091  -0.75686  -0.65212  -0.56105  -0.55861
 Alpha  occ. eigenvalues --   -0.50286  -0.46810  -0.46147  -0.34262  -0.33523
 Alpha virt. eigenvalues --   -0.02706   0.05755   0.06507   0.08000   0.09706
 Alpha virt. eigenvalues --    0.12275   0.13745   0.15510   0.16597   0.18714
 Alpha virt. eigenvalues --    0.19980   0.21821   0.24696   0.26545   0.28170

 Mulliken charges:
               1
     1  C    0.163294
     2  O   -0.346064
     3  C   -0.043182
     4  C   -0.128857
     5  H    0.098049
     6  H    0.096356
     7  H    0.106315
     8  H    0.054089
 Sum of Mulliken charges =   0.00000

 Dipole moment (field-independent basis, Debye):
    X=             -3.5007    Y=             -0.6382    Z=              0.3435  Tot=              3.5750
 Quadrupole moment (field-independent basis, Debye-Ang):
   XX=            -27.7880   YY=            -21.7480   ZZ=            -25.4837
   XY=             -0.3514   XZ=              0.3378   YZ=              0.3040

 Normal termination of Gaussian 09 at Wed Aug 26 11:44:44 2020.
