 Gaussian 09, Revision D.01,
 Gaussian 09:  ES64L-G09RevD.01 24-Apr-2013

 --------------------
 #p B2PLYPD3/Def2QZVP
 --------------------

 --------
 acrolein
 --------
 Symbolic Z-matrix:
 Charge =  0 Multiplicity = 1

                         Standard orientation:
 ---------------------------------------------------------------------
 Center     Atomic      Atomic             Coordinates (Angstroms)
 Number     Number       Type             X           Y           Z
 ---------------------------------------------------------------------
      1          6           0       -0.713192    0.377688    0.086884
      2          8           0       -1.749731   -0.158070   -0.072921
      3          6           0        0.529357   -0.422388    0.053924
      4          6           0        1.777927    0.116949   -0.054408
      5          1           0        0.461967   -1.404935    0.086310
      6          1           0        1.922645    1.176234   -0.114702
      7          1           0        2.661326   -0.447668   -0.000599
      8          1           0       -0.612639    1.507437    0.093963
 ---------------------------------------------------------------------

 SCF Done:  E(RB2PLYPD3) =  -191.603712946     A.U. after   12 cycles
 E2(B2PLYPD3) =    -0.2456994481D+00 E(B2PLYPD3) =    -0.19184941239421D+03

 The electronic state is 1-A.
 Alpha  occ. eigenvalues --  -19.72893 -10.71601 -10.64858 -10.63441  -1.21870
 Alpha  occ. eigenvalues --   -0.91942  -0.75362  -0.67782  -0.57192  -0.56675
 Alpha  occ. eigenvalues --   -0.51171  -0.47961  -0.47469  -0.34165  -0.33433
 Alpha virt. eigenvalues --   -0.01564   0.05911   0.07671   0.08211   0.09807
 Alpha virt. eigenvalues --    0.12435   0.14090   0.15676   0.18188   0.19588
 Alpha virt. eigenvalues --    0.19855   0.21776   0.25464   0.26108   0.28907

 Mulliken charges:
               1
     1  C    0.158345
     2  O   -0.323971
     3  C   -0.063958
     4  C   -0.135044
     5  H    0.116971
     6  H    0.077307
     7  H    0.097675
     8  H    0.072674
 Sum of Mulliken charges =   0.00000

 Dipole moment (field-independent basis, Debye):
    X=              3.0965    Y=              0.8503    Z=              0.2626  Tot=              3.2218
 Quadrupole moment (field-independent basis, Debye-Ang):
   XX=            -26.7967   YY=            -21.8465   ZZ=            -25.1477
   XY=             -1.2192   XZ=             -0.4864   YZ=             -0.2042

 Normal termination of Gaussian 09 at Wed Aug 26 15:04:10 2020.
