 Gaussian 09, Revision D.01,
 Gaussian 09:  ES64L-G09RevD.01 24-Apr-2013

 --------------------
 #p B2PLYPD3/Def2QZVP
 --------------------

 --------
 acrolein
 --------
 Symbolic Z-matrix:
 Charge =  0 Multiplicity = 1

                         Standard orientation:
 ---------------------------------------------------------------------
 Center     Atomic      Atomic             Coordinates (Angstroms)
 Number     Number       Type             X           Y           Z
 ---------------------------------------------------------------------
      1          6           0       -0.684553    0.366758    0.012559
      2          8           0       -1.781097   -0.133383   -0.009578
      3          6           0        0.560647   -0.446927   -0.008056
      4          6           0        1.759626    0.136088   -0.012308
      5          1           0        0.438097   -1.499531    0.059070
      6          1           0        1.837063    1.201471   -0.006626
      7          1           0        2.684042   -0.416817    0.029828
      8          1           0       -0.524747    1.446431    0.041177
 ---------------------------------------------------------------------

 SCF Done:  E(RB2PLYPD3) =  -191.616727787     A.U. after   12 cycles
 E2(B2PLYPD3) =    -0.2465499801D+00 E(B2PLYPD3) =    -0.19186327776719D+03

 The electronic state is 1-A.
 Alpha  occ. eigenvalues --  -19.72909 -10.71579 -10.65018 -10.64092  -1.19930
 Alpha  occ. eigenvalues --   -0.92697  -0.75265  -0.67514  -0.56644  -0.56470
 Alpha  occ. eigenvalues --   -0.50936  -0.47152  -0.46758  -0.34551  -0.33894
 Alpha virt. eigenvalues --   -0.01490   0.05808   0.07369   0.08057   0.09773
 Alpha virt. eigenvalues --    0.12571   0.14043   0.15399   0.17684   0.19808
 Alpha virt. eigenvalues --    0.19941   0.21639   0.25493   0.26527   0.28784

 Mulliken charges:
               1
     1  C    0.155162
     2  O   -0.344521
     3  C   -0.046510
     4  C   -0.133443
     5  H    0.108520
     6  H    0.081082
     7  H    0.100608
     8  H    0.079101
 Sum of Mulliken charges =   0.00000

 Dipole moment (field-independent basis, Debye):
    X=              3.3544    Y=              0.8403    Z=              0.1259  Tot=              3.4604
 Quadrupole moment (field-independent basis, Debye-Ang):
   XX=            -27.3693   YY=            -21.7169   ZZ=            -25.1746
   XY=             -1.0041   XZ=              0.0575   YZ=             -0.0949

 Normal termination of Gaussian 09 at Wed Aug 26 18:34:43 2020.
