 Gaussian 09, Revision D.01,
 Gaussian 09:  ES64L-G09RevD.01 24-Apr-2013

 --------------------
 #p B2PLYPD3/Def2QZVP
 --------------------

 --------
 acrolein
 --------
 Symbolic Z-matrix:
 Charge =  0 Multiplicity = 1

                         Standard orientation:
 ---------------------------------------------------------------------
 Center     Atomic      Atomic             Coordinates (Angstroms)
 Number     Number       Type             X           Y           Z
 ---------------------------------------------------------------------
      1          6           0        0.675352    0.334064   -0.008563
      2          8           0        1.801909   -0.103051    0.009827
      3          6           0       -0.578503   -0.477928   -0.010653
      4          6           0       -1.750595    0.144124   -0.008251
      5          1           0       -0.468338   -1.522180    0.042159
      6          1           0       -1.907885    1.296709    0.110825
      7          1           0       -2.590448   -0.408267   -0.010521
      8          1           0        0.473877    1.456594   -0.056281
 ---------------------------------------------------------------------

 SCF Done:  E(RB2PLYPD3) =  -191.605156533     A.U. after   12 cycles
 E2(B2PLYPD3) =    -0.2473287333D+00 E(B2PLYPD3) =    -0.19185248526609D+03

 The electronic state is 1-A.
 Alpha  occ. eigenvalues --  -19.73015 -10.72001 -10.65376 -10.64344  -1.19662
 Alpha  occ. eigenvalues --   -0.93103  -0.75403  -0.66552  -0.57175  -0.55489
 Alpha  occ. eigenvalues --   -0.50897  -0.47209  -0.46610  -0.34897  -0.33602
 Alpha virt. eigenvalues --   -0.01543   0.05642   0.07230   0.07990   0.09608
 Alpha virt. eigenvalues --    0.12546   0.13922   0.15346   0.17510   0.19326
 Alpha virt. eigenvalues --    0.20047   0.21857   0.25099   0.26640   0.28228

 Mulliken charges:
               1
     1  C    0.163892
     2  O   -0.343369
     3  C   -0.051778
     4  C   -0.121486
     5  H    0.106261
     6  H    0.083951
     7  H    0.101766
     8  H    0.060762
 Sum of Mulliken charges =   0.00000

 Dipole moment (field-independent basis, Debye):
    X=             -3.4972    Y=              0.6116    Z=              0.0749  Tot=              3.5511
 Quadrupole moment (field-independent basis, Debye-Ang):
   XX=            -27.5474   YY=            -21.7104   ZZ=            -25.2145
   XY=              0.6605   XZ=             -0.2379   YZ=              0.0632

 Normal termination of Gaussian 09 at Wed Aug 26 10:14:19 2020.
