 Gaussian 09, Revision D.01,
 Gaussian 09:  ES64L-G09RevD.01 24-Apr-2013

 --------------------
 #p B2PLYPD3/Def2QZVP
 --------------------

 --------
 acrolein
 --------
 Symbolic Z-matrix:
 Charge =  0 Multiplicity = 1

                         Standard orientation:
 ---------------------------------------------------------------------
 Center     Atomic      Atomic             Coordinates (Angstroms)
 Number     Number       Type             X           Y           Z
 ---------------------------------------------------------------------
      1          6           0        0.659974    0.334687   -0.016475
      2          8           0        1.788192   -0.100759    0.021343
      3          6           0       -0.566230   -0.470752   -0.056067
      4          6           0       -1.749437    0.153962    0.005409
      5          1           0       -0.470265   -1.530264    0.078427
      6          1           0       -1.857523    1.237232    0.028352
      7          1           0       -2.557542   -0.391250    0.113504
      8          1           0        0.513955    1.382965    0.011767
 ---------------------------------------------------------------------

 SCF Done:  E(RB2PLYPD3) =  -191.606586798     A.U. after   12 cycles
 E2(B2PLYPD3) =    -0.2463932539D+00 E(B2PLYPD3) =    -0.19185298005165D+03

 The electronic state is 1-A.
 Alpha  occ. eigenvalues --  -19.72451 -10.70798 -10.64595 -10.64346  -1.19302
 Alpha  occ. eigenvalues --   -0.93390  -0.76475  -0.67724  -0.57348  -0.56706
 Alpha  occ. eigenvalues --   -0.50566  -0.47998  -0.46527  -0.34616  -0.33680
 Alpha virt. eigenvalues --   -0.01765   0.05880   0.07290   0.08123   0.09713
 Alpha virt. eigenvalues --    0.12885   0.14116   0.15320   0.17675   0.19830
 Alpha virt. eigenvalues --    0.19977   0.22191   0.24923   0.26772   0.28568

 Mulliken charges:
               1
     1  C    0.151250
     2  O   -0.352609
     3  C   -0.041166
     4  C   -0.128000
     5  H    0.104673
     6  H    0.087425
     7  H    0.102937
     8  H    0.075490
 Sum of Mulliken charges =   0.00000

 Dipole moment (field-independent basis, Debye):
    X=             -3.5734    Y=              0.7322    Z=              0.1379  Tot=              3.6503
 Quadrupole moment (field-independent basis, Debye-Ang):
   XX=            -27.5989   YY=            -21.5512   ZZ=            -25.0324
   XY=              0.7636   XZ=             -0.4916   YZ=             -0.1684

 Normal termination of Gaussian 09 at Wed Aug 26 08:45:10 2020.
