 Gaussian 09, Revision D.01,
 Gaussian 09:  ES64L-G09RevD.01 24-Apr-2013

 --------------------
 #p B2PLYPD3/Def2QZVP
 --------------------

 --------
 acrolein
 --------
 Symbolic Z-matrix:
 Charge =  0 Multiplicity = 1

                         Standard orientation:
 ---------------------------------------------------------------------
 Center     Atomic      Atomic             Coordinates (Angstroms)
 Number     Number       Type             X           Y           Z
 ---------------------------------------------------------------------
      1          6           0        0.679697    0.360914   -0.017081
      2          8           0        1.781771   -0.132047    0.006846
      3          6           0       -0.556927   -0.455163   -0.005437
      4          6           0       -1.747626    0.138427    0.007042
      5          1           0       -0.480663   -1.512254    0.009701
      6          1           0       -1.834986    1.228752   -0.012672
      7          1           0       -2.706747   -0.407149    0.003750
      8          1           0        0.517367    1.481964    0.037311
 ---------------------------------------------------------------------

 SCF Done:  E(RB2PLYPD3) =  -191.615270003     A.U. after   12 cycles
 E2(B2PLYPD3) =    -0.2472162331D+00 E(B2PLYPD3) =    -0.19186248623633D+03

 The electronic state is 1-A.
 Alpha  occ. eigenvalues --  -19.72942 -10.72032 -10.65541 -10.64176  -1.19829
 Alpha  occ. eigenvalues --   -0.92787  -0.74744  -0.66975  -0.56401  -0.56247
 Alpha  occ. eigenvalues --   -0.50596  -0.46928  -0.46654  -0.34676  -0.33854
 Alpha virt. eigenvalues --   -0.01498   0.05716   0.07165   0.07988   0.09698
 Alpha virt. eigenvalues --    0.12434   0.14066   0.15390   0.17616   0.19741
 Alpha virt. eigenvalues --    0.19982   0.21290   0.25502   0.26319   0.28790

 Mulliken charges:
               1
     1  C    0.155823
     2  O   -0.342125
     3  C   -0.045835
     4  C   -0.126842
     5  H    0.109634
     6  H    0.079104
     7  H    0.097652
     8  H    0.072589
 Sum of Mulliken charges =   0.00000

 Dipole moment (field-independent basis, Debye):
    X=             -3.3991    Y=              0.7779    Z=             -0.0208  Tot=              3.4871
 Quadrupole moment (field-independent basis, Debye-Ang):
   XX=            -27.3644   YY=            -21.7467   ZZ=            -25.2609
   XY=              1.0171   XZ=             -0.0197   YZ=             -0.0161

 Normal termination of Gaussian 09 at Wed Aug 26 15:26:59 2020.
