 Gaussian 09, Revision D.01,
 Gaussian 09:  ES64L-G09RevD.01 24-Apr-2013

 --------------------
 #p B2PLYPD3/Def2QZVP
 --------------------

 --------
 acrolein
 --------
 Symbolic Z-matrix:
 Charge =  0 Multiplicity = 1

                         Standard orientation:
 ---------------------------------------------------------------------
 Center     Atomic      Atomic             Coordinates (Angstroms)
 Number     Number       Type             X           Y           Z
 ---------------------------------------------------------------------
      1          6           0        0.675339    0.388423    0.075451
      2          8           0        1.802947   -0.148187   -0.048516
      3          6           0       -0.571045   -0.446468   -0.000126
      4          6           0       -1.742485    0.126970   -0.055111
      5          1           0       -0.472222   -1.490176    0.113623
      6          1           0       -1.851716    1.161459   -0.126158
      7          1           0       -2.665395   -0.448833    0.154513
      8          1           0        0.394906    1.549496    0.124869
 ---------------------------------------------------------------------

 SCF Done:  E(RB2PLYPD3) =  -191.597393738     A.U. after   14 cycles
 E2(B2PLYPD3) =    -0.2501232498D+00 E(B2PLYPD3) =    -0.19184751698785D+03

 The electronic state is 1-A.
 Alpha  occ. eigenvalues --  -19.73742 -10.73761 -10.64622 -10.63971  -1.17460
 Alpha  occ. eigenvalues --   -0.93500  -0.74902  -0.66963  -0.56190  -0.55627
 Alpha  occ. eigenvalues --   -0.50469  -0.46791  -0.45586  -0.35031  -0.33956
 Alpha virt. eigenvalues --   -0.02186   0.05585   0.06853   0.07380   0.09840
 Alpha virt. eigenvalues --    0.12556   0.13432   0.15282   0.17281   0.19369
 Alpha virt. eigenvalues --    0.20059   0.21936   0.24864   0.26655   0.28386

 Mulliken charges:
               1
     1  C    0.159943
     2  O   -0.355803
     3  C   -0.033105
     4  C   -0.124278
     5  H    0.109310
     6  H    0.079963
     7  H    0.092323
     8  H    0.071647
 Sum of Mulliken charges =   0.00000

 Dipole moment (field-independent basis, Debye):
    X=             -3.4887    Y=              0.8669    Z=              0.3656  Tot=              3.6133
 Quadrupole moment (field-independent basis, Debye-Ang):
   XX=            -27.9195   YY=            -21.7251   ZZ=            -25.2450
   XY=              0.8572   XZ=             -0.0632   YZ=             -0.3182

 Normal termination of Gaussian 09 at Wed Aug 26 13:54:08 2020.
