 Gaussian 09, Revision D.01,
 Gaussian 09:  ES64L-G09RevD.01 24-Apr-2013

 --------------------
 #p B2PLYPD3/Def2QZVP
 --------------------

 --------
 acrolein
 --------
 Symbolic Z-matrix:
 Charge =  0 Multiplicity = 1

                         Standard orientation:
 ---------------------------------------------------------------------
 Center     Atomic      Atomic             Coordinates (Angstroms)
 Number     Number       Type             X           Y           Z
 ---------------------------------------------------------------------
      1          6           0       -0.664835    0.344937   -0.027329
      2          8           0       -1.790166   -0.112985    0.019994
      3          6           0        0.573837   -0.466804   -0.014222
      4          6           0        1.745620    0.152439    0.003210
      5          1           0        0.468518   -1.516261   -0.002618
      6          1           0        1.835101    1.241125    0.049707
      7          1           0        2.615785   -0.405918    0.036535
      8          1           0       -0.525810    1.401503   -0.013533
 ---------------------------------------------------------------------

 SCF Done:  E(RB2PLYPD3) =  -191.614163297     A.U. after   12 cycles
 E2(B2PLYPD3) =    -0.2465358819D+00 E(B2PLYPD3) =    -0.19186069917877D+03

 The electronic state is 1-A.
 Alpha  occ. eigenvalues --  -19.72620 -10.71150 -10.64865 -10.64093  -1.19055
 Alpha  occ. eigenvalues --   -0.93322  -0.75676  -0.67838  -0.57020  -0.56503
 Alpha  occ. eigenvalues --   -0.50616  -0.47565  -0.46441  -0.34790  -0.33751
 Alpha virt. eigenvalues --   -0.01535   0.05807   0.07353   0.08018   0.09722
 Alpha virt. eigenvalues --    0.12745   0.14129   0.15326   0.17640   0.19746
 Alpha virt. eigenvalues --    0.20004   0.21834   0.25426   0.26578   0.28696

 Mulliken charges:
               1
     1  C    0.153759
     2  O   -0.354286
     3  C   -0.043947
     4  C   -0.129746
     5  H    0.108151
     6  H    0.086126
     7  H    0.100445
     8  H    0.079497
 Sum of Mulliken charges =   0.00000

 Dipole moment (field-independent basis, Debye):
    X=              3.5142    Y=              0.7626    Z=             -0.0092  Tot=              3.5960
 Quadrupole moment (field-independent basis, Debye-Ang):
   XX=            -27.6678   YY=            -21.5280   ZZ=            -25.0986
   XY=             -0.9018   XZ=              0.2635   YZ=              0.0364

 Normal termination of Gaussian 09 at Wed Aug 26 16:08:14 2020.
