 Gaussian 09, Revision D.01,
 Gaussian 09:  ES64L-G09RevD.01 24-Apr-2013

 --------------------
 #p B2PLYPD3/Def2QZVP
 --------------------

 --------
 acrolein
 --------
 Symbolic Z-matrix:
 Charge =  0 Multiplicity = 1

                         Standard orientation:
 ---------------------------------------------------------------------
 Center     Atomic      Atomic             Coordinates (Angstroms)
 Number     Number       Type             X           Y           Z
 ---------------------------------------------------------------------
      1          6           0        0.667754    0.338925    0.013211
      2          8           0        1.795688   -0.111855   -0.016222
      3          6           0       -0.576561   -0.460464    0.015220
      4          6           0       -1.754629    0.148094   -0.020137
      5          1           0       -0.466967   -1.515189    0.051033
      6          1           0       -1.863600    1.251151    0.030004
      7          1           0       -2.583210   -0.421124   -0.032468
      8          1           0        0.528888    1.420676    0.031445
 ---------------------------------------------------------------------

 SCF Done:  E(RB2PLYPD3) =  -191.611675313     A.U. after   12 cycles
 E2(B2PLYPD3) =    -0.2467049114D+00 E(B2PLYPD3) =    -0.19185838022450D+03

 The electronic state is 1-A.
 Alpha  occ. eigenvalues --  -19.72711 -10.71386 -10.64811 -10.64211  -1.19138
 Alpha  occ. eigenvalues --   -0.93371  -0.75926  -0.67271  -0.57205  -0.56345
 Alpha  occ. eigenvalues --   -0.50647  -0.47651  -0.46445  -0.34829  -0.33710
 Alpha virt. eigenvalues --   -0.01644   0.05820   0.07268   0.08167   0.09706
 Alpha virt. eigenvalues --    0.12684   0.14058   0.15327   0.17557   0.19642
 Alpha virt. eigenvalues --    0.20014   0.22060   0.25382   0.26512   0.28527

 Mulliken charges:
               1
     1  C    0.155910
     2  O   -0.351923
     3  C   -0.043296
     4  C   -0.129401
     5  H    0.104820
     6  H    0.088186
     7  H    0.103536
     8  H    0.072169
 Sum of Mulliken charges =   0.00000

 Dipole moment (field-independent basis, Debye):
    X=             -3.5328    Y=              0.7189    Z=              0.1060  Tot=              3.6068
 Quadrupole moment (field-independent basis, Debye-Ang):
   XX=            -27.6298   YY=            -21.5877   ZZ=            -25.1159
   XY=              0.8770   XZ=              0.0807   YZ=              0.0037

 Normal termination of Gaussian 09 at Wed Aug 26 09:36:02 2020.
