 Gaussian 09, Revision D.01,
 Gaussian 09:  ES64L-G09RevD.01 24-Apr-2013

 --------------------
 #p B2PLYPD3/Def2QZVP
 --------------------

 --------
 acrolein
 --------
 Symbolic Z-matrix:
 Charge =  0 Multiplicity = 1

                         Standard orientation:
 ---------------------------------------------------------------------
 Center     Atomic      Atomic             Coordinates (Angstroms)
 Number     Number       Type             X           Y           Z
 ---------------------------------------------------------------------
      1          6           0        0.679583    0.357738    0.043572
      2          8           0        1.777247   -0.149666   -0.032722
      3          6           0       -0.558445   -0.439275   -0.003875
      4          6           0       -1.745102    0.119600   -0.000741
      5          1           0       -0.592516   -1.380526    0.099914
      6          1           0       -1.775159    1.304928   -0.094058
      7          1           0       -2.667535   -0.421911   -0.045413
      8          1           0        0.561013    1.466457    0.067597
 ---------------------------------------------------------------------

 SCF Done:  E(RB2PLYPD3) =  -191.590628661     A.U. after   13 cycles
 E2(B2PLYPD3) =    -0.2469550306D+00 E(B2PLYPD3) =    -0.19183758369161D+03

 The electronic state is 1-A.
 Alpha  occ. eigenvalues --  -19.72936 -10.72007 -10.65685 -10.62523  -1.19647
 Alpha  occ. eigenvalues --   -0.93865  -0.74825  -0.68223  -0.57468  -0.56380
 Alpha  occ. eigenvalues --   -0.50793  -0.46926  -0.45772  -0.35013  -0.34099
 Alpha virt. eigenvalues --   -0.01461   0.05648   0.07425   0.07939   0.09651
 Alpha virt. eigenvalues --    0.12174   0.14028   0.15200   0.18436   0.19126
 Alpha virt. eigenvalues --    0.19738   0.21115   0.25333   0.26281   0.29267

 Mulliken charges:
               1
     1  C    0.155747
     2  O   -0.341832
     3  C   -0.050476
     4  C   -0.110914
     5  H    0.107770
     6  H    0.057867
     7  H    0.100109
     8  H    0.081729
 Sum of Mulliken charges =   0.00000

 Dipole moment (field-independent basis, Debye):
    X=             -3.3627    Y=              0.7573    Z=              0.1338  Tot=              3.4495
 Quadrupole moment (field-independent basis, Debye-Ang):
   XX=            -27.3930   YY=            -21.8545   ZZ=            -25.0787
   XY=              1.6558   XZ=              0.3109   YZ=             -0.1979

 Normal termination of Gaussian 09 at Wed Aug 26 12:02:36 2020.
