 Gaussian 09, Revision D.01,
 Gaussian 09:  ES64L-G09RevD.01 24-Apr-2013

 --------------------
 #p B2PLYPD3/Def2QZVP
 --------------------

 --------
 acrolein
 --------
 Symbolic Z-matrix:
 Charge =  0 Multiplicity = 1

                         Standard orientation:
 ---------------------------------------------------------------------
 Center     Atomic      Atomic             Coordinates (Angstroms)
 Number     Number       Type             X           Y           Z
 ---------------------------------------------------------------------
      1          6           0        0.659252    0.332567    0.051410
      2          8           0        1.824514   -0.105242   -0.075184
      3          6           0       -0.570773   -0.470750    0.031404
      4          6           0       -1.751332    0.130947   -0.035535
      5          1           0       -0.563078   -1.509129    0.205032
      6          1           0       -1.947229    1.420975   -0.229749
      7          1           0       -2.568301   -0.480288   -0.045853
      8          1           0        0.459612    1.453797    0.388363
 ---------------------------------------------------------------------

 SCF Done:  E(RB2PLYPD3) =  -191.574029857     A.U. after   13 cycles
 E2(B2PLYPD3) =    -0.2513258383D+00 E(B2PLYPD3) =    -0.19182535569536D+03

 The electronic state is 1-A.
 Alpha  occ. eigenvalues --  -19.73297 -10.73140 -10.66997 -10.64667  -1.17311
 Alpha  occ. eigenvalues --   -0.93644  -0.75555  -0.65454  -0.56946  -0.54480
 Alpha  occ. eigenvalues --   -0.50249  -0.45772  -0.44901  -0.35151  -0.33811
 Alpha virt. eigenvalues --   -0.02316   0.04812   0.06183   0.07286   0.09358
 Alpha virt. eigenvalues --    0.11933   0.13667   0.14822   0.17743   0.18078
 Alpha virt. eigenvalues --    0.19933   0.21708   0.23971   0.27098   0.27942

 Mulliken charges:
               1
     1  C    0.163097
     2  O   -0.357112
     3  C   -0.046057
     4  C   -0.122136
     5  H    0.105224
     6  H    0.079736
     7  H    0.105318
     8  H    0.071931
 Sum of Mulliken charges =   0.00000

 Dipole moment (field-independent basis, Debye):
    X=             -3.7106    Y=              0.5435    Z=              0.3363  Tot=              3.7652
 Quadrupole moment (field-independent basis, Debye-Ang):
   XX=            -28.1193   YY=            -21.6446   ZZ=            -25.3941
   XY=              0.9168   XZ=              0.6854   YZ=             -0.3865

 Normal termination of Gaussian 09 at Wed Aug 26 14:26:39 2020.
