 Gaussian 09, Revision D.01,
 Gaussian 09:  ES64L-G09RevD.01 24-Apr-2013

 --------------------
 #p B2PLYPD3/Def2QZVP
 --------------------

 --------
 acrolein
 --------
 Symbolic Z-matrix:
 Charge =  0 Multiplicity = 1

                         Standard orientation:
 ---------------------------------------------------------------------
 Center     Atomic      Atomic             Coordinates (Angstroms)
 Number     Number       Type             X           Y           Z
 ---------------------------------------------------------------------
      1          6           0        0.664016    0.331437   -0.001273
      2          8           0        1.798925   -0.104661    0.019034
      3          6           0       -0.563227   -0.474284   -0.037946
      4          6           0       -1.762151    0.151453    0.025336
      5          1           0       -0.457165   -1.494680   -0.051547
      6          1           0       -1.849211    1.261384   -0.062156
      7          1           0       -2.606023   -0.431338    0.093564
      8          1           0        0.489173    1.450275   -0.048834
 ---------------------------------------------------------------------

 SCF Done:  E(RB2PLYPD3) =  -191.609343083     A.U. after   12 cycles
 E2(B2PLYPD3) =    -0.2478139195D+00 E(B2PLYPD3) =    -0.19185715700215D+03

 The electronic state is 1-A.
 Alpha  occ. eigenvalues --  -19.72750 -10.71739 -10.65756 -10.64290  -1.19088
 Alpha  occ. eigenvalues --   -0.93039  -0.75784  -0.67221  -0.56960  -0.55823
 Alpha  occ. eigenvalues --   -0.50320  -0.48336  -0.46445  -0.34434  -0.33620
 Alpha virt. eigenvalues --   -0.02104   0.05735   0.07205   0.08074   0.09716
 Alpha virt. eigenvalues --    0.12591   0.13801   0.15313   0.17639   0.19610
 Alpha virt. eigenvalues --    0.20013   0.21763   0.24995   0.26468   0.28596

 Mulliken charges:
               1
     1  C    0.158832
     2  O   -0.351774
     3  C   -0.043550
     4  C   -0.129860
     5  H    0.109541
     6  H    0.092773
     7  H    0.103968
     8  H    0.060070
 Sum of Mulliken charges =   0.00000

 Dipole moment (field-independent basis, Debye):
    X=             -3.6057    Y=              0.6303    Z=             -0.0743  Tot=              3.6611
 Quadrupole moment (field-independent basis, Debye-Ang):
   XX=            -27.6192   YY=            -21.6656   ZZ=            -25.2273
   XY=              0.7875   XZ=             -0.2094   YZ=             -0.1044

 Normal termination of Gaussian 09 at Wed Aug 26 09:57:30 2020.
