 Gaussian 09, Revision D.01,
 Gaussian 09:  ES64L-G09RevD.01 24-Apr-2013

 --------------------
 #p B2PLYPD3/Def2QZVP
 --------------------

 --------
 acrolein
 --------
 Symbolic Z-matrix:
 Charge =  0 Multiplicity = 1

                         Standard orientation:
 ---------------------------------------------------------------------
 Center     Atomic      Atomic             Coordinates (Angstroms)
 Number     Number       Type             X           Y           Z
 ---------------------------------------------------------------------
      1          6           0        0.669649    0.344113    0.005334
      2          8           0        1.792111   -0.119249   -0.011606
      3          6           0       -0.569174   -0.459629    0.007034
      4          6           0       -1.744192    0.145357   -0.014506
      5          1           0       -0.478550   -1.536462    0.036433
      6          1           0       -1.815448    1.224427   -0.033709
      7          1           0       -2.660535   -0.396273    0.024200
      8          1           0        0.479950    1.483252    0.078751
 ---------------------------------------------------------------------

 SCF Done:  E(RB2PLYPD3) =  -191.615120621     A.U. after   12 cycles
 E2(B2PLYPD3) =    -0.2474907023D+00 E(B2PLYPD3) =    -0.19186261132383D+03

 The electronic state is 1-A.
 Alpha  occ. eigenvalues --  -19.73045 -10.72256 -10.65079 -10.64356  -1.19388
 Alpha  occ. eigenvalues --   -0.93322  -0.75234  -0.66522  -0.56729  -0.56108
 Alpha  occ. eigenvalues --   -0.50585  -0.47056  -0.46689  -0.34942  -0.33802
 Alpha virt. eigenvalues --   -0.01624   0.05795   0.06990   0.08099   0.09741
 Alpha virt. eigenvalues --    0.12636   0.13979   0.15319   0.17294   0.19742
 Alpha virt. eigenvalues --    0.20097   0.21596   0.25428   0.26454   0.28698

 Mulliken charges:
               1
     1  C    0.157690
     2  O   -0.345423
     3  C   -0.035474
     4  C   -0.126171
     5  H    0.104104
     6  H    0.083201
     7  H    0.101432
     8  H    0.060641
 Sum of Mulliken charges =   0.00000

 Dipole moment (field-independent basis, Debye):
    X=             -3.5053    Y=              0.6846    Z=              0.0815  Tot=              3.5725
 Quadrupole moment (field-independent basis, Debye-Ang):
   XX=            -27.4573   YY=            -21.8007   ZZ=            -25.2165
   XY=              0.8679   XZ=              0.0282   YZ=             -0.0694

 Normal termination of Gaussian 09 at Wed Aug 26 15:46:22 2020.
