 Gaussian 09, Revision D.01,
 Gaussian 09:  ES64L-G09RevD.01 24-Apr-2013

 --------------------
 #p B2PLYPD3/Def2QZVP
 --------------------

 --------
 acrolein
 --------
 Symbolic Z-matrix:
 Charge =  0 Multiplicity = 1

                         Standard orientation:
 ---------------------------------------------------------------------
 Center     Atomic      Atomic             Coordinates (Angstroms)
 Number     Number       Type             X           Y           Z
 ---------------------------------------------------------------------
      1          6           0        0.670603    0.347780   -0.044162
      2          8           0        1.770173   -0.129060    0.037878
      3          6           0       -0.541193   -0.425318   -0.011880
      4          6           0       -1.765654    0.138133    0.008406
      5          1           0       -0.380976   -1.508886   -0.053210
      6          1           0       -1.816179    1.156967    0.153916
      7          1           0       -2.697840   -0.453843   -0.004927
      8          1           0        0.551070    1.474672   -0.112988
 ---------------------------------------------------------------------

 SCF Done:  E(RB2PLYPD3) =  -191.611804382     A.U. after   12 cycles
 E2(B2PLYPD3) =    -0.2471336995D+00 E(B2PLYPD3) =    -0.19185893808190D+03

 The electronic state is 1-A.
 Alpha  occ. eigenvalues --  -19.72692 -10.71362 -10.65535 -10.64467  -1.20129
 Alpha  occ. eigenvalues --   -0.93046  -0.76011  -0.66593  -0.56925  -0.56371
 Alpha  occ. eigenvalues --   -0.50535  -0.47231  -0.46991  -0.34416  -0.33781
 Alpha virt. eigenvalues --   -0.02149   0.05803   0.07104   0.08484   0.09888
 Alpha virt. eigenvalues --    0.12497   0.13898   0.15331   0.17278   0.19668
 Alpha virt. eigenvalues --    0.20312   0.21572   0.25221   0.26454   0.28944

 Mulliken charges:
               1
     1  C    0.155002
     2  O   -0.344712
     3  C   -0.031224
     4  C   -0.136062
     5  H    0.102443
     6  H    0.091285
     7  H    0.105817
     8  H    0.057452
 Sum of Mulliken charges =   0.00000

 Dipole moment (field-independent basis, Debye):
    X=             -3.4594    Y=              0.7285    Z=             -0.0840  Tot=              3.5363
 Quadrupole moment (field-independent basis, Debye-Ang):
   XX=            -27.1381   YY=            -21.9479   ZZ=            -25.1794
   XY=              1.0007   XZ=             -0.3877   YZ=              0.2304

 Normal termination of Gaussian 09 at Wed Aug 26 08:49:25 2020.
