 Gaussian 09, Revision D.01,
 Gaussian 09:  ES64L-G09RevD.01 24-Apr-2013

 --------------------
 #p B2PLYPD3/Def2QZVP
 --------------------

 --------
 acrolein
 --------
 Symbolic Z-matrix:
 Charge =  0 Multiplicity = 1

                         Standard orientation:
 ---------------------------------------------------------------------
 Center     Atomic      Atomic             Coordinates (Angstroms)
 Number     Number       Type             X           Y           Z
 ---------------------------------------------------------------------
      1          6           0        0.667452    0.351978    0.019997
      2          8           0        1.767792   -0.143815   -0.032481
      3          6           0       -0.521422   -0.411653   -0.002176
      4          6           0       -1.763986    0.108343   -0.011078
      5          1           0       -0.457102   -1.439790    0.183336
      6          1           0       -1.822231    1.187094   -0.081763
      7          1           0       -2.600206   -0.490528   -0.045186
      8          1           0        0.444947    1.601738    0.163002
 ---------------------------------------------------------------------

 SCF Done:  E(RB2PLYPD3) =  -191.595162085     A.U. after   13 cycles
 E2(B2PLYPD3) =    -0.2489661401D+00 E(B2PLYPD3) =    -0.19184412822487D+03

 The electronic state is 1-A.
 Alpha  occ. eigenvalues --  -19.73367 -10.72815 -10.65390 -10.63771  -1.20178
 Alpha  occ. eigenvalues --   -0.93692  -0.76648  -0.65735  -0.57579  -0.55615
 Alpha  occ. eigenvalues --   -0.50867  -0.48100  -0.46183  -0.34681  -0.33701
 Alpha virt. eigenvalues --   -0.02538   0.05778   0.06596   0.08460   0.09917
 Alpha virt. eigenvalues --    0.12506   0.13251   0.14899   0.17707   0.19443
 Alpha virt. eigenvalues --    0.19981   0.21817   0.25070   0.26577   0.28770

 Mulliken charges:
               1
     1  C    0.159285
     2  O   -0.334852
     3  C   -0.020457
     4  C   -0.126161
     5  H    0.101778
     6  H    0.082191
     7  H    0.110339
     8  H    0.027878
 Sum of Mulliken charges =   0.00000

 Dipole moment (field-independent basis, Debye):
    X=             -3.5370    Y=              0.5252    Z=              0.1855  Tot=              3.5806
 Quadrupole moment (field-independent basis, Debye-Ang):
   XX=            -27.0134   YY=            -22.2916   ZZ=            -25.1814
   XY=              1.0908   XZ=              0.2467   YZ=             -0.2690

 Normal termination of Gaussian 09 at Wed Aug 26 12:45:14 2020.
