 Gaussian 09, Revision D.01,
 Gaussian 09:  ES64L-G09RevD.01 24-Apr-2013

 --------------------
 #p B2PLYPD3/Def2QZVP
 --------------------

 --------
 acrolein
 --------
 Symbolic Z-matrix:
 Charge =  0 Multiplicity = 1

                         Standard orientation:
 ---------------------------------------------------------------------
 Center     Atomic      Atomic             Coordinates (Angstroms)
 Number     Number       Type             X           Y           Z
 ---------------------------------------------------------------------
      1          6           0       -0.672415    0.350526   -0.000035
      2          8           0       -1.793931   -0.113795   -0.008926
      3          6           0        0.569034   -0.459029    0.026502
      4          6           0        1.759748    0.144276   -0.016960
      5          1           0        0.442394   -1.563141    0.000967
      6          1           0        1.851399    1.243242    0.036431
      7          1           0        2.641427   -0.396769   -0.037794
      8          1           0       -0.521971    1.412389    0.014758
 ---------------------------------------------------------------------

 SCF Done:  E(RB2PLYPD3) =  -191.613929866     A.U. after   12 cycles
 E2(B2PLYPD3) =    -0.2471314567D+00 E(B2PLYPD3) =    -0.19186106132269D+03

 The electronic state is 1-A.
 Alpha  occ. eigenvalues --  -19.72755 -10.71350 -10.65212 -10.64822  -1.19262
 Alpha  occ. eigenvalues --   -0.92816  -0.75725  -0.67066  -0.56746  -0.56346
 Alpha  occ. eigenvalues --   -0.50722  -0.46796  -0.46527  -0.34632  -0.33858
 Alpha virt. eigenvalues --   -0.01716   0.05779   0.07177   0.08026   0.09684
 Alpha virt. eigenvalues --    0.12616   0.14174   0.15337   0.17338   0.19725
 Alpha virt. eigenvalues --    0.19989   0.21853   0.25248   0.26569   0.28661

 Mulliken charges:
               1
     1  C    0.158685
     2  O   -0.350966
     3  C   -0.044402
     4  C   -0.130062
     5  H    0.102400
     6  H    0.082266
     7  H    0.104454
     8  H    0.077626
 Sum of Mulliken charges =   0.00000

 Dipole moment (field-independent basis, Debye):
    X=              3.4993    Y=              0.7814    Z=              0.0220  Tot=              3.5855
 Quadrupole moment (field-independent basis, Debye-Ang):
   XX=            -27.5329   YY=            -21.6199   ZZ=            -25.2216
   XY=             -0.8678   XZ=             -0.0878   YZ=              0.0894

 Normal termination of Gaussian 09 at Wed Aug 26 10:41:12 2020.
