 Gaussian 09, Revision D.01,
 Gaussian 09:  ES64L-G09RevD.01 24-Apr-2013

 --------------------
 #p B2PLYPD3/Def2QZVP
 --------------------

 --------
 acrolein
 --------
 Symbolic Z-matrix:
 Charge =  0 Multiplicity = 1

                         Standard orientation:
 ---------------------------------------------------------------------
 Center     Atomic      Atomic             Coordinates (Angstroms)
 Number     Number       Type             X           Y           Z
 ---------------------------------------------------------------------
      1          6           0       -0.673780   -0.351754    0.038365
      2          8           0       -1.824163    0.100600   -0.070526
      3          6           0        0.557795    0.467666    0.044377
      4          6           0        1.761514   -0.155533   -0.029383
      5          1           0        0.446122    1.621834    0.190705
      6          1           0        1.911467   -1.234198   -0.167611
      7          1           0        2.764761    0.434587   -0.122483
      8          1           0       -0.402216   -1.389303    0.343439
 ---------------------------------------------------------------------

 SCF Done:  E(RB2PLYPD3) =  -191.596342019     A.U. after   13 cycles
 E2(B2PLYPD3) =    -0.2510196325D+00 E(B2PLYPD3) =    -0.19184736165152D+03

 The electronic state is 1-A.
 Alpha  occ. eigenvalues --  -19.73337 -10.72525 -10.67100 -10.66082  -1.17919
 Alpha  occ. eigenvalues --   -0.92316  -0.75252  -0.65966  -0.56109  -0.54825
 Alpha  occ. eigenvalues --   -0.50176  -0.46154  -0.45102  -0.34699  -0.33747
 Alpha virt. eigenvalues --   -0.02526   0.05386   0.06121   0.07490   0.09438
 Alpha virt. eigenvalues --    0.12402   0.13887   0.14988   0.17169   0.18857
 Alpha virt. eigenvalues --    0.20220   0.21073   0.24151   0.27145   0.28271

 Mulliken charges:
               1
     1  C    0.164757
     2  O   -0.356748
     3  C   -0.041403
     4  C   -0.128492
     5  H    0.104985
     6  H    0.085508
     7  H    0.093262
     8  H    0.078131
 Sum of Mulliken charges =   0.00000

 Dipole moment (field-independent basis, Debye):
    X=              3.6490    Y=             -0.7474    Z=              0.2517  Tot=              3.7332
 Quadrupole moment (field-independent basis, Debye-Ang):
   XX=            -27.8057   YY=            -21.8164   ZZ=            -25.4915
   XY=              0.4405   XZ=             -0.8326   YZ=              0.2658

 Normal termination of Gaussian 09 at Wed Aug 26 10:55:38 2020.
