 Gaussian 09, Revision D.01,
 Gaussian 09:  ES64L-G09RevD.01 24-Apr-2013

 --------------------
 #p B2PLYPD3/Def2QZVP
 --------------------

 --------
 acrolein
 --------
 Symbolic Z-matrix:
 Charge =  0 Multiplicity = 1

                         Standard orientation:
 ---------------------------------------------------------------------
 Center     Atomic      Atomic             Coordinates (Angstroms)
 Number     Number       Type             X           Y           Z
 ---------------------------------------------------------------------
      1          6           0       -0.718013    0.392833    0.050667
      2          8           0       -1.748033   -0.179342   -0.060123
      3          6           0        0.541354   -0.417781    0.106922
      4          6           0        1.771887    0.124613   -0.062872
      5          1           0        0.534517   -1.437027   -0.005221
      6          1           0        1.757947    1.218828    0.020734
      7          1           0        2.742636   -0.446244   -0.118589
      8          1           0       -0.622207    1.501186    0.015756
 ---------------------------------------------------------------------

 SCF Done:  E(RB2PLYPD3) =  -191.602281230     A.U. after   13 cycles
 E2(B2PLYPD3) =    -0.2468971488D+00 E(B2PLYPD3) =    -0.19184917837854D+03

 The electronic state is 1-A.
 Alpha  occ. eigenvalues --  -19.73015 -10.72007 -10.65605 -10.63634  -1.21593
 Alpha  occ. eigenvalues --   -0.91798  -0.74061  -0.67430  -0.57109  -0.56017
 Alpha  occ. eigenvalues --   -0.50805  -0.47798  -0.45674  -0.34297  -0.33732
 Alpha virt. eigenvalues --   -0.01254   0.05767   0.07355   0.07728   0.09877
 Alpha virt. eigenvalues --    0.12013   0.13958   0.15325   0.18237   0.19567
 Alpha virt. eigenvalues --    0.19885   0.21048   0.24234   0.26321   0.29073

 Mulliken charges:
               1
     1  C    0.153114
     2  O   -0.322250
     3  C   -0.061179
     4  C   -0.130493
     5  H    0.108771
     6  H    0.067697
     7  H    0.101771
     8  H    0.082568
 Sum of Mulliken charges =   0.00000

 Dipole moment (field-independent basis, Debye):
    X=              3.0181    Y=              0.9424    Z=              0.0818  Tot=              3.1628
 Quadrupole moment (field-independent basis, Debye-Ang):
   XX=            -26.9865   YY=            -21.8609   ZZ=            -25.3114
   XY=             -1.8519   XZ=             -0.5947   YZ=              0.1859

 Normal termination of Gaussian 09 at Wed Aug 26 13:58:10 2020.
