 Gaussian 09, Revision D.01,
 Gaussian 09:  ES64L-G09RevD.01 24-Apr-2013

 --------------------
 #p B2PLYPD3/Def2QZVP
 --------------------

 --------
 acrolein
 --------
 Symbolic Z-matrix:
 Charge =  0 Multiplicity = 1

                         Standard orientation:
 ---------------------------------------------------------------------
 Center     Atomic      Atomic             Coordinates (Angstroms)
 Number     Number       Type             X           Y           Z
 ---------------------------------------------------------------------
      1          6           0       -0.675759    0.347609    0.021781
      2          8           0       -1.779084   -0.121780   -0.023840
      3          6           0        0.548434   -0.438053    0.012895
      4          6           0        1.750860    0.132876   -0.005611
      5          1           0        0.421446   -1.511201    0.050136
      6          1           0        1.845774    1.205843   -0.055983
      7          1           0        2.730211   -0.416692   -0.043588
      8          1           0       -0.505971    1.441699    0.065771
 ---------------------------------------------------------------------

 SCF Done:  E(RB2PLYPD3) =  -191.615629900     A.U. after   12 cycles
 E2(B2PLYPD3) =    -0.2467350141D+00 E(B2PLYPD3) =    -0.19186236491416D+03

 The electronic state is 1-A.
 Alpha  occ. eigenvalues --  -19.72815 -10.71340 -10.65854 -10.64200  -1.20225
 Alpha  occ. eigenvalues --   -0.93049  -0.75435  -0.66997  -0.56900  -0.56053
 Alpha  occ. eigenvalues --   -0.50766  -0.47263  -0.46345  -0.34745  -0.33872
 Alpha virt. eigenvalues --   -0.01727   0.05680   0.07216   0.08448   0.09729
 Alpha virt. eigenvalues --    0.12480   0.14073   0.15358   0.17575   0.19712
 Alpha virt. eigenvalues --    0.19997   0.21366   0.25581   0.26466   0.28764

 Mulliken charges:
               1
     1  C    0.155985
     2  O   -0.343637
     3  C   -0.034384
     4  C   -0.129108
     5  H    0.104874
     6  H    0.081164
     7  H    0.099421
     8  H    0.065685
 Sum of Mulliken charges =   0.00000

 Dipole moment (field-independent basis, Debye):
    X=              3.4495    Y=              0.7514    Z=              0.0582  Tot=              3.5309
 Quadrupole moment (field-independent basis, Debye-Ang):
   XX=            -27.1478   YY=            -21.9443   ZZ=            -25.1841
   XY=             -0.8466   XZ=             -0.2902   YZ=             -0.0892

 Normal termination of Gaussian 09 at Wed Aug 26 09:32:59 2020.
