 Gaussian 09, Revision D.01,
 Gaussian 09:  ES64L-G09RevD.01 24-Apr-2013

 --------------------
 #p B2PLYPD3/Def2QZVP
 --------------------

 --------
 acrolein
 --------
 Symbolic Z-matrix:
 Charge =  0 Multiplicity = 1

                         Standard orientation:
 ---------------------------------------------------------------------
 Center     Atomic      Atomic             Coordinates (Angstroms)
 Number     Number       Type             X           Y           Z
 ---------------------------------------------------------------------
      1          6           0       -0.661903    0.313444    0.067556
      2          8           0       -1.791386   -0.082468   -0.075230
      3          6           0        0.563131   -0.504813    0.048103
      4          6           0        1.760476    0.156321   -0.066242
      5          1           0        0.468590   -1.460484    0.092917
      6          1           0        1.881015    1.306642   -0.191790
      7          1           0        2.525036   -0.371848    0.083007
      8          1           0       -0.513781    1.395714    0.321208
 ---------------------------------------------------------------------

 SCF Done:  E(RB2PLYPD3) =  -191.577699168     A.U. after   13 cycles
 E2(B2PLYPD3) =    -0.2473259419D+00 E(B2PLYPD3) =    -0.19182502510999D+03

 The electronic state is 1-A.
 Alpha  occ. eigenvalues --  -19.72578 -10.71296 -10.65370 -10.63961  -1.19627
 Alpha  occ. eigenvalues --   -0.93083  -0.76611  -0.68039  -0.57628  -0.55782
 Alpha  occ. eigenvalues --   -0.50757  -0.49123  -0.46291  -0.34076  -0.33427
 Alpha virt. eigenvalues --   -0.02173   0.05742   0.07209   0.08120   0.09662
 Alpha virt. eigenvalues --    0.12581   0.14058   0.15582   0.17704   0.18515
 Alpha virt. eigenvalues --    0.20292   0.22174   0.24413   0.26778   0.28807

 Mulliken charges:
               1
     1  C    0.152358
     2  O   -0.344807
     3  C   -0.061564
     4  C   -0.127018
     5  H    0.114336
     6  H    0.090982
     7  H    0.108437
     8  H    0.067276
 Sum of Mulliken charges =   0.00000

 Dipole moment (field-independent basis, Debye):
    X=              3.5334    Y=              0.5672    Z=              0.3463  Tot=              3.5953
 Quadrupole moment (field-independent basis, Debye-Ang):
   XX=            -27.6135   YY=            -21.5522   ZZ=            -25.0976
   XY=             -0.5176   XZ=             -0.4479   YZ=             -0.3321

 Normal termination of Gaussian 09 at Wed Aug 26 12:30:02 2020.
