 Gaussian 09, Revision D.01,
 Gaussian 09:  ES64L-G09RevD.01 24-Apr-2013

 --------------------
 #p B2PLYPD3/Def2QZVP
 --------------------

 --------
 acrolein
 --------
 Symbolic Z-matrix:
 Charge =  0 Multiplicity = 1

                         Standard orientation:
 ---------------------------------------------------------------------
 Center     Atomic      Atomic             Coordinates (Angstroms)
 Number     Number       Type             X           Y           Z
 ---------------------------------------------------------------------
      1          6           0       -0.651302    0.331755   -0.026371
      2          8           0       -1.792086   -0.112600    0.035980
      3          6           0        0.569778   -0.449883   -0.032655
      4          6           0        1.732235    0.160896    0.009055
      5          1           0        0.510172   -1.530373   -0.094909
      6          1           0        1.808682    1.223803   -0.004390
      7          1           0        2.670535   -0.419920    0.169995
      8          1           0       -0.556967    1.370686   -0.058711
 ---------------------------------------------------------------------

 SCF Done:  E(RB2PLYPD3) =  -191.611221951     A.U. after   12 cycles
 E2(B2PLYPD3) =    -0.2470238546D+00 E(B2PLYPD3) =    -0.19185824580570D+03

 The electronic state is 1-A.
 Alpha  occ. eigenvalues --  -19.72388 -10.70797 -10.65485 -10.64190  -1.18377
 Alpha  occ. eigenvalues --   -0.93979  -0.75748  -0.67915  -0.57528  -0.56054
 Alpha  occ. eigenvalues --   -0.50043  -0.47260  -0.46043  -0.34978  -0.33775
 Alpha virt. eigenvalues --   -0.01822   0.05674   0.07042   0.08236   0.09664
 Alpha virt. eigenvalues --    0.12630   0.14148   0.15224   0.17632   0.19695
 Alpha virt. eigenvalues --    0.19995   0.21569   0.25459   0.26423   0.28967

 Mulliken charges:
               1
     1  C    0.143767
     2  O   -0.361056
     3  C   -0.024929
     4  C   -0.126047
     5  H    0.104178
     6  H    0.087351
     7  H    0.097035
     8  H    0.079700
 Sum of Mulliken charges =   0.00000

 Dipole moment (field-independent basis, Debye):
    X=              3.6527    Y=              0.7789    Z=             -0.0804  Tot=              3.7357
 Quadrupole moment (field-independent basis, Debye-Ang):
   XX=            -27.7403   YY=            -21.6019   ZZ=            -25.0537
   XY=             -1.0255   XZ=              0.5347   YZ=              0.0051

 Normal termination of Gaussian 09 at Wed Aug 26 08:42:12 2020.
