 Gaussian 09, Revision D.01,
 Gaussian 09:  ES64L-G09RevD.01 24-Apr-2013

 --------------------
 #p B2PLYPD3/Def2QZVP
 --------------------

 --------
 acrolein
 --------
 Symbolic Z-matrix:
 Charge =  0 Multiplicity = 1

                         Standard orientation:
 ---------------------------------------------------------------------
 Center     Atomic      Atomic             Coordinates (Angstroms)
 Number     Number       Type             X           Y           Z
 ---------------------------------------------------------------------
      1          6           0        0.674911    0.366977    0.036868
      2          8           0        1.789619   -0.141651   -0.032601
      3          6           0       -0.551939   -0.435120    0.026484
      4          6           0       -1.759671    0.134468   -0.038899
      5          1           0       -0.447220   -1.541253    0.016848
      6          1           0       -1.800047    1.185432   -0.107448
      7          1           0       -2.728685   -0.449656    0.090248
      8          1           0        0.479189    1.540740    0.114443
 ---------------------------------------------------------------------

 SCF Done:  E(RB2PLYPD3) =  -191.605538012     A.U. after   13 cycles
 E2(B2PLYPD3) =    -0.2494285661D+00 E(B2PLYPD3) =    -0.19185496657853D+03

 The electronic state is 1-A.
 Alpha  occ. eigenvalues --  -19.73277 -10.72895 -10.65840 -10.64795  -1.18850
 Alpha  occ. eigenvalues --   -0.92930  -0.75049  -0.65965  -0.55971  -0.55879
 Alpha  occ. eigenvalues --   -0.50113  -0.46552  -0.46388  -0.34618  -0.33962
 Alpha virt. eigenvalues --   -0.02226   0.05611   0.06655   0.07937   0.09833
 Alpha virt. eigenvalues --    0.12285   0.13604   0.15358   0.17063   0.19472
 Alpha virt. eigenvalues --    0.20088   0.21453   0.25324   0.26197   0.28964

 Mulliken charges:
               1
     1  C    0.157394
     2  O   -0.348540
     3  C   -0.032722
     4  C   -0.127744
     5  H    0.104444
     6  H    0.083359
     7  H    0.103845
     8  H    0.059964
 Sum of Mulliken charges =   0.00000

 Dipole moment (field-independent basis, Debye):
    X=             -3.5019    Y=              0.7664    Z=              0.1487  Tot=              3.5879
 Quadrupole moment (field-independent basis, Debye-Ang):
   XX=            -27.4687   YY=            -21.8720   ZZ=            -25.3977
   XY=              1.0621   XZ=              0.0703   YZ=             -0.1347

 Normal termination of Gaussian 09 at Wed Aug 26 21:22:36 2020.
