 Gaussian 09, Revision D.01,
 Gaussian 09:  ES64L-G09RevD.01 24-Apr-2013

 --------------------
 #p B2PLYPD3/Def2QZVP
 --------------------

 --------
 acrolein
 --------
 Symbolic Z-matrix:
 Charge =  0 Multiplicity = 1

                         Standard orientation:
 ---------------------------------------------------------------------
 Center     Atomic      Atomic             Coordinates (Angstroms)
 Number     Number       Type             X           Y           Z
 ---------------------------------------------------------------------
      1          6           0       -0.680695    0.364713    0.037634
      2          8           0       -1.757279   -0.151459   -0.064896
      3          6           0        0.517326   -0.442799    0.059535
      4          6           0        1.756633    0.160347   -0.076159
      5          1           0        0.406981   -1.447032    0.164050
      6          1           0        1.761481    1.075589   -0.097527
      7          1           0        2.933840   -0.453228    0.045640
      8          1           0       -0.603654    1.542784    0.280938
 ---------------------------------------------------------------------

 SCF Done:  E(RB2PLYPD3) =  -191.547641891     A.U. after   13 cycles
 E2(B2PLYPD3) =    -0.2493197763D+00 E(B2PLYPD3) =    -0.19179696166745D+03

 The electronic state is 1-A.
 Alpha  occ. eigenvalues --  -19.72903 -10.72276 -10.66645 -10.64519  -1.20632
 Alpha  occ. eigenvalues --   -0.92742  -0.75778  -0.67422  -0.57346  -0.54940
 Alpha  occ. eigenvalues --   -0.50337  -0.46941  -0.46559  -0.33898  -0.33745
 Alpha virt. eigenvalues --   -0.02376   0.04889   0.06493   0.07996   0.09647
 Alpha virt. eigenvalues --    0.11600   0.13891   0.15309   0.17572   0.19263
 Alpha virt. eigenvalues --    0.20070   0.21198   0.24849   0.25464   0.28265

 Mulliken charges:
               1
     1  C    0.147947
     2  O   -0.335189
     3  C   -0.036798
     4  C   -0.159504
     5  H    0.119960
     6  H    0.115919
     7  H    0.088863
     8  H    0.058803
 Sum of Mulliken charges =   0.00000

 Dipole moment (field-independent basis, Debye):
    X=              3.2506    Y=              0.7807    Z=              0.3578  Tot=              3.3622
 Quadrupole moment (field-independent basis, Debye-Ang):
   XX=            -27.0681   YY=            -22.0374   ZZ=            -25.3881
   XY=             -1.1114   XZ=             -0.2746   YZ=             -0.2577

 Normal termination of Gaussian 09 at Wed Aug 26 11:46:55 2020.
