 Gaussian 09, Revision D.01,
 Gaussian 09:  ES64L-G09RevD.01 24-Apr-2013

 --------------------
 #p B2PLYPD3/Def2QZVP
 --------------------

 --------
 acrolein
 --------
 Symbolic Z-matrix:
 Charge =  0 Multiplicity = 1

                         Standard orientation:
 ---------------------------------------------------------------------
 Center     Atomic      Atomic             Coordinates (Angstroms)
 Number     Number       Type             X           Y           Z
 ---------------------------------------------------------------------
      1          6           0       -0.675745    0.363868    0.041480
      2          8           0       -1.770866   -0.144128   -0.034789
      3          6           0        0.543121   -0.440478    0.005240
      4          6           0        1.730360    0.163340   -0.029528
      5          1           0        0.457008   -1.521722    0.042445
      6          1           0        1.812607    1.092900   -0.226356
      7          1           0        2.872471   -0.441593    0.162305
      8          1           0       -0.561574    1.503059    0.196772
 ---------------------------------------------------------------------

 SCF Done:  E(RB2PLYPD3) =  -191.574614277     A.U. after   14 cycles
 E2(B2PLYPD3) =    -0.2483848029D+00 E(B2PLYPD3) =    -0.19182299908009D+03

 The electronic state is 1-A.
 Alpha  occ. eigenvalues --  -19.72872 -10.72151 -10.66067 -10.64551  -1.19780
 Alpha  occ. eigenvalues --   -0.93262  -0.74976  -0.67354  -0.57738  -0.54832
 Alpha  occ. eigenvalues --   -0.49971  -0.47029  -0.45638  -0.34547  -0.33755
 Alpha virt. eigenvalues --   -0.01925   0.05062   0.06713   0.07817   0.09660
 Alpha virt. eigenvalues --    0.11816   0.14121   0.15345   0.17018   0.19328
 Alpha virt. eigenvalues --    0.20298   0.21404   0.24611   0.26210   0.28648

 Mulliken charges:
               1
     1  C    0.145831
     2  O   -0.343006
     3  C   -0.035176
     4  C   -0.140692
     5  H    0.115119
     6  H    0.104145
     7  H    0.080623
     8  H    0.073156
 Sum of Mulliken charges =   0.00000

 Dipole moment (field-independent basis, Debye):
    X=              3.3069    Y=              0.8683    Z=              0.1470  Tot=              3.4222
 Quadrupole moment (field-independent basis, Debye-Ang):
   XX=            -27.5883   YY=            -21.8299   ZZ=            -25.2445
   XY=             -0.9668   XZ=             -0.1434   YZ=             -0.3188

 Normal termination of Gaussian 09 at Wed Aug 26 11:37:21 2020.
