 Gaussian 09, Revision D.01,
 Gaussian 09:  ES64L-G09RevD.01 24-Apr-2013

 --------------------
 #p B2PLYPD3/Def2QZVP
 --------------------

 --------
 acrolein
 --------
 Symbolic Z-matrix:
 Charge =  0 Multiplicity = 1

                         Standard orientation:
 ---------------------------------------------------------------------
 Center     Atomic      Atomic             Coordinates (Angstroms)
 Number     Number       Type             X           Y           Z
 ---------------------------------------------------------------------
      1          6           0       -0.672526    0.347926   -0.002193
      2          8           0       -1.794521   -0.112814    0.013233
      3          6           0        0.572499   -0.466273   -0.024841
      4          6           0        1.754263    0.154648    0.002517
      5          1           0        0.463589   -1.545716   -0.011924
      6          1           0        1.823255    1.239235    0.005039
      7          1           0        2.663385   -0.398927    0.082097
      8          1           0       -0.519473    1.390109   -0.033979
 ---------------------------------------------------------------------

 SCF Done:  E(RB2PLYPD3) =  -191.615259500     A.U. after   12 cycles
 E2(B2PLYPD3) =    -0.2468766675D+00 E(B2PLYPD3) =    -0.19186213616772D+03

 The electronic state is 1-A.
 Alpha  occ. eigenvalues --  -19.72711 -10.71170 -10.65306 -10.64546  -1.19278
 Alpha  occ. eigenvalues --   -0.92849  -0.75459  -0.67672  -0.56676  -0.56361
 Alpha  occ. eigenvalues --   -0.50639  -0.47172  -0.46511  -0.34624  -0.33823
 Alpha virt. eigenvalues --   -0.01603   0.05773   0.07277   0.07959   0.09688
 Alpha virt. eigenvalues --    0.12674   0.14145   0.15350   0.17542   0.19768
 Alpha virt. eigenvalues --    0.19954   0.21635   0.25318   0.26621   0.28737

 Mulliken charges:
               1
     1  C    0.154812
     2  O   -0.351585
     3  C   -0.043892
     4  C   -0.132778
     5  H    0.105774
     6  H    0.084519
     7  H    0.101588
     8  H    0.081563
 Sum of Mulliken charges =   0.00000

 Dipole moment (field-independent basis, Debye):
    X=              3.4811    Y=              0.7908    Z=              0.0223  Tot=              3.5699
 Quadrupole moment (field-independent basis, Debye-Ang):
   XX=            -27.6374   YY=            -21.5717   ZZ=            -25.1906
   XY=             -0.8996   XZ=              0.2845   YZ=             -0.0477

 Normal termination of Gaussian 09 at Wed Aug 26 20:01:27 2020.
