 Gaussian 09, Revision D.01,
 Gaussian 09:  ES64L-G09RevD.01 24-Apr-2013

 --------------------
 #p B2PLYPD3/Def2QZVP
 --------------------

 --------
 acrolein
 --------
 Symbolic Z-matrix:
 Charge =  0 Multiplicity = 1

                         Standard orientation:
 ---------------------------------------------------------------------
 Center     Atomic      Atomic             Coordinates (Angstroms)
 Number     Number       Type             X           Y           Z
 ---------------------------------------------------------------------
      1          6           0        0.660475    0.334786    0.002930
      2          8           0        1.794115   -0.107476    0.007104
      3          6           0       -0.563495   -0.457779   -0.018817
      4          6           0       -1.751206    0.153549   -0.002089
      5          1           0       -0.439198   -1.583716   -0.001184
      6          1           0       -1.837849    1.247173    0.004255
      7          1           0       -2.678175   -0.419098    0.067734
      8          1           0        0.527653    1.432116   -0.019783
 ---------------------------------------------------------------------

 SCF Done:  E(RB2PLYPD3) =  -191.614026145     A.U. after   12 cycles
 E2(B2PLYPD3) =    -0.2478661463D+00 E(B2PLYPD3) =    -0.19186189229156D+03

 The electronic state is 1-A.
 Alpha  occ. eigenvalues --  -19.72632 -10.71445 -10.66008 -10.65092  -1.19017
 Alpha  occ. eigenvalues --   -0.93077  -0.75464  -0.66405  -0.56486  -0.56147
 Alpha  occ. eigenvalues --   -0.50145  -0.46640  -0.46517  -0.34739  -0.33741
 Alpha virt. eigenvalues --   -0.01960   0.05685   0.06824   0.08235   0.09678
 Alpha virt. eigenvalues --    0.12498   0.14053   0.15286   0.17163   0.19770
 Alpha virt. eigenvalues --    0.19947   0.21529   0.25344   0.26385   0.28791

 Mulliken charges:
               1
     1  C    0.155869
     2  O   -0.352843
     3  C   -0.033979
     4  C   -0.127589
     5  H    0.100939
     6  H    0.088498
     7  H    0.103401
     8  H    0.065705
 Sum of Mulliken charges =   0.00000

 Dipole moment (field-independent basis, Debye):
    X=             -3.5993    Y=              0.7124    Z=              0.0424  Tot=              3.6694
 Quadrupole moment (field-independent basis, Debye-Ang):
   XX=            -27.5588   YY=            -21.6776   ZZ=            -25.2988
   XY=              0.8206   XZ=             -0.2205   YZ=             -0.0489

 Normal termination of Gaussian 09 at Wed Aug 26 16:14:14 2020.
