 Gaussian 09, Revision D.01,
 Gaussian 09:  ES64L-G09RevD.01 24-Apr-2013

 --------------------
 #p B2PLYPD3/Def2QZVP
 --------------------

 --------
 acrolein
 --------
 Symbolic Z-matrix:
 Charge =  0 Multiplicity = 1

                         Standard orientation:
 ---------------------------------------------------------------------
 Center     Atomic      Atomic             Coordinates (Angstroms)
 Number     Number       Type             X           Y           Z
 ---------------------------------------------------------------------
      1          6           0       -0.671286    0.328212    0.036921
      2          8           0       -1.782174   -0.103427   -0.033911
      3          6           0        0.560482   -0.452001    0.031475
      4          6           0        1.762989    0.151854   -0.034634
      5          1           0        0.410617   -1.523160   -0.006053
      6          1           0        1.805572    1.193673   -0.103141
      7          1           0        2.647457   -0.396408    0.065316
      8          1           0       -0.519367    1.384922    0.112595
 ---------------------------------------------------------------------

 SCF Done:  E(RB2PLYPD3) =  -191.613274527     A.U. after   13 cycles
 E2(B2PLYPD3) =    -0.2459872955D+00 E(B2PLYPD3) =    -0.19185926182290D+03

 The electronic state is 1-A.
 Alpha  occ. eigenvalues --  -19.72590 -10.70648 -10.65023 -10.64370  -1.20406
 Alpha  occ. eigenvalues --   -0.93077  -0.76259  -0.67520  -0.57107  -0.56782
 Alpha  occ. eigenvalues --   -0.50990  -0.47735  -0.47167  -0.34504  -0.33626
 Alpha virt. eigenvalues --   -0.01920   0.05916   0.07398   0.08532   0.09835
 Alpha virt. eigenvalues --    0.12792   0.13962   0.15494   0.17541   0.19516
 Alpha virt. eigenvalues --    0.20172   0.21914   0.25376   0.26600   0.28848

 Mulliken charges:
               1
     1  C    0.154341
     2  O   -0.344335
     3  C   -0.034235
     4  C   -0.135236
     5  H    0.101313
     6  H    0.088145
     7  H    0.106975
     8  H    0.063034
 Sum of Mulliken charges =   0.00000

 Dipole moment (field-independent basis, Debye):
    X=              3.4623    Y=              0.7012    Z=              0.1151  Tot=              3.5345
 Quadrupole moment (field-independent basis, Debye-Ang):
   XX=            -27.2842   YY=            -21.8398   ZZ=            -25.0612
   XY=             -0.7745   XZ=             -0.1768   YZ=             -0.1077

 Normal termination of Gaussian 09 at Wed Aug 26 08:47:26 2020.
