 Gaussian 09, Revision D.01,
 Gaussian 09:  ES64L-G09RevD.01 24-Apr-2013

 --------------------
 #p B2PLYPD3/Def2QZVP
 --------------------

 --------
 acrolein
 --------
 Symbolic Z-matrix:
 Charge =  0 Multiplicity = 1

                         Standard orientation:
 ---------------------------------------------------------------------
 Center     Atomic      Atomic             Coordinates (Angstroms)
 Number     Number       Type             X           Y           Z
 ---------------------------------------------------------------------
      1          6           0        0.664129    0.375548    0.044797
      2          8           0        1.779000   -0.135453   -0.041538
      3          6           0       -0.557009   -0.445109    0.061400
      4          6           0       -1.751373    0.128582   -0.040048
      5          1           0       -0.403183   -1.508505   -0.000643
      6          1           0       -1.825406    1.239157    0.004293
      7          1           0       -2.677786   -0.438009   -0.075036
      8          1           0        0.539897    1.436848    0.006797
 ---------------------------------------------------------------------

 SCF Done:  E(RB2PLYPD3) =  -191.613366047     A.U. after   12 cycles
 E2(B2PLYPD3) =    -0.2478943485D+00 E(B2PLYPD3) =    -0.19186126039526D+03

 The electronic state is 1-A.
 Alpha  occ. eigenvalues --  -19.72704 -10.71456 -10.65719 -10.64292  -1.18408
 Alpha  occ. eigenvalues --   -0.92990  -0.75385  -0.67531  -0.56376  -0.56319
 Alpha  occ. eigenvalues --   -0.50396  -0.46504  -0.46175  -0.34654  -0.33957
 Alpha virt. eigenvalues --   -0.01828   0.05652   0.07252   0.07741   0.09789
 Alpha virt. eigenvalues --    0.12363   0.13895   0.15322   0.17639   0.19612
 Alpha virt. eigenvalues --    0.19892   0.21582   0.24992   0.26749   0.29092

 Mulliken charges:
               1
     1  C    0.157885
     2  O   -0.361566
     3  C   -0.047460
     4  C   -0.126600
     5  H    0.112151
     6  H    0.078556
     7  H    0.102289
     8  H    0.084743
 Sum of Mulliken charges =   0.00000

 Dipole moment (field-independent basis, Debye):
    X=             -3.4927    Y=              0.8768    Z=              0.0814  Tot=              3.6020
 Quadrupole moment (field-independent basis, Debye-Ang):
   XX=            -27.6221   YY=            -21.5672   ZZ=            -25.2445
   XY=              1.1044   XZ=              0.3796   YZ=              0.0947

 Normal termination of Gaussian 09 at Wed Aug 26 09:20:39 2020.
