 Gaussian 09, Revision D.01,
 Gaussian 09:  ES64L-G09RevD.01 24-Apr-2013

 --------------------
 #p B2PLYPD3/Def2QZVP
 --------------------

 --------
 acrolein
 --------
 Symbolic Z-matrix:
 Charge =  0 Multiplicity = 1

                         Standard orientation:
 ---------------------------------------------------------------------
 Center     Atomic      Atomic             Coordinates (Angstroms)
 Number     Number       Type             X           Y           Z
 ---------------------------------------------------------------------
      1          6           0       -0.635840    0.311647   -0.060712
      2          8           0       -1.811460   -0.072354    0.051615
      3          6           0        0.583984   -0.491856   -0.040063
      4          6           0        1.735462    0.143356   -0.004172
      5          1           0        0.383453   -1.601744   -0.020358
      6          1           0        1.895415    1.343508    0.103921
      7          1           0        2.578273   -0.350349    0.188233
      8          1           0       -0.467098    1.408530   -0.055038
 ---------------------------------------------------------------------

 SCF Done:  E(RB2PLYPD3) =  -191.591246958     A.U. after   13 cycles
 E2(B2PLYPD3) =    -0.2494259682D+00 E(B2PLYPD3) =    -0.19184067292615D+03

 The electronic state is 1-A.
 Alpha  occ. eigenvalues --  -19.72693 -10.71648 -10.66096 -10.65386  -1.17475
 Alpha  occ. eigenvalues --   -0.93973  -0.76298  -0.66069  -0.57641  -0.54904
 Alpha  occ. eigenvalues --   -0.50148  -0.45960  -0.45769  -0.35252  -0.33614
 Alpha virt. eigenvalues --   -0.02224   0.05215   0.06864   0.07879   0.09549
 Alpha virt. eigenvalues --    0.12418   0.14101   0.15028   0.16985   0.19359
 Alpha virt. eigenvalues --    0.19756   0.22219   0.24646   0.26786   0.28300

 Mulliken charges:
               1
     1  C    0.165581
     2  O   -0.368219
     3  C   -0.037529
     4  C   -0.106393
     5  H    0.104141
     6  H    0.077420
     7  H    0.103275
     8  H    0.061725
 Sum of Mulliken charges =   0.00000

 Dipole moment (field-independent basis, Debye):
    X=              3.7855    Y=              0.5487    Z=              0.0223  Tot=              3.8251
 Quadrupole moment (field-independent basis, Debye-Ang):
   XX=            -27.8913   YY=            -21.6360   ZZ=            -25.2384
   XY=             -0.3123   XZ=              0.8680   YZ=              0.0634

 Normal termination of Gaussian 09 at Wed Aug 26 13:54:06 2020.
