 Gaussian 09, Revision D.01,
 Gaussian 09:  ES64L-G09RevD.01 24-Apr-2013

 --------------------
 #p B2PLYPD3/Def2QZVP
 --------------------

 --------
 acrolein
 --------
 Symbolic Z-matrix:
 Charge =  0 Multiplicity = 1

                         Standard orientation:
 ---------------------------------------------------------------------
 Center     Atomic      Atomic             Coordinates (Angstroms)
 Number     Number       Type             X           Y           Z
 ---------------------------------------------------------------------
      1          6           0       -0.684630    0.358229    0.018881
      2          8           0       -1.782994   -0.127883   -0.009824
      3          6           0        0.559886   -0.443019    0.010361
      4          6           0        1.763416    0.140881   -0.008382
      5          1           0        0.447288   -1.548832   -0.011339
      6          1           0        1.840322    1.196623    0.004319
      7          1           0        2.660162   -0.418296   -0.010066
      8          1           0       -0.515855    1.457024   -0.029477
 ---------------------------------------------------------------------

 SCF Done:  E(RB2PLYPD3) =  -191.615879212     A.U. after   12 cycles
 E2(B2PLYPD3) =    -0.2467614162D+00 E(B2PLYPD3) =    -0.19186264062844D+03

 The electronic state is 1-A.
 Alpha  occ. eigenvalues --  -19.72949 -10.71701 -10.64868 -10.64625  -1.20181
 Alpha  occ. eigenvalues --   -0.92672  -0.75514  -0.66696  -0.56632  -0.56595
 Alpha  occ. eigenvalues --   -0.50874  -0.47108  -0.46781  -0.34562  -0.33851
 Alpha virt. eigenvalues --   -0.01610   0.05866   0.07137   0.08187   0.09775
 Alpha virt. eigenvalues --    0.12639   0.14085   0.15412   0.17307   0.19827
 Alpha virt. eigenvalues --    0.20021   0.21845   0.25486   0.26452   0.28646

 Mulliken charges:
               1
     1  C    0.157179
     2  O   -0.340328
     3  C   -0.040693
     4  C   -0.135271
     5  H    0.100743
     6  H    0.083557
     7  H    0.104626
     8  H    0.070187
 Sum of Mulliken charges =   0.00000

 Dipole moment (field-independent basis, Debye):
    X=              3.3791    Y=              0.7895    Z=              0.0181  Tot=              3.4701
 Quadrupole moment (field-independent basis, Debye-Ang):
   XX=            -27.3158   YY=            -21.7626   ZZ=            -25.2180
   XY=             -0.9610   XZ=             -0.0669   YZ=              0.0208

 Normal termination of Gaussian 09 at Wed Aug 26 18:41:52 2020.
