 Gaussian 09, Revision D.01,
 Gaussian 09:  ES64L-G09RevD.01 24-Apr-2013

 --------------------
 #p B2PLYPD3/Def2QZVP
 --------------------

 --------
 acrolein
 --------
 Symbolic Z-matrix:
 Charge =  0 Multiplicity = 1

                         Standard orientation:
 ---------------------------------------------------------------------
 Center     Atomic      Atomic             Coordinates (Angstroms)
 Number     Number       Type             X           Y           Z
 ---------------------------------------------------------------------
      1          6           0       -0.674130    0.356685    0.002900
      2          8           0       -1.784497   -0.130189   -0.009391
      3          6           0        0.553151   -0.439393    0.005788
      4          6           0        1.762449    0.129085   -0.016023
      5          1           0        0.422083   -1.503896    0.034002
      6          1           0        1.843083    1.220274   -0.025779
      7          1           0        2.660093   -0.448182    0.036824
      8          1           0       -0.498100    1.495054    0.074097
 ---------------------------------------------------------------------

 SCF Done:  E(RB2PLYPD3) =  -191.614971709     A.U. after   12 cycles
 E2(B2PLYPD3) =    -0.2476817710D+00 E(B2PLYPD3) =    -0.19186265348027D+03

 The electronic state is 1-A.
 Alpha  occ. eigenvalues --  -19.73011 -10.72069 -10.65538 -10.64288  -1.19558
 Alpha  occ. eigenvalues --   -0.92978  -0.75526  -0.66459  -0.56707  -0.56044
 Alpha  occ. eigenvalues --   -0.50651  -0.47016  -0.46745  -0.34636  -0.33877
 Alpha virt. eigenvalues --   -0.01923   0.05745   0.07078   0.08239   0.09810
 Alpha virt. eigenvalues --    0.12466   0.13784   0.15378   0.17431   0.19583
 Alpha virt. eigenvalues --    0.19999   0.21704   0.25473   0.26425   0.28754

 Mulliken charges:
               1
     1  C    0.160774
     2  O   -0.346868
     3  C   -0.038443
     4  C   -0.130603
     5  H    0.105706
     6  H    0.083476
     7  H    0.105632
     8  H    0.060327
 Sum of Mulliken charges =   0.00000

 Dipole moment (field-independent basis, Debye):
    X=              3.4757    Y=              0.7220    Z=              0.0877  Tot=              3.5510
 Quadrupole moment (field-independent basis, Debye-Ang):
   XX=            -27.3652   YY=            -21.8405   ZZ=            -25.2563
   XY=             -0.9600   XZ=              0.0243   YZ=             -0.0661

 Normal termination of Gaussian 09 at Wed Aug 26 18:32:09 2020.
