 Gaussian 09, Revision D.01,
 Gaussian 09:  ES64L-G09RevD.01 24-Apr-2013

 --------------------
 #p B2PLYPD3/Def2QZVP
 --------------------

 --------
 acrolein
 --------
 Symbolic Z-matrix:
 Charge =  0 Multiplicity = 1

                         Standard orientation:
 ---------------------------------------------------------------------
 Center     Atomic      Atomic             Coordinates (Angstroms)
 Number     Number       Type             X           Y           Z
 ---------------------------------------------------------------------
      1          6           0        0.666560    0.335290    0.008230
      2          8           0        1.794430   -0.107284   -0.007986
      3          6           0       -0.562317   -0.464359    0.005193
      4          6           0       -1.749905    0.152071   -0.012375
      5          1           0       -0.451949   -1.531286   -0.004598
      6          1           0       -1.854981    1.242487   -0.047589
      7          1           0       -2.684894   -0.415259    0.055416
      8          1           0        0.510360    1.424317    0.054375
 ---------------------------------------------------------------------

 SCF Done:  E(RB2PLYPD3) =  -191.616194463     A.U. after   13 cycles
 E2(B2PLYPD3) =    -0.2472978162D+00 E(B2PLYPD3) =    -0.19186349227966D+03

 The electronic state is 1-A.
 Alpha  occ. eigenvalues --  -19.72680 -10.71387 -10.65962 -10.64517  -1.19343
 Alpha  occ. eigenvalues --   -0.93014  -0.75349  -0.67130  -0.56523  -0.56228
 Alpha  occ. eigenvalues --   -0.50426  -0.47124  -0.46640  -0.34670  -0.33729
 Alpha virt. eigenvalues --   -0.01848   0.05683   0.07165   0.08185   0.09675
 Alpha virt. eigenvalues --    0.12546   0.14026   0.15342   0.17553   0.19578
 Alpha virt. eigenvalues --    0.20055   0.21486   0.25339   0.26489   0.28679

 Mulliken charges:
               1
     1  C    0.154972
     2  O   -0.350686
     3  C   -0.038573
     4  C   -0.128515
     5  H    0.107550
     6  H    0.087871
     7  H    0.099293
     8  H    0.068088
 Sum of Mulliken charges =   0.00000

 Dipole moment (field-independent basis, Debye):
    X=             -3.5615    Y=              0.7063    Z=              0.0481  Tot=              3.6312
 Quadrupole moment (field-independent basis, Debye-Ang):
   XX=            -27.5010   YY=            -21.7090   ZZ=            -25.2340
   XY=              0.7667   XZ=             -0.0153   YZ=             -0.0594

 Normal termination of Gaussian 09 at Wed Aug 26 09:29:22 2020.
