 Gaussian 09, Revision D.01,
 Gaussian 09:  ES64L-G09RevD.01 24-Apr-2013

 --------------------
 #p B2PLYPD3/Def2QZVP
 --------------------

 --------
 acrolein
 --------
 Symbolic Z-matrix:
 Charge =  0 Multiplicity = 1

                         Standard orientation:
 ---------------------------------------------------------------------
 Center     Atomic      Atomic             Coordinates (Angstroms)
 Number     Number       Type             X           Y           Z
 ---------------------------------------------------------------------
      1          6           0        0.681753    0.369407   -0.006686
      2          8           0        1.776328   -0.144889    0.016485
      3          6           0       -0.545588   -0.420721   -0.049119
      4          6           0       -1.767296    0.110966    0.008891
      5          1           0       -0.438063   -1.478217    0.049600
      6          1           0       -1.844337    1.202539    0.008504
      7          1           0       -2.676765   -0.417538    0.088727
      8          1           0        0.535324    1.494415    0.002779
 ---------------------------------------------------------------------

 SCF Done:  E(RB2PLYPD3) =  -191.614064155     A.U. after   12 cycles
 E2(B2PLYPD3) =    -0.2472315404D+00 E(B2PLYPD3) =    -0.19186129569568D+03

 The electronic state is 1-A.
 Alpha  occ. eigenvalues --  -19.72974 -10.71949 -10.65261 -10.64048  -1.19784
 Alpha  occ. eigenvalues --   -0.92949  -0.75735  -0.66778  -0.57071  -0.56289
 Alpha  occ. eigenvalues --   -0.51025  -0.47039  -0.46158  -0.34598  -0.34037
 Alpha virt. eigenvalues --   -0.01896   0.05777   0.07261   0.08247   0.09796
 Alpha virt. eigenvalues --    0.12380   0.14024   0.15348   0.17664   0.19707
 Alpha virt. eigenvalues --    0.19849   0.21718   0.25296   0.26417   0.28976

 Mulliken charges:
               1
     1  C    0.156790
     2  O   -0.344427
     3  C   -0.040374
     4  C   -0.125579
     5  H    0.105551
     6  H    0.072658
     7  H    0.105815
     8  H    0.069566
 Sum of Mulliken charges =   0.00000

 Dipole moment (field-independent basis, Debye):
    X=             -3.4330    Y=              0.8167    Z=              0.0932  Tot=              3.5300
 Quadrupole moment (field-independent basis, Debye-Ang):
   XX=            -27.1002   YY=            -21.9446   ZZ=            -25.1844
   XY=              1.1613   XZ=             -0.3664   YZ=             -0.1372

 Normal termination of Gaussian 09 at Wed Aug 26 09:18:10 2020.
