 Gaussian 09, Revision D.01,
 Gaussian 09:  ES64L-G09RevD.01 24-Apr-2013

 --------------------
 #p B2PLYPD3/Def2QZVP
 --------------------

 --------
 acrolein
 --------
 Symbolic Z-matrix:
 Charge =  0 Multiplicity = 1

                         Standard orientation:
 ---------------------------------------------------------------------
 Center     Atomic      Atomic             Coordinates (Angstroms)
 Number     Number       Type             X           Y           Z
 ---------------------------------------------------------------------
      1          6           0        0.647443    0.332347    0.049354
      2          8           0        1.805451   -0.104423   -0.036509
      3          6           0       -0.593385   -0.499524   -0.003590
      4          6           0       -1.746065    0.175329   -0.009725
      5          1           0       -0.548159   -1.574027    0.075823
      6          1           0       -1.748046    1.304647   -0.134329
      7          1           0       -2.532863   -0.366660    0.014503
      8          1           0        0.537509    1.422509    0.119838
 ---------------------------------------------------------------------

 SCF Done:  E(RB2PLYPD3) =  -191.594836536     A.U. after   13 cycles
 E2(B2PLYPD3) =    -0.2486216582D+00 E(B2PLYPD3) =    -0.19184345819395D+03

 The electronic state is 1-A.
 Alpha  occ. eigenvalues --  -19.72593 -10.71941 -10.64900 -10.64627  -1.17522
 Alpha  occ. eigenvalues --   -0.93546  -0.75820  -0.67088  -0.57832  -0.55426
 Alpha  occ. eigenvalues --   -0.49711  -0.48147  -0.45502  -0.34659  -0.33679
 Alpha virt. eigenvalues --   -0.01822   0.05786   0.06928   0.07350   0.09659
 Alpha virt. eigenvalues --    0.12649   0.14197   0.15107   0.17236   0.19479
 Alpha virt. eigenvalues --    0.20241   0.21991   0.24643   0.26321   0.28971

 Mulliken charges:
               1
     1  C    0.150824
     2  O   -0.361270
     3  C   -0.042844
     4  C   -0.129389
     5  H    0.102645
     6  H    0.092393
     7  H    0.106321
     8  H    0.081320
 Sum of Mulliken charges =   0.00000

 Dipole moment (field-independent basis, Debye):
    X=             -3.6434    Y=              0.7013    Z=              0.1570  Tot=              3.7136
 Quadrupole moment (field-independent basis, Debye-Ang):
   XX=            -28.2186   YY=            -21.2327   ZZ=            -25.2265
   XY=              1.0807   XZ=              0.2925   YZ=             -0.2529

 Normal termination of Gaussian 09 at Wed Aug 26 14:18:18 2020.
