 Gaussian 09, Revision D.01,
 Gaussian 09:  ES64L-G09RevD.01 24-Apr-2013

 --------------------
 #p B2PLYPD3/Def2QZVP
 --------------------

 --------
 acrolein
 --------
 Symbolic Z-matrix:
 Charge =  0 Multiplicity = 1

                         Standard orientation:
 ---------------------------------------------------------------------
 Center     Atomic      Atomic             Coordinates (Angstroms)
 Number     Number       Type             X           Y           Z
 ---------------------------------------------------------------------
      1          6           0        0.649910   -0.329783   -0.025746
      2          8           0        1.801706    0.080806    0.034846
      3          6           0       -0.593754    0.488939   -0.055966
      4          6           0       -1.730663   -0.153128    0.035593
      5          1           0       -0.428776    1.698225   -0.022104
      6          1           0       -1.930821   -1.345030   -0.037384
      7          1           0       -2.552425    0.332769    0.111248
      8          1           0        0.545411   -1.368585   -0.053816
 ---------------------------------------------------------------------

 SCF Done:  E(RB2PLYPD3) =  -191.577193671     A.U. after   13 cycles
 E2(B2PLYPD3) =    -0.2480495724D+00 E(B2PLYPD3) =    -0.19182524324354D+03

 The electronic state is 1-A.
 Alpha  occ. eigenvalues --  -19.72445 -10.70997 -10.65979 -10.65140  -1.18411
 Alpha  occ. eigenvalues --   -0.93524  -0.76185  -0.66369  -0.57365  -0.55258
 Alpha  occ. eigenvalues --   -0.50359  -0.46121  -0.45209  -0.35237  -0.33575
 Alpha virt. eigenvalues --   -0.01406   0.05264   0.06503   0.07890   0.09451
 Alpha virt. eigenvalues --    0.12341   0.14318   0.15266   0.16699   0.19418
 Alpha virt. eigenvalues --    0.20048   0.22306   0.24849   0.26304   0.28308

 Mulliken charges:
               1
     1  C    0.161619
     2  O   -0.358425
     3  C   -0.047869
     4  C   -0.116973
     5  H    0.096225
     6  H    0.079787
     7  H    0.106762
     8  H    0.078874
 Sum of Mulliken charges =   0.00000

 Dipole moment (field-independent basis, Debye):
    X=             -3.6496    Y=             -0.6902    Z=             -0.0825  Tot=              3.7152
 Quadrupole moment (field-independent basis, Debye-Ang):
   XX=            -27.7456   YY=            -21.3550   ZZ=            -25.2597
   XY=             -0.4847   XZ=             -0.3845   YZ=              0.1212

 Normal termination of Gaussian 09 at Wed Aug 26 10:47:26 2020.
