 Gaussian 09, Revision D.01,
 Gaussian 09:  ES64L-G09RevD.01 24-Apr-2013

 --------------------
 #p B2PLYPD3/Def2QZVP
 --------------------

 --------
 acrolein
 --------
 Symbolic Z-matrix:
 Charge =  0 Multiplicity = 1

                         Standard orientation:
 ---------------------------------------------------------------------
 Center     Atomic      Atomic             Coordinates (Angstroms)
 Number     Number       Type             X           Y           Z
 ---------------------------------------------------------------------
      1          6           0       -0.664230    0.361267   -0.072826
      2          8           0       -1.776445   -0.133784    0.079546
      3          6           0        0.573216   -0.450793   -0.087145
      4          6           0        1.731782    0.174928    0.056025
      5          1           0        0.479543   -1.542023   -0.150142
      6          1           0        1.760648    1.169346   -0.075523
      7          1           0        2.728401   -0.446902    0.267536
      8          1           0       -0.601639    1.377436   -0.054566
 ---------------------------------------------------------------------

 SCF Done:  E(RB2PLYPD3) =  -191.595314613     A.U. after   14 cycles
 E2(B2PLYPD3) =    -0.2476048380D+00 E(B2PLYPD3) =    -0.19184291945107D+03

 The electronic state is 1-A.
 Alpha  occ. eigenvalues --  -19.72429 -10.70908 -10.65464 -10.64590  -1.18429
 Alpha  occ. eigenvalues --   -0.93359  -0.75143  -0.68554  -0.57944  -0.55024
 Alpha  occ. eigenvalues --   -0.49953  -0.47305  -0.45765  -0.34477  -0.33817
 Alpha virt. eigenvalues --   -0.01525   0.05544   0.06892   0.07643   0.09737
 Alpha virt. eigenvalues --    0.12305   0.14024   0.15248   0.17528   0.19550
 Alpha virt. eigenvalues --    0.20727   0.21193   0.24570   0.26609   0.29155

 Mulliken charges:
               1
     1  C    0.144654
     2  O   -0.360774
     3  C   -0.030960
     4  C   -0.142275
     5  H    0.108672
     6  H    0.096792
     7  H    0.095075
     8  H    0.088816
 Sum of Mulliken charges =   0.00000

 Dipole moment (field-independent basis, Debye):
    X=              3.4473    Y=              0.9068    Z=             -0.2656  Tot=              3.5745
 Quadrupole moment (field-independent basis, Debye-Ang):
   XX=            -27.9078   YY=            -21.4516   ZZ=            -25.1215
   XY=             -1.2761   XZ=              0.8173   YZ=             -0.0964

 Normal termination of Gaussian 09 at Wed Aug 26 12:16:35 2020.
