 Gaussian 09, Revision D.01,
 Gaussian 09:  ES64L-G09RevD.01 24-Apr-2013

 --------------------
 #p B2PLYPD3/Def2QZVP
 --------------------

 --------
 acrolein
 --------
 Symbolic Z-matrix:
 Charge =  0 Multiplicity = 1

                         Standard orientation:
 ---------------------------------------------------------------------
 Center     Atomic      Atomic             Coordinates (Angstroms)
 Number     Number       Type             X           Y           Z
 ---------------------------------------------------------------------
      1          6           0       -0.649083    0.326852   -0.019253
      2          8           0       -1.797653   -0.097847    0.012849
      3          6           0        0.556194   -0.470115   -0.018636
      4          6           0        1.753600    0.152004   -0.008336
      5          1           0        0.456082   -1.544834    0.040730
      6          1           0        1.857984    1.288727    0.046259
      7          1           0        2.621201   -0.427865    0.063887
      8          1           0       -0.518310    1.414303    0.023680
 ---------------------------------------------------------------------

 SCF Done:  E(RB2PLYPD3) =  -191.610784827     A.U. after   13 cycles
 E2(B2PLYPD3) =    -0.2482537246D+00 E(B2PLYPD3) =    -0.19185903855202D+03

 The electronic state is 1-A.
 Alpha  occ. eigenvalues --  -19.72426 -10.71191 -10.66303 -10.64791  -1.18400
 Alpha  occ. eigenvalues --   -0.93234  -0.75946  -0.66902  -0.56612  -0.56153
 Alpha  occ. eigenvalues --   -0.49919  -0.47395  -0.46216  -0.34529  -0.33679
 Alpha virt. eigenvalues --   -0.02306   0.05603   0.06976   0.08205   0.09647
 Alpha virt. eigenvalues --    0.12510   0.14007   0.15249   0.17498   0.19442
 Alpha virt. eigenvalues --    0.20015   0.21745   0.25102   0.26468   0.28786

 Mulliken charges:
               1
     1  C    0.154437
     2  O   -0.360209
     3  C   -0.037053
     4  C   -0.125163
     5  H    0.106568
     6  H    0.089253
     7  H    0.104245
     8  H    0.067922
 Sum of Mulliken charges =   0.00000

 Dipole moment (field-independent basis, Debye):
    X=              3.7206    Y=              0.6594    Z=              0.0906  Tot=              3.7796
 Quadrupole moment (field-independent basis, Debye-Ang):
   XX=            -27.7140   YY=            -21.5587   ZZ=            -25.2694
   XY=             -0.8020   XZ=              0.3161   YZ=             -0.0309

 Normal termination of Gaussian 09 at Wed Aug 26 08:59:50 2020.
