 Gaussian 09, Revision D.01,
 Gaussian 09:  ES64L-G09RevD.01 24-Apr-2013

 --------------------
 #p B2PLYPD3/Def2QZVP
 --------------------

 --------
 acrolein
 --------
 Symbolic Z-matrix:
 Charge =  0 Multiplicity = 1

                         Standard orientation:
 ---------------------------------------------------------------------
 Center     Atomic      Atomic             Coordinates (Angstroms)
 Number     Number       Type             X           Y           Z
 ---------------------------------------------------------------------
      1          6           0       -0.661243    0.359607   -0.025863
      2          8           0       -1.780378   -0.131425    0.037894
      3          6           0        0.563353   -0.433220   -0.050960
      4          6           0        1.735515    0.128828    0.040532
      5          1           0        0.468766   -1.481503   -0.089942
      6          1           0        1.854301    1.251320   -0.055700
      7          1           0        2.620476   -0.460180    0.115818
      8          1           0       -0.526265    1.410476   -0.055583
 ---------------------------------------------------------------------

 SCF Done:  E(RB2PLYPD3) =  -191.611719275     A.U. after   13 cycles
 E2(B2PLYPD3) =    -0.2467930590D+00 E(B2PLYPD3) =    -0.19185851233418D+03

 The electronic state is 1-A.
 Alpha  occ. eigenvalues --  -19.72665 -10.71149 -10.65250 -10.63502  -1.18669
 Alpha  occ. eigenvalues --   -0.93877  -0.75784  -0.67657  -0.56864  -0.56547
 Alpha  occ. eigenvalues --   -0.50642  -0.46958  -0.46009  -0.35023  -0.33961
 Alpha virt. eigenvalues --   -0.01590   0.05679   0.07177   0.08219   0.09721
 Alpha virt. eigenvalues --    0.12511   0.14046   0.15292   0.17752   0.19524
 Alpha virt. eigenvalues --    0.19944   0.21820   0.25398   0.26617   0.28658

 Mulliken charges:
               1
     1  C    0.154706
     2  O   -0.358783
     3  C   -0.038845
     4  C   -0.125926
     5  H    0.106409
     6  H    0.079183
     7  H    0.100201
     8  H    0.083055
 Sum of Mulliken charges =   0.00000

 Dipole moment (field-independent basis, Debye):
    X=              3.5268    Y=              0.8140    Z=             -0.1643  Tot=              3.6232
 Quadrupole moment (field-independent basis, Debye-Ang):
   XX=            -27.6560   YY=            -21.6169   ZZ=            -25.0452
   XY=             -1.1338   XZ=              0.3290   YZ=             -0.0737

 Normal termination of Gaussian 09 at Wed Aug 26 08:47:24 2020.
