 Gaussian 09, Revision D.01,
 Gaussian 09:  ES64L-G09RevD.01 24-Apr-2013

 --------------------
 #p B2PLYPD3/Def2QZVP
 --------------------

 --------
 acrolein
 --------
 Symbolic Z-matrix:
 Charge =  0 Multiplicity = 1

                         Standard orientation:
 ---------------------------------------------------------------------
 Center     Atomic      Atomic             Coordinates (Angstroms)
 Number     Number       Type             X           Y           Z
 ---------------------------------------------------------------------
      1          6           0       -0.667722    0.340766    0.021912
      2          8           0       -1.787087   -0.113768   -0.018813
      3          6           0        0.562795   -0.446611   -0.001884
      4          6           0        1.762808    0.145910   -0.005399
      5          1           0        0.422173   -1.561490    0.061062
      6          1           0        1.827248    1.222950   -0.043983
      7          1           0        2.646064   -0.413910   -0.011962
      8          1           0       -0.546079    1.422209    0.057614
 ---------------------------------------------------------------------

 SCF Done:  E(RB2PLYPD3) =  -191.614758022     A.U. after   12 cycles
 E2(B2PLYPD3) =    -0.2469833474D+00 E(B2PLYPD3) =    -0.19186174136896D+03

 The electronic state is 1-A.
 Alpha  occ. eigenvalues --  -19.72635 -10.71181 -10.65273 -10.64860  -1.19539
 Alpha  occ. eigenvalues --   -0.93014  -0.75940  -0.66727  -0.56764  -0.56643
 Alpha  occ. eigenvalues --   -0.50633  -0.46997  -0.46576  -0.34644  -0.33783
 Alpha virt. eigenvalues --   -0.01875   0.05834   0.07054   0.08339   0.09741
 Alpha virt. eigenvalues --    0.12621   0.14071   0.15299   0.17276   0.19761
 Alpha virt. eigenvalues --    0.20021   0.21835   0.25368   0.26500   0.28903

 Mulliken charges:
               1
     1  C    0.156013
     2  O   -0.349116
     3  C   -0.035573
     4  C   -0.132618
     5  H    0.098880
     6  H    0.086935
     7  H    0.107755
     8  H    0.067724
 Sum of Mulliken charges =   0.00000

 Dipole moment (field-independent basis, Debye):
    X=              3.5158    Y=              0.7480    Z=              0.0931  Tot=              3.5957
 Quadrupole moment (field-independent basis, Debye-Ang):
   XX=            -27.4162   YY=            -21.7255   ZZ=            -25.1991
   XY=             -0.9117   XZ=             -0.1596   YZ=             -0.1220

 Normal termination of Gaussian 09 at Wed Aug 26 16:05:00 2020.
