 Gaussian 09, Revision D.01,
 Gaussian 09:  ES64L-G09RevD.01 24-Apr-2013

 --------------------
 #p B2PLYPD3/Def2QZVP
 --------------------

 --------
 acrolein
 --------
 Symbolic Z-matrix:
 Charge =  0 Multiplicity = 1

                         Standard orientation:
 ---------------------------------------------------------------------
 Center     Atomic      Atomic             Coordinates (Angstroms)
 Number     Number       Type             X           Y           Z
 ---------------------------------------------------------------------
      1          6           0       -0.678198    0.347782    0.040228
      2          8           0       -1.781336   -0.105655   -0.038240
      3          6           0        0.553515   -0.478289    0.043484
      4          6           0        1.751484    0.141711   -0.028423
      5          1           0        0.439332   -1.579902    0.019830
      6          1           0        1.881414    1.305361   -0.015775
      7          1           0        2.667137   -0.388264   -0.069788
      8          1           0       -0.497998    1.440822    0.039919
 ---------------------------------------------------------------------

 SCF Done:  E(RB2PLYPD3) =  -191.610343538     A.U. after   12 cycles
 E2(B2PLYPD3) =    -0.2473648650D+00 E(B2PLYPD3) =    -0.19185770840344D+03

 The electronic state is 1-A.
 Alpha  occ. eigenvalues --  -19.72752 -10.71459 -10.66263 -10.65027  -1.20431
 Alpha  occ. eigenvalues --   -0.92128  -0.74888  -0.66420  -0.56617  -0.55579
 Alpha  occ. eigenvalues --   -0.50731  -0.47179  -0.46199  -0.34409  -0.33708
 Alpha virt. eigenvalues --   -0.01521   0.05590   0.07083   0.08053   0.09592
 Alpha virt. eigenvalues --    0.12354   0.14168   0.15411   0.17366   0.19438
 Alpha virt. eigenvalues --    0.19967   0.21473   0.25146   0.26548   0.28620

 Mulliken charges:
               1
     1  C    0.162288
     2  O   -0.338383
     3  C   -0.051565
     4  C   -0.127876
     5  H    0.105854
     6  H    0.077287
     7  H    0.102753
     8  H    0.069642
 Sum of Mulliken charges =   0.00000

 Dipole moment (field-independent basis, Debye):
    X=              3.3960    Y=              0.6922    Z=              0.0843  Tot=              3.4668
 Quadrupole moment (field-independent basis, Debye-Ang):
   XX=            -27.3752   YY=            -21.6494   ZZ=            -25.3725
   XY=             -0.7304   XZ=             -0.3811   YZ=              0.0248

 Normal termination of Gaussian 09 at Wed Aug 26 10:47:01 2020.
