 Gaussian 09, Revision D.01,
 Gaussian 09:  ES64L-G09RevD.01 24-Apr-2013

 --------------------
 #p B2PLYPD3/Def2QZVP
 --------------------

 --------
 acrolein
 --------
 Symbolic Z-matrix:
 Charge =  0 Multiplicity = 1

                         Standard orientation:
 ---------------------------------------------------------------------
 Center     Atomic      Atomic             Coordinates (Angstroms)
 Number     Number       Type             X           Y           Z
 ---------------------------------------------------------------------
      1          6           0        0.651751    0.338058    0.040556
      2          8           0        1.799279   -0.109051   -0.030662
      3          6           0       -0.590983   -0.473917    0.019458
      4          6           0       -1.731841    0.152809   -0.037988
      5          1           0       -0.509340   -1.545949    0.013531
      6          1           0       -1.820424    1.270661   -0.072467
      7          1           0       -2.579622   -0.357020    0.083683
      8          1           0        0.541596    1.403016    0.088397
 ---------------------------------------------------------------------

 SCF Done:  E(RB2PLYPD3) =  -191.605909820     A.U. after   13 cycles
 E2(B2PLYPD3) =    -0.2472008075D+00 E(B2PLYPD3) =    -0.19185311062705D+03

 The electronic state is 1-A.
 Alpha  occ. eigenvalues --  -19.72635 -10.71492 -10.64446 -10.64235  -1.17987
 Alpha  occ. eigenvalues --   -0.93994  -0.75839  -0.67480  -0.57376  -0.56417
 Alpha  occ. eigenvalues --   -0.50406  -0.47193  -0.45840  -0.35187  -0.33731
 Alpha virt. eigenvalues --   -0.01593   0.05784   0.07146   0.07880   0.09682
 Alpha virt. eigenvalues --    0.12671   0.14273   0.15377   0.17352   0.19372
 Alpha virt. eigenvalues --    0.20111   0.22122   0.25338   0.26467   0.28869

 Mulliken charges:
               1
     1  C    0.149902
     2  O   -0.360353
     3  C   -0.040717
     4  C   -0.117025
     5  H    0.105678
     6  H    0.079020
     7  H    0.100180
     8  H    0.083315
 Sum of Mulliken charges =   0.00000

 Dipole moment (field-independent basis, Debye):
    X=             -3.6119    Y=              0.7456    Z=              0.1756  Tot=              3.6922
 Quadrupole moment (field-independent basis, Debye-Ang):
   XX=            -27.8637   YY=            -21.4588   ZZ=            -25.0630
   XY=              0.9291   XZ=              0.0485   YZ=             -0.0964

 Normal termination of Gaussian 09 at Wed Aug 26 09:22:53 2020.
