 Gaussian 09, Revision D.01,
 Gaussian 09:  ES64L-G09RevD.01 24-Apr-2013

 --------------------
 #p B2PLYPD3/Def2QZVP
 --------------------

 --------
 acrolein
 --------
 Symbolic Z-matrix:
 Charge =  0 Multiplicity = 1

                         Standard orientation:
 ---------------------------------------------------------------------
 Center     Atomic      Atomic             Coordinates (Angstroms)
 Number     Number       Type             X           Y           Z
 ---------------------------------------------------------------------
      1          6           0       -0.683212    0.366095    0.027652
      2          8           0       -1.771413   -0.134624   -0.021012
      3          6           0        0.554057   -0.450932    0.021709
      4          6           0        1.752167    0.141517   -0.015708
      5          1           0        0.474576   -1.509095    0.006528
      6          1           0        1.797138    1.226311   -0.008901
      7          1           0        2.695580   -0.414562   -0.029523
      8          1           0       -0.534061    1.434253   -0.001928
 ---------------------------------------------------------------------

 SCF Done:  E(RB2PLYPD3) =  -191.616071131     A.U. after   12 cycles
 E2(B2PLYPD3) =    -0.2463835448D+00 E(B2PLYPD3) =    -0.19186245467556D+03

 The electronic state is 1-A.
 Alpha  occ. eigenvalues --  -19.72762 -10.71330 -10.65321 -10.64006  -1.20287
 Alpha  occ. eigenvalues --   -0.92595  -0.74939  -0.67620  -0.56800  -0.56247
 Alpha  occ. eigenvalues --   -0.50724  -0.47122  -0.46864  -0.34463  -0.33879
 Alpha virt. eigenvalues --   -0.01361   0.05791   0.07319   0.08050   0.09758
 Alpha virt. eigenvalues --    0.12516   0.14132   0.15435   0.17740   0.19773
 Alpha virt. eigenvalues --    0.19939   0.21371   0.25545   0.26448   0.28981

 Mulliken charges:
               1
     1  C    0.152506
     2  O   -0.340845
     3  C   -0.047311
     4  C   -0.134325
     5  H    0.108274
     6  H    0.078899
     7  H    0.100966
     8  H    0.081835
 Sum of Mulliken charges =   0.00000

 Dipole moment (field-independent basis, Debye):
    X=              3.3107    Y=              0.8346    Z=              0.0497  Tot=              3.4146
 Quadrupole moment (field-independent basis, Debye-Ang):
   XX=            -27.3915   YY=            -21.6549   ZZ=            -25.1994
   XY=             -1.1683   XZ=             -0.1828   YZ=              0.0087

 Normal termination of Gaussian 09 at Wed Aug 26 20:20:30 2020.
