 Gaussian 09, Revision D.01,
 Gaussian 09:  ES64L-G09RevD.01 24-Apr-2013

 --------------------
 #p B2PLYPD3/Def2QZVP
 --------------------

 --------
 acrolein
 --------
 Symbolic Z-matrix:
 Charge =  0 Multiplicity = 1

                         Standard orientation:
 ---------------------------------------------------------------------
 Center     Atomic      Atomic             Coordinates (Angstroms)
 Number     Number       Type             X           Y           Z
 ---------------------------------------------------------------------
      1          6           0       -0.664290    0.344868   -0.032580
      2          8           0       -1.801810   -0.116292    0.035541
      3          6           0        0.582492   -0.449009   -0.032072
      4          6           0        1.755664    0.139863    0.007230
      5          1           0        0.457779   -1.579309   -0.058710
      6          1           0        1.876125    1.241513    0.040253
      7          1           0        2.558889   -0.409845    0.133345
      8          1           0       -0.521504    1.463646   -0.054683
 ---------------------------------------------------------------------

 SCF Done:  E(RB2PLYPD3) =  -191.604182913     A.U. after   13 cycles
 E2(B2PLYPD3) =    -0.2478902123D+00 E(B2PLYPD3) =    -0.19185207312481D+03

 The electronic state is 1-A.
 Alpha  occ. eigenvalues --  -19.72951 -10.72114 -10.64979 -10.64421  -1.18415
 Alpha  occ. eigenvalues --   -0.93640  -0.76191  -0.66037  -0.57370  -0.56124
 Alpha  occ. eigenvalues --   -0.50533  -0.46741  -0.46069  -0.35091  -0.33816
 Alpha virt. eigenvalues --   -0.01832   0.05807   0.06882   0.08059   0.09666
 Alpha virt. eigenvalues --    0.12615   0.14093   0.15242   0.16986   0.19755
 Alpha virt. eigenvalues --    0.19847   0.22417   0.25281   0.26384   0.28436

 Mulliken charges:
               1
     1  C    0.159784
     2  O   -0.354895
     3  C   -0.036860
     4  C   -0.122662
     5  H    0.096700
     6  H    0.083260
     7  H    0.106439
     8  H    0.068234
 Sum of Mulliken charges =   0.00000

 Dipole moment (field-independent basis, Debye):
    X=              3.5821    Y=              0.7313    Z=             -0.0358  Tot=              3.6562
 Quadrupole moment (field-independent basis, Debye-Ang):
   XX=            -27.6930   YY=            -21.6299   ZZ=            -25.1784
   XY=             -0.8477   XZ=              0.5360   YZ=              0.0272

 Normal termination of Gaussian 09 at Wed Aug 26 09:19:19 2020.
