 Gaussian 09, Revision D.01,
 Gaussian 09:  ES64L-G09RevD.01 24-Apr-2013

 --------------------
 #p B2PLYPD3/Def2QZVP
 --------------------

 --------
 acrolein
 --------
 Symbolic Z-matrix:
 Charge =  0 Multiplicity = 1

                         Standard orientation:
 ---------------------------------------------------------------------
 Center     Atomic      Atomic             Coordinates (Angstroms)
 Number     Number       Type             X           Y           Z
 ---------------------------------------------------------------------
      1          6           0       -0.687974    0.349742    0.038773
      2          8           0       -1.777133   -0.125169   -0.040370
      3          6           0        0.548422   -0.462124    0.024608
      4          6           0        1.762434    0.133003   -0.034462
      5          1           0        0.460923   -1.442981    0.059832
      6          1           0        1.882052    1.248345   -0.114551
      7          1           0        2.684202   -0.408172    0.052399
      8          1           0       -0.547409    1.480432    0.151759
 ---------------------------------------------------------------------

 SCF Done:  E(RB2PLYPD3) =  -191.606790962     A.U. after   13 cycles
 E2(B2PLYPD3) =    -0.2465472726D+00 E(B2PLYPD3) =    -0.19185333823458D+03

 The electronic state is 1-A.
 Alpha  occ. eigenvalues --  -19.72843 -10.71729 -10.65899 -10.63713  -1.20833
 Alpha  occ. eigenvalues --   -0.92438  -0.74967  -0.67538  -0.56684  -0.56383
 Alpha  occ. eigenvalues --   -0.50977  -0.47363  -0.47310  -0.34294  -0.33656
 Alpha virt. eigenvalues --   -0.01630   0.05743   0.07446   0.08216   0.09684
 Alpha virt. eigenvalues --    0.12380   0.13993   0.15531   0.17979   0.19190
 Alpha virt. eigenvalues --    0.20053   0.21428   0.25150   0.26439   0.28876

 Mulliken charges:
               1
     1  C    0.156674
     2  O   -0.333916
     3  C   -0.057906
     4  C   -0.125576
     5  H    0.116550
     6  H    0.079565
     7  H    0.098034
     8  H    0.066574
 Sum of Mulliken charges =   0.00000

 Dipole moment (field-independent basis, Debye):
    X=              3.3367    Y=              0.7023    Z=              0.1844  Tot=              3.4148
 Quadrupole moment (field-independent basis, Debye-Ang):
   XX=            -27.1230   YY=            -21.8493   ZZ=            -25.2100
   XY=             -0.9110   XZ=             -0.2119   YZ=             -0.1942

 Normal termination of Gaussian 09 at Wed Aug 26 08:36:07 2020.
