 Gaussian 09, Revision D.01,
 Gaussian 09:  ES64L-G09RevD.01 24-Apr-2013

 --------------------
 #p B2PLYPD3/Def2QZVP
 --------------------

 --------
 acrolein
 --------
 Symbolic Z-matrix:
 Charge =  0 Multiplicity = 1

                         Standard orientation:
 ---------------------------------------------------------------------
 Center     Atomic      Atomic             Coordinates (Angstroms)
 Number     Number       Type             X           Y           Z
 ---------------------------------------------------------------------
      1          6           0        0.677938    0.351010   -0.025668
      2          8           0        1.789005   -0.112055    0.025332
      3          6           0       -0.561812   -0.461533   -0.031081
      4          6           0       -1.757569    0.146370    0.004928
      5          1           0       -0.447051   -1.570822   -0.000503
      6          1           0       -1.887978    1.267642    0.034255
      7          1           0       -2.666312   -0.413552    0.089439
      8          1           0        0.537957    1.398093   -0.014916
 ---------------------------------------------------------------------

 SCF Done:  E(RB2PLYPD3) =  -191.612935895     A.U. after   12 cycles
 E2(B2PLYPD3) =    -0.2469997833D+00 E(B2PLYPD3) =    -0.19185993567836D+03

 The electronic state is 1-A.
 Alpha  occ. eigenvalues --  -19.72642 -10.71039 -10.65871 -10.64946  -1.19781
 Alpha  occ. eigenvalues --   -0.92409  -0.75324  -0.67125  -0.56592  -0.56037
 Alpha  occ. eigenvalues --   -0.50637  -0.46804  -0.46385  -0.34508  -0.33818
 Alpha virt. eigenvalues --   -0.01606   0.05676   0.07139   0.08090   0.09606
 Alpha virt. eigenvalues --    0.12496   0.14213   0.15387   0.17466   0.19500
 Alpha virt. eigenvalues --    0.19939   0.21637   0.25266   0.26606   0.28574

 Mulliken charges:
               1
     1  C    0.159698
     2  O   -0.347064
     3  C   -0.049516
     4  C   -0.129787
     5  H    0.103972
     6  H    0.081422
     7  H    0.101311
     8  H    0.079964
 Sum of Mulliken charges =   0.00000

 Dipole moment (field-independent basis, Debye):
    X=             -3.4422    Y=              0.7910    Z=              0.0160  Tot=              3.5320
 Quadrupole moment (field-independent basis, Debye-Ang):
   XX=            -27.5087   YY=            -21.5781   ZZ=            -25.2774
   XY=              0.8426   XZ=             -0.4088   YZ=             -0.0263

 Normal termination of Gaussian 09 at Wed Aug 26 21:06:29 2020.
