 Gaussian 09, Revision D.01,
 Gaussian 09:  ES64L-G09RevD.01 24-Apr-2013

 --------------------
 #p B2PLYPD3/Def2QZVP
 --------------------

 --------
 acrolein
 --------
 Symbolic Z-matrix:
 Charge =  0 Multiplicity = 1

                         Standard orientation:
 ---------------------------------------------------------------------
 Center     Atomic      Atomic             Coordinates (Angstroms)
 Number     Number       Type             X           Y           Z
 ---------------------------------------------------------------------
      1          6           0        0.672932    0.342628   -0.011479
      2          8           0        1.798463   -0.110818    0.022211
      3          6           0       -0.574703   -0.475615   -0.034020
      4          6           0       -1.756438    0.158065    0.016171
      5          1           0       -0.450212   -1.527820   -0.058973
      6          1           0       -1.844383    1.209071   -0.069143
      7          1           0       -2.634089   -0.403870    0.139598
      8          1           0        0.490234    1.458688   -0.013198
 ---------------------------------------------------------------------

 SCF Done:  E(RB2PLYPD3) =  -191.613546187     A.U. after   13 cycles
 E2(B2PLYPD3) =    -0.2474156409D+00 E(B2PLYPD3) =    -0.19186096182746D+03

 The electronic state is 1-A.
 Alpha  occ. eigenvalues --  -19.72910 -10.71967 -10.65023 -10.64569  -1.19298
 Alpha  occ. eigenvalues --   -0.92890  -0.75411  -0.67127  -0.56672  -0.56254
 Alpha  occ. eigenvalues --   -0.50551  -0.48124  -0.46460  -0.34533  -0.33620
 Alpha virt. eigenvalues --   -0.01737   0.05831   0.07238   0.07850   0.09747
 Alpha virt. eigenvalues --    0.12677   0.13934   0.15354   0.17377   0.19811
 Alpha virt. eigenvalues --    0.20142   0.21772   0.24997   0.26569   0.28469

 Mulliken charges:
               1
     1  C    0.156669
     2  O   -0.348464
     3  C   -0.042750
     4  C   -0.133177
     5  H    0.109098
     6  H    0.092530
     7  H    0.100612
     8  H    0.065481
 Sum of Mulliken charges =   0.00000

 Dipole moment (field-independent basis, Debye):
    X=             -3.5073    Y=              0.6981    Z=             -0.0569  Tot=              3.5766
 Quadrupole moment (field-independent basis, Debye-Ang):
   XX=            -27.6012   YY=            -21.6669   ZZ=            -25.2022
   XY=              0.7339   XZ=             -0.3111   YZ=             -0.0985

 Normal termination of Gaussian 09 at Wed Aug 26 08:36:03 2020.
