 Gaussian 09, Revision D.01,
 Gaussian 09:  ES64L-G09RevD.01 24-Apr-2013

 --------------------
 #p B2PLYPD3/Def2QZVP
 --------------------

 --------
 acrolein
 --------
 Symbolic Z-matrix:
 Charge =  0 Multiplicity = 1

                         Standard orientation:
 ---------------------------------------------------------------------
 Center     Atomic      Atomic             Coordinates (Angstroms)
 Number     Number       Type             X           Y           Z
 ---------------------------------------------------------------------
      1          6           0       -0.682995    0.340036    0.022702
      2          8           0       -1.787385   -0.129143   -0.019275
      3          6           0        0.543821   -0.433761    0.037756
      4          6           0        1.764892    0.142310   -0.019282
      5          1           0        0.466250   -1.463861   -0.041829
      6          1           0        1.815659    1.143145   -0.000341
      7          1           0        2.742798   -0.443096   -0.032826
      8          1           0       -0.479933    1.505446   -0.017862
 ---------------------------------------------------------------------

 SCF Done:  E(RB2PLYPD3) =  -191.603730001     A.U. after   12 cycles
 E2(B2PLYPD3) =    -0.2475528299D+00 E(B2PLYPD3) =    -0.19185128283122D+03

 The electronic state is 1-A.
 Alpha  occ. eigenvalues --  -19.73131 -10.72193 -10.65613 -10.64016  -1.20361
 Alpha  occ. eigenvalues --   -0.93155  -0.75788  -0.67093  -0.56668  -0.56245
 Alpha  occ. eigenvalues --   -0.50373  -0.47759  -0.47263  -0.34556  -0.33771
 Alpha virt. eigenvalues --   -0.02157   0.05714   0.07119   0.08423   0.09815
 Alpha virt. eigenvalues --    0.12485   0.13685   0.15304   0.17716   0.19829
 Alpha virt. eigenvalues --    0.20274   0.21308   0.25222   0.26287   0.28777

 Mulliken charges:
               1
     1  C    0.152998
     2  O   -0.337433
     3  C   -0.025272
     4  C   -0.133503
     5  H    0.106557
     6  H    0.090096
     7  H    0.101042
     8  H    0.045515
 Sum of Mulliken charges =   0.00000

 Dipole moment (field-independent basis, Debye):
    X=              3.4959    Y=              0.6551    Z=             -0.0072  Tot=              3.5567
 Quadrupole moment (field-independent basis, Debye-Ang):
   XX=            -26.9840   YY=            -22.1499   ZZ=            -25.2125
   XY=             -0.9353   XZ=             -0.2039   YZ=              0.0862

 Normal termination of Gaussian 09 at Wed Aug 26 08:35:42 2020.
