 Gaussian 09, Revision D.01,
 Gaussian 09:  ES64L-G09RevD.01 24-Apr-2013

 --------------------
 #p B2PLYPD3/Def2QZVP
 --------------------

 --------
 acrolein
 --------
 Symbolic Z-matrix:
 Charge =  0 Multiplicity = 1

                         Standard orientation:
 ---------------------------------------------------------------------
 Center     Atomic      Atomic             Coordinates (Angstroms)
 Number     Number       Type             X           Y           Z
 ---------------------------------------------------------------------
      1          6           0       -0.675471    0.352057   -0.014712
      2          8           0       -1.792396   -0.127485    0.019172
      3          6           0        0.554937   -0.431634   -0.010918
      4          6           0        1.761764    0.112963    0.001768
      5          1           0        0.456960   -1.502798   -0.077381
      6          1           0        1.866318    1.231974   -0.006670
      7          1           0        2.610685   -0.422062    0.102663
      8          1           0       -0.442177    1.512447   -0.028817
 ---------------------------------------------------------------------

 SCF Done:  E(RB2PLYPD3) =  -191.607126514     A.U. after   13 cycles
 E2(B2PLYPD3) =    -0.2479882630D+00 E(B2PLYPD3) =    -0.19185511477715D+03

 The electronic state is 1-A.
 Alpha  occ. eigenvalues --  -19.73321 -10.72543 -10.65081 -10.64179  -1.19498
 Alpha  occ. eigenvalues --   -0.93445  -0.76167  -0.66014  -0.57625  -0.55572
 Alpha  occ. eigenvalues --   -0.51055  -0.47114  -0.46233  -0.34922  -0.33940
 Alpha virt. eigenvalues --   -0.02051   0.05749   0.07057   0.08314   0.09764
 Alpha virt. eigenvalues --    0.12523   0.13791   0.15266   0.17375   0.19626
 Alpha virt. eigenvalues --    0.19803   0.22019   0.25581   0.26383   0.28596

 Mulliken charges:
               1
     1  C    0.164333
     2  O   -0.343773
     3  C   -0.030099
     4  C   -0.123821
     5  H    0.099655
     6  H    0.073715
     7  H    0.108104
     8  H    0.051885
 Sum of Mulliken charges =   0.00000

 Dipole moment (field-independent basis, Debye):
    X=              3.5275    Y=              0.6510    Z=             -0.0516  Tot=              3.5874
 Quadrupole moment (field-independent basis, Debye-Ang):
   XX=            -27.2649   YY=            -22.0313   ZZ=            -25.1891
   XY=             -0.9036   XZ=              0.2918   YZ=              0.0294

 Normal termination of Gaussian 09 at Wed Aug 26 09:23:12 2020.
