 Gaussian 09, Revision D.01,
 Gaussian 09:  ES64L-G09RevD.01 24-Apr-2013

 --------------------
 #p B2PLYPD3/Def2QZVP
 --------------------

 --------
 acrolein
 --------
 Symbolic Z-matrix:
 Charge =  0 Multiplicity = 1

                         Standard orientation:
 ---------------------------------------------------------------------
 Center     Atomic      Atomic             Coordinates (Angstroms)
 Number     Number       Type             X           Y           Z
 ---------------------------------------------------------------------
      1          6           0        0.651943    0.333065    0.030227
      2          8           0        1.802935   -0.103845   -0.035107
      3          6           0       -0.579504   -0.460640    0.027884
      4          6           0       -1.738537    0.161002   -0.012213
      5          1           0       -0.493097   -1.556556    0.025544
      6          1           0       -1.808666    1.225958   -0.128608
      7          1           0       -2.611898   -0.404979   -0.027382
      8          1           0        0.486768    1.365781    0.135917
 ---------------------------------------------------------------------

 SCF Done:  E(RB2PLYPD3) =  -191.611706110     A.U. after   13 cycles
 E2(B2PLYPD3) =    -0.2473631872D+00 E(B2PLYPD3) =    -0.19185906929753D+03

 The electronic state is 1-A.
 Alpha  occ. eigenvalues --  -19.72668 -10.71158 -10.64812 -10.64404  -1.18008
 Alpha  occ. eigenvalues --   -0.93964  -0.76262  -0.67594  -0.57102  -0.56523
 Alpha  occ. eigenvalues --   -0.50341  -0.47318  -0.45983  -0.34994  -0.33886
 Alpha virt. eigenvalues --   -0.01890   0.05795   0.07086   0.07979   0.09710
 Alpha virt. eigenvalues --    0.12921   0.14118   0.15249   0.17374   0.19487
 Alpha virt. eigenvalues --    0.20336   0.21860   0.25158   0.26739   0.28580

 Mulliken charges:
               1
     1  C    0.150573
     2  O   -0.363360
     3  C   -0.030725
     4  C   -0.127105
     5  H    0.100425
     6  H    0.087299
     7  H    0.101587
     8  H    0.081307
 Sum of Mulliken charges =   0.00000

 Dipole moment (field-independent basis, Debye):
    X=             -3.6795    Y=              0.7412    Z=              0.0549  Tot=              3.7539
 Quadrupole moment (field-independent basis, Debye-Ang):
   XX=            -27.8480   YY=            -21.5584   ZZ=            -25.0697
   XY=              0.8536   XZ=              0.4449   YZ=             -0.1113

 Normal termination of Gaussian 09 at Wed Aug 26 10:25:15 2020.
