 Gaussian 09, Revision D.01,
 Gaussian 09:  ES64L-G09RevD.01 24-Apr-2013

 --------------------
 #p B2PLYPD3/Def2QZVP
 --------------------

 --------
 acrolein
 --------
 Symbolic Z-matrix:
 Charge =  0 Multiplicity = 1

                         Standard orientation:
 ---------------------------------------------------------------------
 Center     Atomic      Atomic             Coordinates (Angstroms)
 Number     Number       Type             X           Y           Z
 ---------------------------------------------------------------------
      1          6           0        0.647703    0.352097    0.075689
      2          8           0        1.777247   -0.144749   -0.070575
      3          6           0       -0.542569   -0.423269    0.047187
      4          6           0       -1.729755    0.150842   -0.068060
      5          1           0       -0.568834   -1.434922    0.137377
      6          1           0       -1.717776    1.180499   -0.093743
      7          1           0       -2.762275   -0.463419    0.011220
      8          1           0        0.578633    1.397814    0.180854
 ---------------------------------------------------------------------

 SCF Done:  E(RB2PLYPD3) =  -191.593417548     A.U. after   13 cycles
 E2(B2PLYPD3) =    -0.2483762157D+00 E(B2PLYPD3) =    -0.19184179376385D+03

 The electronic state is 1-A.
 Alpha  occ. eigenvalues --  -19.72460 -10.71148 -10.65945 -10.63266  -1.17602
 Alpha  occ. eigenvalues --   -0.94395  -0.75752  -0.68927  -0.58342  -0.55151
 Alpha  occ. eigenvalues --   -0.49547  -0.47147  -0.45728  -0.34686  -0.34115
 Alpha virt. eigenvalues --   -0.02338   0.05407   0.06939   0.08194   0.09711
 Alpha virt. eigenvalues --    0.12410   0.14050   0.15237   0.18076   0.19308
 Alpha virt. eigenvalues --    0.20161   0.21033   0.25391   0.25943   0.29805

 Mulliken charges:
               1
     1  C    0.127563
     2  O   -0.365483
     3  C   -0.013455
     4  C   -0.124099
     5  H    0.106765
     6  H    0.081792
     7  H    0.094316
     8  H    0.092601
 Sum of Mulliken charges =   0.00000

 Dipole moment (field-independent basis, Debye):
    X=             -3.6503    Y=              0.8813    Z=              0.3821  Tot=              3.7746
 Quadrupole moment (field-independent basis, Debye-Ang):
   XX=            -27.6274   YY=            -21.6875   ZZ=            -25.0917
   XY=              1.5949   XZ=              0.3497   YZ=             -0.1886

 Normal termination of Gaussian 09 at Wed Aug 26 13:41:51 2020.
