 Gaussian 09, Revision D.01,
 Gaussian 09:  ES64L-G09RevD.01 24-Apr-2013

 --------------------
 #p B2PLYPD3/Def2QZVP
 --------------------

 --------
 acrolein
 --------
 Symbolic Z-matrix:
 Charge =  0 Multiplicity = 1

                         Standard orientation:
 ---------------------------------------------------------------------
 Center     Atomic      Atomic             Coordinates (Angstroms)
 Number     Number       Type             X           Y           Z
 ---------------------------------------------------------------------
      1          6           0       -0.674732    0.341226    0.023594
      2          8           0       -1.792667   -0.111355   -0.026114
      3          6           0        0.564764   -0.465912    0.007286
      4          6           0        1.761264    0.149063   -0.022367
      5          1           0        0.455386   -1.532236    0.094259
      6          1           0        1.873411    1.237301   -0.019607
      7          1           0        2.633581   -0.405554   -0.009333
      8          1           0       -0.528817    1.445071    0.092525
 ---------------------------------------------------------------------

 SCF Done:  E(RB2PLYPD3) =  -191.614778535     A.U. after   12 cycles
 E2(B2PLYPD3) =    -0.2470347694D+00 E(B2PLYPD3) =    -0.19186181330456D+03

 The electronic state is 1-A.
 Alpha  occ. eigenvalues --  -19.72758 -10.71598 -10.65265 -10.64668  -1.19678
 Alpha  occ. eigenvalues --   -0.92714  -0.75607  -0.66886  -0.56728  -0.56386
 Alpha  occ. eigenvalues --   -0.50634  -0.47608  -0.46609  -0.34514  -0.33684
 Alpha virt. eigenvalues --   -0.01751   0.05819   0.07169   0.08146   0.09675
 Alpha virt. eigenvalues --    0.12623   0.14089   0.15319   0.17512   0.19686
 Alpha virt. eigenvalues --    0.20038   0.21790   0.25212   0.26486   0.28630

 Mulliken charges:
               1
     1  C    0.155700
     2  O   -0.345048
     3  C   -0.044674
     4  C   -0.130505
     5  H    0.106344
     6  H    0.086972
     7  H    0.102573
     8  H    0.068638
 Sum of Mulliken charges =   0.00000

 Dipole moment (field-independent basis, Debye):
    X=              3.4925    Y=              0.7116    Z=              0.1768  Tot=              3.5687
 Quadrupole moment (field-independent basis, Debye-Ang):
   XX=            -27.4310   YY=            -21.6789   ZZ=            -25.2246
   XY=             -0.8007   XZ=             -0.1298   YZ=             -0.1229

 Normal termination of Gaussian 09 at Wed Aug 26 19:12:12 2020.
