 Gaussian 09, Revision D.01,
 Gaussian 09:  ES64L-G09RevD.01 24-Apr-2013

 --------------------
 #p B2PLYPD3/Def2QZVP
 --------------------

 --------
 acrolein
 --------
 Symbolic Z-matrix:
 Charge =  0 Multiplicity = 1

                         Standard orientation:
 ---------------------------------------------------------------------
 Center     Atomic      Atomic             Coordinates (Angstroms)
 Number     Number       Type             X           Y           Z
 ---------------------------------------------------------------------
      1          6           0       -0.671870    0.349523   -0.005925
      2          8           0       -1.788868   -0.123129    0.008832
      3          6           0        0.561388   -0.435434   -0.008267
      4          6           0        1.761888    0.136651   -0.004115
      5          1           0        0.420980   -1.518656   -0.034968
      6          1           0        1.822511    1.208716   -0.020720
      7          1           0        2.674942   -0.433588    0.086273
      8          1           0       -0.515927    1.424119    0.008602
 ---------------------------------------------------------------------

 SCF Done:  E(RB2PLYPD3) =  -191.616404289     A.U. after   12 cycles
 E2(B2PLYPD3) =    -0.2470302712D+00 E(B2PLYPD3) =    -0.19186343456066D+03

 The electronic state is 1-A.
 Alpha  occ. eigenvalues --  -19.72819 -10.71333 -10.65395 -10.64330  -1.19387
 Alpha  occ. eigenvalues --   -0.93196  -0.75834  -0.67132  -0.56616  -0.56570
 Alpha  occ. eigenvalues --   -0.50754  -0.46935  -0.46567  -0.34738  -0.33917
 Alpha virt. eigenvalues --   -0.01893   0.05764   0.07209   0.08323   0.09790
 Alpha virt. eigenvalues --    0.12578   0.13935   0.15362   0.17492   0.19715
 Alpha virt. eigenvalues --    0.19932   0.21719   0.25573   0.26554   0.28832

 Mulliken charges:
               1
     1  C    0.156344
     2  O   -0.351732
     3  C   -0.033293
     4  C   -0.133618
     5  H    0.101942
     6  H    0.083746
     7  H    0.106240
     8  H    0.070370
 Sum of Mulliken charges =   0.00000

 Dipole moment (field-independent basis, Debye):
    X=              3.5040    Y=              0.7803    Z=              0.0038  Tot=              3.5899
 Quadrupole moment (field-independent basis, Debye-Ang):
   XX=            -27.4153   YY=            -21.8096   ZZ=            -25.1620
   XY=             -0.9686   XZ=              0.2115   YZ=             -0.0249

 Normal termination of Gaussian 09 at Wed Aug 26 15:39:46 2020.
