 Gaussian 09, Revision D.01,
 Gaussian 09:  ES64L-G09RevD.01 24-Apr-2013

 --------------------
 #p B2PLYPD3/Def2QZVP
 --------------------

 --------
 acrolein
 --------
 Symbolic Z-matrix:
 Charge =  0 Multiplicity = 1

                         Standard orientation:
 ---------------------------------------------------------------------
 Center     Atomic      Atomic             Coordinates (Angstroms)
 Number     Number       Type             X           Y           Z
 ---------------------------------------------------------------------
      1          6           0       -0.667589    0.352902   -0.021923
      2          8           0       -1.785665   -0.122929    0.024494
      3          6           0        0.561515   -0.440423   -0.024478
      4          6           0        1.754409    0.139908    0.017479
      5          1           0        0.421609   -1.547272   -0.056658
      6          1           0        1.817902    1.181462   -0.024949
      7          1           0        2.659260   -0.412882    0.082084
      8          1           0       -0.503462    1.447807   -0.022895
 ---------------------------------------------------------------------

 SCF Done:  E(RB2PLYPD3) =  -191.614892181     A.U. after   13 cycles
 E2(B2PLYPD3) =    -0.2471813055D+00 E(B2PLYPD3) =    -0.19186207348620D+03

 The electronic state is 1-A.
 Alpha  occ. eigenvalues --  -19.72848 -10.71612 -10.64848 -10.64558  -1.19215
 Alpha  occ. eigenvalues --   -0.93336  -0.75935  -0.66835  -0.56740  -0.56698
 Alpha  occ. eigenvalues --   -0.50669  -0.47036  -0.46463  -0.34750  -0.33908
 Alpha virt. eigenvalues --   -0.01833   0.05829   0.07076   0.08228   0.09804
 Alpha virt. eigenvalues --    0.12668   0.14048   0.15325   0.17184   0.19918
 Alpha virt. eigenvalues --    0.20110   0.21854   0.25492   0.26483   0.28813

 Mulliken charges:
               1
     1  C    0.155262
     2  O   -0.351780
     3  C   -0.030152
     4  C   -0.133422
     5  H    0.100360
     6  H    0.085562
     7  H    0.105142
     8  H    0.069028
 Sum of Mulliken charges =   0.00000

 Dipole moment (field-independent basis, Debye):
    X=              3.5194    Y=              0.7811    Z=             -0.0861  Tot=              3.6061
 Quadrupole moment (field-independent basis, Debye-Ang):
   XX=            -27.4029   YY=            -21.7799   ZZ=            -25.1570
   XY=             -0.9005   XZ=              0.2557   YZ=             -0.0159

 Normal termination of Gaussian 09 at Wed Aug 26 17:32:35 2020.
