 Gaussian 09, Revision D.01,
 Gaussian 09:  ES64L-G09RevD.01 24-Apr-2013

 --------------------
 #p B2PLYPD3/Def2QZVP
 --------------------

 --------
 acrolein
 --------
 Symbolic Z-matrix:
 Charge =  0 Multiplicity = 1

                         Standard orientation:
 ---------------------------------------------------------------------
 Center     Atomic      Atomic             Coordinates (Angstroms)
 Number     Number       Type             X           Y           Z
 ---------------------------------------------------------------------
      1          6           0        0.672236    0.335302    0.004050
      2          8           0        1.796812   -0.110089    0.008365
      3          6           0       -0.563141   -0.459897   -0.024125
      4          6           0       -1.756036    0.153909    0.001043
      5          1           0       -0.449337   -1.520654   -0.004440
      6          1           0       -1.838194    1.200011   -0.010878
      7          1           0       -2.686924   -0.418637    0.081815
      8          1           0        0.481603    1.444106   -0.019224
 ---------------------------------------------------------------------

 SCF Done:  E(RB2PLYPD3) =  -191.615413831     A.U. after   12 cycles
 E2(B2PLYPD3) =    -0.2472981532D+00 E(B2PLYPD3) =    -0.19186271198414D+03

 The electronic state is 1-A.
 Alpha  occ. eigenvalues --  -19.72891 -10.71720 -10.65538 -10.64457  -1.19577
 Alpha  occ. eigenvalues --   -0.93046  -0.75554  -0.67122  -0.56570  -0.56327
 Alpha  occ. eigenvalues --   -0.50493  -0.47565  -0.46807  -0.34640  -0.33738
 Alpha virt. eigenvalues --   -0.01912   0.05765   0.07195   0.08191   0.09739
 Alpha virt. eigenvalues --    0.12661   0.13928   0.15334   0.17494   0.19922
 Alpha virt. eigenvalues --    0.20010   0.21545   0.25298   0.26459   0.28578

 Mulliken charges:
               1
     1  C    0.155450
     2  O   -0.347355
     3  C   -0.033078
     4  C   -0.132878
     5  H    0.105937
     6  H    0.090813
     7  H    0.100159
     8  H    0.060952
 Sum of Mulliken charges =   0.00000

 Dipole moment (field-independent basis, Debye):
    X=             -3.5390    Y=              0.6873    Z=              0.0390  Tot=              3.6054
 Quadrupole moment (field-independent basis, Debye-Ang):
   XX=            -27.4184   YY=            -21.8246   ZZ=            -25.2111
   XY=              0.7430   XZ=             -0.2344   YZ=             -0.0735

 Normal termination of Gaussian 09 at Wed Aug 26 19:51:19 2020.
