 Gaussian 09, Revision D.01,
 Gaussian 09:  ES64L-G09RevD.01 24-Apr-2013

 --------------------
 #p B2PLYPD3/Def2QZVP
 --------------------

 --------
 acrolein
 --------
 Symbolic Z-matrix:
 Charge =  0 Multiplicity = 1

                         Standard orientation:
 ---------------------------------------------------------------------
 Center     Atomic      Atomic             Coordinates (Angstroms)
 Number     Number       Type             X           Y           Z
 ---------------------------------------------------------------------
      1          6           0        0.687476    0.373046    0.057895
      2          8           0        1.791614   -0.146009   -0.062326
      3          6           0       -0.591453   -0.449115    0.049569
      4          6           0       -1.737424    0.140291   -0.075009
      5          1           0       -0.531285   -1.512665    0.077133
      6          1           0       -1.783508    1.201049   -0.190446
      7          1           0       -2.720986   -0.353823    0.146747
      8          1           0        0.551274    1.448179    0.270450
 ---------------------------------------------------------------------

 SCF Done:  E(RB2PLYPD3) =  -191.607067848     A.U. after   13 cycles
 E2(B2PLYPD3) =    -0.2475348722D+00 E(B2PLYPD3) =    -0.19185460271977D+03

 The electronic state is 1-A.
 Alpha  occ. eigenvalues --  -19.73303 -10.72519 -10.64544 -10.63919  -1.18893
 Alpha  occ. eigenvalues --   -0.93277  -0.74398  -0.67349  -0.56609  -0.55995
 Alpha  occ. eigenvalues --   -0.51032  -0.46357  -0.45920  -0.35167  -0.33880
 Alpha virt. eigenvalues --   -0.01427   0.05808   0.06968   0.07720   0.09728
 Alpha virt. eigenvalues --    0.12464   0.14018   0.15627   0.17333   0.18728
 Alpha virt. eigenvalues --    0.20045   0.21793   0.25173   0.26650   0.28849

 Mulliken charges:
               1
     1  C    0.148694
     2  O   -0.344793
     3  C   -0.052540
     4  C   -0.114469
     5  H    0.109634
     6  H    0.069267
     7  H    0.092278
     8  H    0.091929
 Sum of Mulliken charges =   0.00000

 Dipole moment (field-independent basis, Debye):
    X=             -3.2805    Y=              0.9161    Z=              0.3503  Tot=              3.4240
 Quadrupole moment (field-independent basis, Debye-Ang):
   XX=            -27.7197   YY=            -21.7122   ZZ=            -25.1120
   XY=              1.1498   XZ=              0.1662   YZ=             -0.2170

 Normal termination of Gaussian 09 at Wed Aug 26 12:47:27 2020.
