 Gaussian 09, Revision D.01,
 Gaussian 09:  ES64L-G09RevD.01 24-Apr-2013

 --------------------
 #p B2PLYPD3/Def2QZVP
 --------------------

 --------
 acrolein
 --------
 Symbolic Z-matrix:
 Charge =  0 Multiplicity = 1

                         Standard orientation:
 ---------------------------------------------------------------------
 Center     Atomic      Atomic             Coordinates (Angstroms)
 Number     Number       Type             X           Y           Z
 ---------------------------------------------------------------------
      1          6           0        0.709888    0.410295   -0.009649
      2          8           0        1.763930   -0.178041   -0.016135
      3          6           0       -0.554952   -0.426104   -0.017391
      4          6           0       -1.747529    0.123869    0.011571
      5          1           0       -0.562621   -1.430237    0.149357
      6          1           0       -1.710531    1.209881   -0.152626
      7          1           0       -2.780081   -0.431482   -0.013173
      8          1           0        0.497346    1.427815    0.238337
 ---------------------------------------------------------------------

 SCF Done:  E(RB2PLYPD3) =  -191.592512316     A.U. after   13 cycles
 E2(B2PLYPD3) =    -0.2475193036D+00 E(B2PLYPD3) =    -0.19184003162012D+03

 The electronic state is 1-A.
 Alpha  occ. eigenvalues --  -19.73526 -10.72317 -10.65151 -10.62899  -1.20336
 Alpha  occ. eigenvalues --   -0.92746  -0.74419  -0.67769  -0.56914  -0.55799
 Alpha  occ. eigenvalues --   -0.50906  -0.47060  -0.45113  -0.34839  -0.33992
 Alpha virt. eigenvalues --   -0.01178   0.05691   0.06769   0.07633   0.09768
 Alpha virt. eigenvalues --    0.12202   0.14070   0.15105   0.18424   0.18667
 Alpha virt. eigenvalues --    0.20282   0.20808   0.24323   0.27334   0.28488

 Mulliken charges:
               1
     1  C    0.160483
     2  O   -0.329986
     3  C   -0.064849
     4  C   -0.121929
     5  H    0.106512
     6  H    0.056599
     7  H    0.095623
     8  H    0.097546
 Sum of Mulliken charges =   0.00000

 Dipole moment (field-independent basis, Debye):
    X=             -3.0274    Y=              1.0010    Z=              0.1212  Tot=              3.1909
 Quadrupole moment (field-independent basis, Debye-Ang):
   XX=            -27.4180   YY=            -21.8917   ZZ=            -25.1410
   XY=              1.7720   XZ=              0.2192   YZ=             -0.2636

 Normal termination of Gaussian 09 at Wed Aug 26 12:25:53 2020.
