 Gaussian 09, Revision D.01,
 Gaussian 09:  ES64L-G09RevD.01 24-Apr-2013

 --------------------
 #p B2PLYPD3/Def2QZVP
 --------------------

 --------
 acrolein
 --------
 Symbolic Z-matrix:
 Charge =  0 Multiplicity = 1

                         Standard orientation:
 ---------------------------------------------------------------------
 Center     Atomic      Atomic             Coordinates (Angstroms)
 Number     Number       Type             X           Y           Z
 ---------------------------------------------------------------------
      1          6           0        0.658031    0.333866    0.013375
      2          8           0        1.795495   -0.107504   -0.013054
      3          6           0       -0.573439   -0.457228    0.000637
      4          6           0       -1.749528    0.150567    0.001147
      5          1           0       -0.449325   -1.524495    0.037116
      6          1           0       -1.800879    1.232255   -0.042403
      7          1           0       -2.634098   -0.401763   -0.025342
      8          1           0        0.509958    1.390805    0.044106
 ---------------------------------------------------------------------

 SCF Done:  E(RB2PLYPD3) =  -191.615085967     A.U. after   12 cycles
 E2(B2PLYPD3) =    -0.2468746862D+00 E(B2PLYPD3) =    -0.19186196065293D+03

 The electronic state is 1-A.
 Alpha  occ. eigenvalues --  -19.72645 -10.71097 -10.65076 -10.64222  -1.18784
 Alpha  occ. eigenvalues --   -0.93642  -0.76056  -0.67579  -0.57043  -0.56555
 Alpha  occ. eigenvalues --   -0.50580  -0.47382  -0.46393  -0.34904  -0.33813
 Alpha virt. eigenvalues --   -0.01823   0.05804   0.07255   0.08206   0.09750
 Alpha virt. eigenvalues --    0.12771   0.14039   0.15261   0.17515   0.19791
 Alpha virt. eigenvalues --    0.20033   0.21818   0.25414   0.26639   0.28870

 Mulliken charges:
               1
     1  C    0.153431
     2  O   -0.357647
     3  C   -0.032046
     4  C   -0.130579
     5  H    0.103425
     6  H    0.086239
     7  H    0.104576
     8  H    0.072601
 Sum of Mulliken charges =   0.00000

 Dipole moment (field-independent basis, Debye):
    X=             -3.6013    Y=              0.7261    Z=              0.0364  Tot=              3.6740
 Quadrupole moment (field-independent basis, Debye-Ang):
   XX=            -27.6188   YY=            -21.6728   ZZ=            -25.0913
   XY=              0.8808   XZ=              0.1744   YZ=             -0.0788

 Normal termination of Gaussian 09 at Wed Aug 26 15:26:51 2020.
