 Gaussian 09, Revision D.01,
 Gaussian 09:  ES64L-G09RevD.01 24-Apr-2013

 --------------------
 #p B2PLYPD3/Def2QZVP
 --------------------

 --------
 acrolein
 --------
 Symbolic Z-matrix:
 Charge =  0 Multiplicity = 1

                         Standard orientation:
 ---------------------------------------------------------------------
 Center     Atomic      Atomic             Coordinates (Angstroms)
 Number     Number       Type             X           Y           Z
 ---------------------------------------------------------------------
      1          6           0        0.651834    0.320405    0.027727
      2          8           0        1.807690   -0.087430   -0.050903
      3          6           0       -0.552584   -0.473760    0.051335
      4          6           0       -1.748398    0.149104   -0.064789
      5          1           0       -0.386192   -1.603069    0.125877
      6          1           0       -1.870025    1.250523   -0.010013
      7          1           0       -2.774285   -0.378079   -0.016275
      8          1           0        0.463870    1.455566    0.222000
 ---------------------------------------------------------------------

 SCF Done:  E(RB2PLYPD3) =  -191.601231897     A.U. after   13 cycles
 E2(B2PLYPD3) =    -0.2502299402D+00 E(B2PLYPD3) =    -0.19185146183688D+03

 The electronic state is 1-A.
 Alpha  occ. eigenvalues --  -19.72899 -10.72155 -10.67424 -10.65860  -1.18459
 Alpha  occ. eigenvalues --   -0.92979  -0.75373  -0.65553  -0.56444  -0.55115
 Alpha  occ. eigenvalues --   -0.49969  -0.46461  -0.45671  -0.34702  -0.33668
 Alpha virt. eigenvalues --   -0.02636   0.05425   0.06340   0.08165   0.09545
 Alpha virt. eigenvalues --    0.12236   0.14001   0.15196   0.16884   0.19351
 Alpha virt. eigenvalues --    0.20042   0.21185   0.24731   0.26509   0.28625

 Mulliken charges:
               1
     1  C    0.162099
     2  O   -0.355484
     3  C   -0.029739
     4  C   -0.113998
     5  H    0.104710
     6  H    0.086459
     7  H    0.094844
     8  H    0.051110
 Sum of Mulliken charges =   0.00000

 Dipole moment (field-independent basis, Debye):
    X=             -3.7435    Y=              0.5897    Z=              0.2979  Tot=              3.8014
 Quadrupole moment (field-independent basis, Debye-Ang):
   XX=            -27.3955   YY=            -21.9728   ZZ=            -25.4813
   XY=              0.3375   XZ=              0.2541   YZ=             -0.0875

 Normal termination of Gaussian 09 at Wed Aug 26 14:28:53 2020.
