 Gaussian 09, Revision D.01,
 Gaussian 09:  ES64L-G09RevD.01 24-Apr-2013

 --------------------
 #p B2PLYPD3/Def2QZVP
 --------------------

 --------
 acrolein
 --------
 Symbolic Z-matrix:
 Charge =  0 Multiplicity = 1

                         Standard orientation:
 ---------------------------------------------------------------------
 Center     Atomic      Atomic             Coordinates (Angstroms)
 Number     Number       Type             X           Y           Z
 ---------------------------------------------------------------------
      1          6           0        0.664750    0.345472    0.012668
      2          8           0        1.780372   -0.117631   -0.025826
      3          6           0       -0.554888   -0.440583    0.018004
      4          6           0       -1.743718    0.150545   -0.025071
      5          1           0       -0.432208   -1.560288    0.062995
      6          1           0       -1.806106    1.178707   -0.075621
      7          1           0       -2.740145   -0.404716    0.028784
      8          1           0        0.538616    1.394744    0.156840
 ---------------------------------------------------------------------

 SCF Done:  E(RB2PLYPD3) =  -191.610010425     A.U. after   12 cycles
 E2(B2PLYPD3) =    -0.2468680829D+00 E(B2PLYPD3) =    -0.19185687850822D+03

 The electronic state is 1-A.
 Alpha  occ. eigenvalues --  -19.72580 -10.70921 -10.65533 -10.64639  -1.19561
 Alpha  occ. eigenvalues --   -0.93325  -0.75676  -0.67330  -0.57393  -0.55835
 Alpha  occ. eigenvalues --   -0.50435  -0.46857  -0.46314  -0.34769  -0.33874
 Alpha virt. eigenvalues --   -0.01782   0.05699   0.06980   0.08314   0.09710
 Alpha virt. eigenvalues --    0.12580   0.14240   0.15331   0.17300   0.19513
 Alpha virt. eigenvalues --    0.20287   0.21409   0.25430   0.26675   0.28935

 Mulliken charges:
               1
     1  C    0.150873
     2  O   -0.350579
     3  C   -0.032385
     4  C   -0.130934
     5  H    0.102009
     6  H    0.087152
     7  H    0.098847
     8  H    0.075017
 Sum of Mulliken charges =   0.00000

 Dipole moment (field-independent basis, Debye):
    X=             -3.5045    Y=              0.8099    Z=              0.1412  Tot=              3.5996
 Quadrupole moment (field-independent basis, Debye-Ang):
   XX=            -27.3522   YY=            -21.7866   ZZ=            -25.1534
   XY=              0.8915   XZ=              0.1625   YZ=             -0.1255

 Normal termination of Gaussian 09 at Wed Aug 26 20:48:29 2020.
