 Gaussian 09, Revision D.01,
 Gaussian 09:  ES64L-G09RevD.01 24-Apr-2013

 --------------------
 #p B2PLYPD3/Def2QZVP
 --------------------

 --------
 acrolein
 --------
 Symbolic Z-matrix:
 Charge =  0 Multiplicity = 1

                         Standard orientation:
 ---------------------------------------------------------------------
 Center     Atomic      Atomic             Coordinates (Angstroms)
 Number     Number       Type             X           Y           Z
 ---------------------------------------------------------------------
      1          6           0       -0.674044    0.344712    0.011471
      2          8           0       -1.782971   -0.110299   -0.024384
      3          6           0        0.559571   -0.471504    0.011683
      4          6           0        1.749080    0.151235   -0.005358
      5          1           0        0.439071   -1.557659    0.057396
      6          1           0        1.849314    1.269166   -0.107601
      7          1           0        2.699224   -0.403027   -0.011456
      8          1           0       -0.531487    1.427252    0.149954
 ---------------------------------------------------------------------

 SCF Done:  E(RB2PLYPD3) =  -191.614149935     A.U. after   12 cycles
 E2(B2PLYPD3) =    -0.2471163218D+00 E(B2PLYPD3) =    -0.19186126625680D+03

 The electronic state is 1-A.
 Alpha  occ. eigenvalues --  -19.72671 -10.71332 -10.66167 -10.64786  -1.20152
 Alpha  occ. eigenvalues --   -0.92436  -0.74757  -0.66760  -0.56393  -0.55994
 Alpha  occ. eigenvalues --   -0.50608  -0.46974  -0.46521  -0.34552  -0.33663
 Alpha virt. eigenvalues --   -0.01527   0.05673   0.07082   0.07998   0.09642
 Alpha virt. eigenvalues --    0.12469   0.14135   0.15332   0.17474   0.19345
 Alpha virt. eigenvalues --    0.20131   0.21326   0.25032   0.26649   0.28697

 Mulliken charges:
               1
     1  C    0.157813
     2  O   -0.341824
     3  C   -0.051139
     4  C   -0.127302
     5  H    0.108488
     6  H    0.083312
     7  H    0.098839
     8  H    0.071813
 Sum of Mulliken charges =   0.00000

 Dipole moment (field-independent basis, Debye):
    X=              3.4093    Y=              0.7173    Z=              0.0693  Tot=              3.4846
 Quadrupole moment (field-independent basis, Debye-Ang):
   XX=            -27.4589   YY=            -21.6707   ZZ=            -25.2973
   XY=             -0.8092   XZ=             -0.3071   YZ=             -0.1559

 Normal termination of Gaussian 09 at Wed Aug 26 08:56:22 2020.
