 Gaussian 09, Revision D.01,
 Gaussian 09:  ES64L-G09RevD.01 24-Apr-2013

 --------------------
 #p B2PLYPD3/Def2QZVP
 --------------------

 --------
 acrolein
 --------
 Symbolic Z-matrix:
 Charge =  0 Multiplicity = 1

                         Standard orientation:
 ---------------------------------------------------------------------
 Center     Atomic      Atomic             Coordinates (Angstroms)
 Number     Number       Type             X           Y           Z
 ---------------------------------------------------------------------
      1          6           0       -0.679794    0.349947    0.013736
      2          8           0       -1.785986   -0.126732   -0.007842
      3          6           0        0.556451   -0.449513    0.002363
      4          6           0        1.751816    0.141546   -0.009876
      5          1           0        0.455785   -1.504428    0.016617
      6          1           0        1.823040    1.204404    0.010463
      7          1           0        2.748081   -0.410959    0.003804
      8          1           0       -0.509854    1.472956   -0.005479
 ---------------------------------------------------------------------

 SCF Done:  E(RB2PLYPD3) =  -191.613827008     A.U. after   12 cycles
 E2(B2PLYPD3) =    -0.2472087287D+00 E(B2PLYPD3) =    -0.19186103573670D+03

 The electronic state is 1-A.
 Alpha  occ. eigenvalues --  -19.72965 -10.71913 -10.65822 -10.64208  -1.20003
 Alpha  occ. eigenvalues --   -0.92905  -0.74932  -0.67039  -0.56565  -0.56049
 Alpha  occ. eigenvalues --   -0.50575  -0.47073  -0.46732  -0.34703  -0.33848
 Alpha virt. eigenvalues --   -0.01664   0.05669   0.07174   0.08186   0.09718
 Alpha virt. eigenvalues --    0.12414   0.13982   0.15381   0.17605   0.19863
 Alpha virt. eigenvalues --    0.19990   0.21186   0.25540   0.26258   0.28828

 Mulliken charges:
               1
     1  C    0.154891
     2  O   -0.342229
     3  C   -0.037745
     4  C   -0.129062
     5  H    0.108349
     6  H    0.083755
     7  H    0.097232
     8  H    0.064808
 Sum of Mulliken charges =   0.00000

 Dipole moment (field-independent basis, Debye):
    X=              3.4309    Y=              0.7469    Z=              0.0588  Tot=              3.5117
 Quadrupole moment (field-independent basis, Debye-Ang):
   XX=            -27.2518   YY=            -21.8954   ZZ=            -25.2533
   XY=             -0.9212   XZ=              0.0045   YZ=             -0.0158

 Normal termination of Gaussian 09 at Wed Aug 26 12:30:43 2020.
