 Gaussian 09, Revision D.01,
 Gaussian 09:  ES64L-G09RevD.01 24-Apr-2013

 --------------------
 #p B2PLYPD3/Def2QZVP
 --------------------

 --------
 acrolein
 --------
 Symbolic Z-matrix:
 Charge =  0 Multiplicity = 1

                         Standard orientation:
 ---------------------------------------------------------------------
 Center     Atomic      Atomic             Coordinates (Angstroms)
 Number     Number       Type             X           Y           Z
 ---------------------------------------------------------------------
      1          6           0       -0.672956    0.348978   -0.006012
      2          8           0       -1.784537   -0.121156    0.016712
      3          6           0        0.545436   -0.443688   -0.021670
      4          6           0        1.758975    0.141268    0.001061
      5          1           0        0.433607   -1.567846   -0.063985
      6          1           0        1.838853    1.208938   -0.057268
      7          1           0        2.752646   -0.406951    0.147792
      8          1           0       -0.537536    1.455754   -0.000510
 ---------------------------------------------------------------------

 SCF Done:  E(RB2PLYPD3) =  -191.610664540     A.U. after   13 cycles
 E2(B2PLYPD3) =    -0.2479124041D+00 E(B2PLYPD3) =    -0.19185857694422D+03

 The electronic state is 1-A.
 Alpha  occ. eigenvalues --  -19.72704 -10.71531 -10.66359 -10.65092  -1.19732
 Alpha  occ. eigenvalues --   -0.92646  -0.75245  -0.66456  -0.56762  -0.55689
 Alpha  occ. eigenvalues --   -0.50184  -0.47110  -0.46077  -0.34450  -0.33816
 Alpha virt. eigenvalues --   -0.02058   0.05601   0.06886   0.08273   0.09663
 Alpha virt. eigenvalues --    0.12293   0.14142   0.15357   0.17246   0.19674
 Alpha virt. eigenvalues --    0.19958   0.21334   0.25354   0.26306   0.28944

 Mulliken charges:
               1
     1  C    0.153481
     2  O   -0.345725
     3  C   -0.035253
     4  C   -0.128480
     5  H    0.103086
     6  H    0.084498
     7  H    0.100965
     8  H    0.067429
 Sum of Mulliken charges =   0.00000

 Dipole moment (field-independent basis, Debye):
    X=              3.5124    Y=              0.7761    Z=             -0.0214  Tot=              3.5972
 Quadrupole moment (field-independent basis, Debye-Ang):
   XX=            -27.2496   YY=            -21.8587   ZZ=            -25.3222
   XY=             -0.9043   XZ=              0.3370   YZ=             -0.0591

 Normal termination of Gaussian 09 at Wed Aug 26 09:14:47 2020.
