 Gaussian 09, Revision D.01,
 Gaussian 09:  ES64L-G09RevD.01 24-Apr-2013

 --------------------
 #p B2PLYPD3/Def2QZVP
 --------------------

 --------
 acrolein
 --------
 Symbolic Z-matrix:
 Charge =  0 Multiplicity = 1

                         Standard orientation:
 ---------------------------------------------------------------------
 Center     Atomic      Atomic             Coordinates (Angstroms)
 Number     Number       Type             X           Y           Z
 ---------------------------------------------------------------------
      1          6           0        0.664467    0.343421    0.025663
      2          8           0        1.792218   -0.113796   -0.016121
      3          6           0       -0.562710   -0.469853   -0.000175
      4          6           0       -1.743320    0.154997   -0.015181
      5          1           0       -0.482368   -1.541261    0.027062
      6          1           0       -1.830448    1.254345   -0.040858
      7          1           0       -2.683824   -0.416174    0.041798
      8          1           0        0.508273    1.442068    0.039127
 ---------------------------------------------------------------------

 SCF Done:  E(RB2PLYPD3) =  -191.615381560     A.U. after   12 cycles
 E2(B2PLYPD3) =    -0.2477307108D+00 E(B2PLYPD3) =    -0.19186311227089D+03

 The electronic state is 1-A.
 Alpha  occ. eigenvalues --  -19.72713 -10.71687 -10.65938 -10.64531  -1.19015
 Alpha  occ. eigenvalues --   -0.92988  -0.74985  -0.67052  -0.56371  -0.56107
 Alpha  occ. eigenvalues --   -0.50220  -0.47014  -0.46485  -0.34659  -0.33782
 Alpha virt. eigenvalues --   -0.01759   0.05665   0.07034   0.07969   0.09670
 Alpha virt. eigenvalues --    0.12511   0.14044   0.15310   0.17513   0.19668
 Alpha virt. eigenvalues --    0.20005   0.21369   0.25316   0.26389   0.28809

 Mulliken charges:
               1
     1  C    0.153394
     2  O   -0.351503
     3  C   -0.039556
     4  C   -0.127823
     5  H    0.108079
     6  H    0.086415
     7  H    0.098098
     8  H    0.072895
 Sum of Mulliken charges =   0.00000

 Dipole moment (field-independent basis, Debye):
    X=             -3.5464    Y=              0.7318    Z=              0.1060  Tot=              3.6226
 Quadrupole moment (field-independent basis, Debye-Ang):
   XX=            -27.6519   YY=            -21.5965   ZZ=            -25.2841
   XY=              0.8944   XZ=              0.0155   YZ=             -0.1010

 Normal termination of Gaussian 09 at Wed Aug 26 14:38:12 2020.
