 Gaussian 09, Revision D.01,
 Gaussian 09:  ES64L-G09RevD.01 24-Apr-2013

 --------------------
 #p B2PLYPD3/Def2QZVP
 --------------------

 --------
 acrolein
 --------
 Symbolic Z-matrix:
 Charge =  0 Multiplicity = 1

                         Standard orientation:
 ---------------------------------------------------------------------
 Center     Atomic      Atomic             Coordinates (Angstroms)
 Number     Number       Type             X           Y           Z
 ---------------------------------------------------------------------
      1          6           0        0.658103    0.331516   -0.014734
      2          8           0        1.788271   -0.090901    0.046041
      3          6           0       -0.551237   -0.511750   -0.082469
      4          6           0       -1.749385    0.159822    0.053246
      5          1           0       -0.518049   -1.525296   -0.075534
      6          1           0       -1.812346    1.380226   -0.097790
      7          1           0       -2.626562   -0.378108    0.180530
      8          1           0        0.505896    1.372866   -0.111789
 ---------------------------------------------------------------------

 SCF Done:  E(RB2PLYPD3) =  -191.592737131     A.U. after   13 cycles
 E2(B2PLYPD3) =    -0.2483230112D+00 E(B2PLYPD3) =    -0.19184106014235D+03

 The electronic state is 1-A.
 Alpha  occ. eigenvalues --  -19.72283 -10.70914 -10.67152 -10.64573  -1.19340
 Alpha  occ. eigenvalues --   -0.92306  -0.75080  -0.68133  -0.56765  -0.55807
 Alpha  occ. eigenvalues --   -0.50079  -0.47372  -0.46297  -0.33961  -0.33557
 Alpha virt. eigenvalues --   -0.02022   0.05282   0.07005   0.07853   0.09509
 Alpha virt. eigenvalues --    0.12240   0.14195   0.15297   0.17870   0.19223
 Alpha virt. eigenvalues --    0.19995   0.21264   0.24275   0.26355   0.28804

 Mulliken charges:
               1
     1  C    0.158673
     2  O   -0.351110
     3  C   -0.055948
     4  C   -0.130381
     5  H    0.112971
     6  H    0.081457
     7  H    0.103210
     8  H    0.081129
 Sum of Mulliken charges =   0.00000

 Dipole moment (field-independent basis, Debye):
    X=             -3.5812    Y=              0.6422    Z=             -0.1419  Tot=              3.6410
 Quadrupole moment (field-independent basis, Debye-Ang):
   XX=            -27.7928   YY=            -21.4076   ZZ=            -25.3248
   XY=              0.9352   XZ=             -0.5309   YZ=             -0.2160

 Normal termination of Gaussian 09 at Wed Aug 26 13:42:43 2020.
