 Gaussian 09, Revision D.01,
 Gaussian 09:  ES64L-G09RevD.01 24-Apr-2013

 --------------------
 #p B2PLYPD3/Def2QZVP
 --------------------

 --------
 acrolein
 --------
 Symbolic Z-matrix:
 Charge =  0 Multiplicity = 1

                         Standard orientation:
 ---------------------------------------------------------------------
 Center     Atomic      Atomic             Coordinates (Angstroms)
 Number     Number       Type             X           Y           Z
 ---------------------------------------------------------------------
      1          6           0        0.640247    0.343138    0.040002
      2          8           0        1.785918   -0.128566   -0.044496
      3          6           0       -0.549794   -0.389687    0.101019
      4          6           0       -1.740607    0.112953   -0.068207
      5          1           0       -0.311792   -1.494841   -0.063736
      6          1           0       -1.738030    1.141232    0.029300
      7          1           0       -2.760075   -0.475479   -0.048281
      8          1           0        0.423473    1.459186    0.001802
 ---------------------------------------------------------------------

 SCF Done:  E(RB2PLYPD3) =  -191.589748389     A.U. after   13 cycles
 E2(B2PLYPD3) =    -0.2499391783D+00 E(B2PLYPD3) =    -0.19183968756732D+03

 The electronic state is 1-A.
 Alpha  occ. eigenvalues --  -19.73092 -10.71844 -10.66259 -10.64203  -1.17891
 Alpha  occ. eigenvalues --   -0.95131  -0.76919  -0.66266  -0.56608  -0.55999
 Alpha  occ. eigenvalues --   -0.50323  -0.46684  -0.44721  -0.35489  -0.34120
 Alpha virt. eigenvalues --   -0.02920   0.05446   0.06692   0.08327   0.10047
 Alpha virt. eigenvalues --    0.12346   0.13174   0.14793   0.17346   0.19478
 Alpha virt. eigenvalues --    0.20411   0.21291   0.24217   0.26870   0.28800

 Mulliken charges:
               1
     1  C    0.161881
     2  O   -0.366634
     3  C   -0.011369
     4  C   -0.111067
     5  H    0.092442
     6  H    0.080788
     7  H    0.108768
     8  H    0.045192
 Sum of Mulliken charges =   0.00000

 Dipole moment (field-independent basis, Debye):
    X=             -3.7938    Y=              0.7382    Z=              0.0705  Tot=              3.8656
 Quadrupole moment (field-independent basis, Debye-Ang):
   XX=            -27.1225   YY=            -22.4181   ZZ=            -25.1368
   XY=              0.9385   XZ=              0.3094   YZ=              0.2251

 Normal termination of Gaussian 09 at Wed Aug 26 11:45:23 2020.
