 Gaussian 09, Revision D.01,
 Gaussian 09:  ES64L-G09RevD.01 24-Apr-2013

 --------------------
 #p B2PLYPD3/Def2QZVP
 --------------------

 --------
 acrolein
 --------
 Symbolic Z-matrix:
 Charge =  0 Multiplicity = 1

                         Standard orientation:
 ---------------------------------------------------------------------
 Center     Atomic      Atomic             Coordinates (Angstroms)
 Number     Number       Type             X           Y           Z
 ---------------------------------------------------------------------
      1          6           0       -0.668783    0.355395    0.037310
      2          8           0       -1.776082   -0.134022   -0.016261
      3          6           0        0.545025   -0.423155   -0.012601
      4          6           0        1.758016    0.128241   -0.023844
      5          1           0        0.373725   -1.539926    0.025894
      6          1           0        1.798665    1.170653   -0.066305
      7          1           0        2.739895   -0.439520    0.124690
      8          1           0       -0.509168    1.518089    0.040615
 ---------------------------------------------------------------------

 SCF Done:  E(RB2PLYPD3) =  -191.606242490     A.U. after   12 cycles
 E2(B2PLYPD3) =    -0.2483473035D+00 E(B2PLYPD3) =    -0.19185458979350D+03

 The electronic state is 1-A.
 Alpha  occ. eigenvalues --  -19.73028 -10.72129 -10.65887 -10.64733  -1.19675
 Alpha  occ. eigenvalues --   -0.93222  -0.75536  -0.65854  -0.56511  -0.55989
 Alpha  occ. eigenvalues --   -0.50364  -0.47052  -0.46043  -0.34741  -0.33868
 Alpha virt. eigenvalues --   -0.02188   0.05657   0.06753   0.08369   0.09871
 Alpha virt. eigenvalues --    0.12276   0.13840   0.15352   0.16975   0.19625
 Alpha virt. eigenvalues --    0.20105   0.21470   0.25500   0.26347   0.29004

 Mulliken charges:
               1
     1  C    0.159851
     2  O   -0.345500
     3  C   -0.027486
     4  C   -0.128850
     5  H    0.099511
     6  H    0.085911
     7  H    0.105898
     8  H    0.050664
 Sum of Mulliken charges =   0.00000

 Dipole moment (field-independent basis, Debye):
    X=              3.4823    Y=              0.7397    Z=              0.1638  Tot=              3.5637
 Quadrupole moment (field-independent basis, Debye-Ang):
   XX=            -27.1696   YY=            -22.0531   ZZ=            -25.2886
   XY=             -0.9391   XZ=              0.1720   YZ=             -0.1830

 Normal termination of Gaussian 09 at Wed Aug 26 20:44:51 2020.
