 Gaussian 09, Revision D.01,
 Gaussian 09:  ES64L-G09RevD.01 24-Apr-2013

 --------------------
 #p B2PLYPD3/Def2QZVP
 --------------------

 --------
 acrolein
 --------
 Symbolic Z-matrix:
 Charge =  0 Multiplicity = 1

                         Standard orientation:
 ---------------------------------------------------------------------
 Center     Atomic      Atomic             Coordinates (Angstroms)
 Number     Number       Type             X           Y           Z
 ---------------------------------------------------------------------
      1          6           0       -0.656512    0.339697   -0.029997
      2          8           0       -1.791988   -0.105664    0.015326
      3          6           0        0.573219   -0.473359   -0.031255
      4          6           0        1.743639    0.151590    0.023804
      5          1           0        0.464801   -1.535546    0.047864
      6          1           0        1.828035    1.275324   -0.046698
      7          1           0        2.609913   -0.390061    0.024375
      8          1           0       -0.528924    1.388035    0.076535
 ---------------------------------------------------------------------

 SCF Done:  E(RB2PLYPD3) =  -191.610062229     A.U. after   12 cycles
 E2(B2PLYPD3) =    -0.2471033731D+00 E(B2PLYPD3) =    -0.19185716560188D+03

 The electronic state is 1-A.
 Alpha  occ. eigenvalues --  -19.72532 -10.71064 -10.65234 -10.64384  -1.18734
 Alpha  occ. eigenvalues --   -0.93361  -0.75776  -0.67573  -0.57006  -0.56350
 Alpha  occ. eigenvalues --   -0.50441  -0.47274  -0.46245  -0.34845  -0.33692
 Alpha virt. eigenvalues --   -0.01700   0.05760   0.07245   0.07810   0.09698
 Alpha virt. eigenvalues --    0.12668   0.14133   0.15250   0.17597   0.19576
 Alpha virt. eigenvalues --    0.20040   0.21862   0.24917   0.26847   0.28819

 Mulliken charges:
               1
     1  C    0.154819
     2  O   -0.356845
     3  C   -0.046833
     4  C   -0.124902
     5  H    0.108874
     6  H    0.083490
     7  H    0.102252
     8  H    0.079144
 Sum of Mulliken charges =   0.00000

 Dipole moment (field-independent basis, Debye):
    X=              3.5743    Y=              0.7300    Z=             -0.0116  Tot=              3.6481
 Quadrupole moment (field-independent basis, Debye-Ang):
   XX=            -27.7224   YY=            -21.5213   ZZ=            -25.1319
   XY=             -0.8852   XZ=              0.0729   YZ=             -0.1300

 Normal termination of Gaussian 09 at Wed Aug 26 09:06:02 2020.
