 Gaussian 09, Revision D.01,
 Gaussian 09:  ES64L-G09RevD.01 24-Apr-2013

 --------------------
 #p B2PLYPD3/Def2QZVP
 --------------------

 --------
 acrolein
 --------
 Symbolic Z-matrix:
 Charge =  0 Multiplicity = 1

                         Standard orientation:
 ---------------------------------------------------------------------
 Center     Atomic      Atomic             Coordinates (Angstroms)
 Number     Number       Type             X           Y           Z
 ---------------------------------------------------------------------
      1          6           0       -0.668270    0.340545    0.001024
      2          8           0       -1.798399   -0.107590    0.011738
      3          6           0        0.566733   -0.458735   -0.026031
      4          6           0        1.758197    0.149882    0.006117
      5          1           0        0.451448   -1.542431   -0.010972
      6          1           0        1.868934    1.256436   -0.002519
      7          1           0        2.644173   -0.430406    0.070747
      8          1           0       -0.517321    1.386963   -0.037813
 ---------------------------------------------------------------------

 SCF Done:  E(RB2PLYPD3) =  -191.614331816     A.U. after   12 cycles
 E2(B2PLYPD3) =    -0.2471994847D+00 E(B2PLYPD3) =    -0.19186153130055D+03

 The electronic state is 1-A.
 Alpha  occ. eigenvalues --  -19.72642 -10.71046 -10.65732 -10.64626  -1.19061
 Alpha  occ. eigenvalues --   -0.92957  -0.75772  -0.67380  -0.56500  -0.56441
 Alpha  occ. eigenvalues --   -0.50511  -0.47055  -0.46457  -0.34634  -0.33808
 Alpha virt. eigenvalues --   -0.01866   0.05700   0.07198   0.08138   0.09657
 Alpha virt. eigenvalues --    0.12605   0.14050   0.15329   0.17570   0.19537
 Alpha virt. eigenvalues --    0.19990   0.21732   0.25311   0.26626   0.28583

 Mulliken charges:
               1
     1  C    0.157371
     2  O   -0.354757
     3  C   -0.041854
     4  C   -0.131921
     5  H    0.104215
     6  H    0.086918
     7  H    0.103280
     8  H    0.076749
 Sum of Mulliken charges =   0.00000

 Dipole moment (field-independent basis, Debye):
    X=              3.5682    Y=              0.7554    Z=              0.0119  Tot=              3.6473
 Quadrupole moment (field-independent basis, Debye-Ang):
   XX=            -27.6258   YY=            -21.5971   ZZ=            -25.2117
   XY=             -0.8266   XZ=              0.2373   YZ=             -0.0583

 Normal termination of Gaussian 09 at Wed Aug 26 18:47:42 2020.
