 Gaussian 09, Revision D.01,
 Gaussian 09:  ES64L-G09RevD.01 24-Apr-2013

 --------------------
 #p B2PLYPD3/Def2QZVP
 --------------------

 --------
 acrolein
 --------
 Symbolic Z-matrix:
 Charge =  0 Multiplicity = 1

                         Standard orientation:
 ---------------------------------------------------------------------
 Center     Atomic      Atomic             Coordinates (Angstroms)
 Number     Number       Type             X           Y           Z
 ---------------------------------------------------------------------
      1          6           0        0.666254    0.324683   -0.034659
      2          8           0        1.792006   -0.092889    0.029953
      3          6           0       -0.552745   -0.463517   -0.007029
      4          6           0       -1.756324    0.147611    0.010005
      5          1           0       -0.391165   -1.546108   -0.036261
      6          1           0       -1.928458    1.253168    0.119492
      7          1           0       -2.664108   -0.431633   -0.023515
      8          1           0        0.504578    1.415025   -0.109248
 ---------------------------------------------------------------------

 SCF Done:  E(RB2PLYPD3) =  -191.613115791     A.U. after   13 cycles
 E2(B2PLYPD3) =    -0.2473235079D+00 E(B2PLYPD3) =    -0.19186043929906D+03

 The electronic state is 1-A.
 Alpha  occ. eigenvalues --  -19.72582 -10.71025 -10.66425 -10.64891  -1.19848
 Alpha  occ. eigenvalues --   -0.92787  -0.75754  -0.66587  -0.56795  -0.55888
 Alpha  occ. eigenvalues --   -0.50520  -0.46942  -0.46857  -0.34538  -0.33581
 Alpha virt. eigenvalues --   -0.02069   0.05627   0.07151   0.08410   0.09658
 Alpha virt. eigenvalues --    0.12495   0.14036   0.15325   0.17424   0.19375
 Alpha virt. eigenvalues --    0.20087   0.21628   0.25075   0.26662   0.28329

 Mulliken charges:
               1
     1  C    0.159795
     2  O   -0.347851
     3  C   -0.038917
     4  C   -0.128712
     5  H    0.104688
     6  H    0.091415
     7  H    0.100740
     8  H    0.058843
 Sum of Mulliken charges =   0.00000

 Dipole moment (field-independent basis, Debye):
    X=             -3.5841    Y=              0.6399    Z=             -0.0908  Tot=              3.6419
 Quadrupole moment (field-independent basis, Debye-Ang):
   XX=            -27.3202   YY=            -21.8001   ZZ=            -25.2579
   XY=              0.4899   XZ=             -0.2784   YZ=              0.1912

 Normal termination of Gaussian 09 at Wed Aug 26 09:58:52 2020.
