 Gaussian 09, Revision D.01,
 Gaussian 09:  ES64L-G09RevD.01 24-Apr-2013

 --------------------
 #p B2PLYPD3/Def2QZVP
 --------------------

 --------
 acrolein
 --------
 Symbolic Z-matrix:
 Charge =  0 Multiplicity = 1

                         Standard orientation:
 ---------------------------------------------------------------------
 Center     Atomic      Atomic             Coordinates (Angstroms)
 Number     Number       Type             X           Y           Z
 ---------------------------------------------------------------------
      1          6           0        0.690670    0.346383   -0.050842
      2          8           0        1.758366   -0.151169    0.064830
      3          6           0       -0.519363   -0.414729   -0.048271
      4          6           0       -1.763392    0.130565    0.034913
      5          1           0       -0.489908   -1.436102   -0.100374
      6          1           0       -1.778007    1.054561    0.306697
      7          1           0       -2.773507   -0.396881   -0.058443
      8          1           0        0.527004    1.614461   -0.281316
 ---------------------------------------------------------------------

 SCF Done:  E(RB2PLYPD3) =  -191.575894125     A.U. after   13 cycles
 E2(B2PLYPD3) =    -0.2481813605D+00 E(B2PLYPD3) =    -0.19182407548517D+03

 The electronic state is 1-A.
 Alpha  occ. eigenvalues --  -19.73435 -10.72885 -10.65189 -10.63898  -1.21803
 Alpha  occ. eigenvalues --   -0.93275  -0.76181  -0.66457  -0.56749  -0.56396
 Alpha  occ. eigenvalues --   -0.50807  -0.48104  -0.47357  -0.34079  -0.33624
 Alpha virt. eigenvalues --   -0.02398   0.05822   0.06554   0.08446   0.09830
 Alpha virt. eigenvalues --    0.12374   0.13633   0.15526   0.17111   0.19392
 Alpha virt. eigenvalues --    0.20185   0.21712   0.24577   0.26262   0.28877

 Mulliken charges:
               1
     1  C    0.155164
     2  O   -0.316905
     3  C   -0.032758
     4  C   -0.131268
     5  H    0.106415
     6  H    0.091034
     7  H    0.101407
     8  H    0.026910
 Sum of Mulliken charges =   0.00000

 Dipole moment (field-independent basis, Debye):
    X=             -3.3608    Y=              0.5195    Z=             -0.1047  Tot=              3.4023
 Quadrupole moment (field-independent basis, Debye-Ang):
   XX=            -26.4009   YY=            -22.6208   ZZ=            -25.1303
   XY=              1.0647   XZ=             -0.5281   YZ=              0.4123

 Normal termination of Gaussian 09 at Wed Aug 26 14:18:40 2020.
