 Gaussian 09, Revision D.01,
 Gaussian 09:  ES64L-G09RevD.01 24-Apr-2013

 --------------------
 #p B2PLYPD3/Def2QZVP
 --------------------

 --------
 acrolein
 --------
 Symbolic Z-matrix:
 Charge =  0 Multiplicity = 1

                         Standard orientation:
 ---------------------------------------------------------------------
 Center     Atomic      Atomic             Coordinates (Angstroms)
 Number     Number       Type             X           Y           Z
 ---------------------------------------------------------------------
      1          6           0       -0.698336    0.359856    0.023368
      2          8           0       -1.777151   -0.145193   -0.025785
      3          6           0        0.538431   -0.431377    0.051557
      4          6           0        1.767025    0.129356   -0.030145
      5          1           0        0.526946   -1.439362   -0.029935
      6          1           0        1.801463    1.186888    0.010411
      7          1           0        2.703999   -0.450784   -0.043722
      8          1           0       -0.457921    1.517794    0.000845
 ---------------------------------------------------------------------

 SCF Done:  E(RB2PLYPD3) =  -191.604893199     A.U. after   13 cycles
 E2(B2PLYPD3) =    -0.2473736485D+00 E(B2PLYPD3) =    -0.19185226684751D+03

 The electronic state is 1-A.
 Alpha  occ. eigenvalues --  -19.73333 -10.72462 -10.65440 -10.63514  -1.21063
 Alpha  occ. eigenvalues --   -0.92728  -0.75091  -0.67212  -0.56713  -0.56168
 Alpha  occ. eigenvalues --   -0.50808  -0.47718  -0.47085  -0.34393  -0.33896
 Alpha virt. eigenvalues --   -0.01816   0.05793   0.07220   0.08221   0.09839
 Alpha virt. eigenvalues --    0.12541   0.13604   0.15323   0.18064   0.19759
 Alpha virt. eigenvalues --    0.19949   0.21173   0.25176   0.26343   0.28691

 Mulliken charges:
               1
     1  C    0.154038
     2  O   -0.327527
     3  C   -0.034101
     4  C   -0.132574
     5  H    0.105199
     6  H    0.077657
     7  H    0.102094
     8  H    0.055215
 Sum of Mulliken charges =   0.00000

 Dipole moment (field-independent basis, Debye):
    X=              3.3257    Y=              0.7027    Z=              0.0178  Tot=              3.3992
 Quadrupole moment (field-independent basis, Debye-Ang):
   XX=            -27.0157   YY=            -22.0903   ZZ=            -25.2362
   XY=             -1.2137   XZ=             -0.2521   YZ=              0.1121

 Normal termination of Gaussian 09 at Wed Aug 26 08:35:04 2020.
