 Gaussian 09, Revision D.01,
 Gaussian 09:  ES64L-G09RevD.01 24-Apr-2013

 --------------------
 #p B2PLYPD3/Def2QZVP
 --------------------

 --------
 acrolein
 --------
 Symbolic Z-matrix:
 Charge =  0 Multiplicity = 1

                         Standard orientation:
 ---------------------------------------------------------------------
 Center     Atomic      Atomic             Coordinates (Angstroms)
 Number     Number       Type             X           Y           Z
 ---------------------------------------------------------------------
      1          6           0       -0.692847    0.369992    0.030690
      2          8           0       -1.775058   -0.151133   -0.043310
      3          6           0        0.563898   -0.428854    0.098820
      4          6           0        1.761667    0.118704   -0.059797
      5          1           0        0.537073   -1.359299   -0.038825
      6          1           0        1.762162    1.222424    0.053879
      7          1           0        2.622062   -0.422240   -0.098351
      8          1           0       -0.517142    1.409127    0.011501
 ---------------------------------------------------------------------

 SCF Done:  E(RB2PLYPD3) =  -191.589084139     A.U. after   13 cycles
 E2(B2PLYPD3) =    -0.2459795705D+00 E(B2PLYPD3) =    -0.19183506370985D+03

 The electronic state is 1-A.
 Alpha  occ. eigenvalues --  -19.73033 -10.71441 -10.64473 -10.62262  -1.20146
 Alpha  occ. eigenvalues --   -0.93592  -0.75806  -0.69315  -0.58009  -0.56539
 Alpha  occ. eigenvalues --   -0.51470  -0.47115  -0.46843  -0.34766  -0.34062
 Alpha virt. eigenvalues --   -0.01478   0.05939   0.07581   0.07955   0.09882
 Alpha virt. eigenvalues --    0.12535   0.13945   0.15245   0.18567   0.19655
 Alpha virt. eigenvalues --    0.19809   0.21597   0.24296   0.26758   0.28973

 Mulliken charges:
               1
     1  C    0.155307
     2  O   -0.340824
     3  C   -0.055200
     4  C   -0.120641
     5  H    0.109574
     6  H    0.065216
     7  H    0.100617
     8  H    0.085952
 Sum of Mulliken charges =   0.00000

 Dipole moment (field-independent basis, Debye):
    X=              3.2796    Y=              0.8591    Z=              0.0390  Tot=              3.3904
 Quadrupole moment (field-independent basis, Debye-Ang):
   XX=            -27.3229   YY=            -21.8463   ZZ=            -24.9188
   XY=             -1.5281   XZ=             -0.4450   YZ=              0.2531

 Normal termination of Gaussian 09 at Wed Aug 26 11:57:10 2020.
