 Gaussian 09, Revision D.01,
 Gaussian 09:  ES64L-G09RevD.01 24-Apr-2013

 --------------------
 #p B2PLYPD3/Def2QZVP
 --------------------

 --------
 acrolein
 --------
 Symbolic Z-matrix:
 Charge =  0 Multiplicity = 1

                         Standard orientation:
 ---------------------------------------------------------------------
 Center     Atomic      Atomic             Coordinates (Angstroms)
 Number     Number       Type             X           Y           Z
 ---------------------------------------------------------------------
      1          6           0       -0.678665    0.354827    0.012662
      2          8           0       -1.769578   -0.132742   -0.021305
      3          6           0        0.549182   -0.438380    0.011545
      4          6           0        1.753605    0.139738   -0.019688
      5          1           0        0.468207   -1.492466    0.071085
      6          1           0        1.825685    1.187476   -0.038870
      7          1           0        2.681166   -0.415894    0.005953
      8          1           0       -0.563170    1.445712    0.105152
 ---------------------------------------------------------------------

 SCF Done:  E(RB2PLYPD3) =  -191.616316989     A.U. after   12 cycles
 E2(B2PLYPD3) =    -0.2459400212D+00 E(B2PLYPD3) =    -0.19186225701036D+03

 The electronic state is 1-A.
 Alpha  occ. eigenvalues --  -19.72636 -10.71212 -10.64957 -10.63932  -1.20449
 Alpha  occ. eigenvalues --   -0.92965  -0.75494  -0.67465  -0.57210  -0.56491
 Alpha  occ. eigenvalues --   -0.50756  -0.47488  -0.46960  -0.34533  -0.33809
 Alpha virt. eigenvalues --   -0.01534   0.05866   0.07283   0.08405   0.09774
 Alpha virt. eigenvalues --    0.12601   0.14205   0.15414   0.17697   0.19708
 Alpha virt. eigenvalues --    0.20137   0.21572   0.25547   0.26387   0.28941

 Mulliken charges:
               1
     1  C    0.148820
     2  O   -0.339869
     3  C   -0.040699
     4  C   -0.133263
     5  H    0.107408
     6  H    0.083369
     7  H    0.100505
     8  H    0.073728
 Sum of Mulliken charges =   0.00000

 Dipole moment (field-independent basis, Debye):
    X=              3.3756    Y=              0.7949    Z=              0.1320  Tot=              3.4704
 Quadrupole moment (field-independent basis, Debye-Ang):
   XX=            -27.1835   YY=            -21.7836   ZZ=            -25.1040
   XY=             -1.0986   XZ=             -0.1170   YZ=             -0.1037

 Normal termination of Gaussian 09 at Wed Aug 26 18:55:23 2020.
