 Gaussian 09, Revision D.01,
 Gaussian 09:  ES64L-G09RevD.01 24-Apr-2013

 --------------------
 #p B2PLYPD3/Def2QZVP
 --------------------

 --------
 acrolein
 --------
 Symbolic Z-matrix:
 Charge =  0 Multiplicity = 1

                         Standard orientation:
 ---------------------------------------------------------------------
 Center     Atomic      Atomic             Coordinates (Angstroms)
 Number     Number       Type             X           Y           Z
 ---------------------------------------------------------------------
      1          6           0       -0.656925    0.359943   -0.039813
      2          8           0       -1.776740   -0.131281    0.041531
      3          6           0        0.537479   -0.431960   -0.047085
      4          6           0        1.760456    0.123605    0.012659
      5          1           0        0.344599   -1.531480    0.035906
      6          1           0        1.748135    1.200866    0.224980
      7          1           0        2.700611   -0.472017   -0.005434
      8          1           0       -0.425487    1.543347   -0.142268
 ---------------------------------------------------------------------

 SCF Done:  E(RB2PLYPD3) =  -191.601380926     A.U. after   13 cycles
 E2(B2PLYPD3) =    -0.2501231269D+00 E(B2PLYPD3) =    -0.19185150405310D+03

 The electronic state is 1-A.
 Alpha  occ. eigenvalues --  -19.73187 -10.72542 -10.66515 -10.64744  -1.18934
 Alpha  occ. eigenvalues --   -0.93246  -0.75612  -0.65344  -0.56492  -0.55215
 Alpha  occ. eigenvalues --   -0.50298  -0.46892  -0.46083  -0.34458  -0.33921
 Alpha virt. eigenvalues --   -0.02617   0.05543   0.06633   0.07967   0.09981
 Alpha virt. eigenvalues --    0.12395   0.13201   0.15295   0.16865   0.19199
 Alpha virt. eigenvalues --    0.20337   0.21314   0.25047   0.26300   0.28948

 Mulliken charges:
               1
     1  C    0.167778
     2  O   -0.353628
     3  C   -0.032589
     4  C   -0.124007
     5  H    0.102449
     6  H    0.084123
     7  H    0.111934
     8  H    0.043939
 Sum of Mulliken charges =   0.00000

 Dipole moment (field-independent basis, Debye):
    X=              3.5718    Y=              0.6314    Z=              0.0427  Tot=              3.6274
 Quadrupole moment (field-independent basis, Debye-Ang):
   XX=            -27.4050   YY=            -22.0881   ZZ=            -25.3650
   XY=             -0.9921   XZ=              0.5234   YZ=              0.1477

 Normal termination of Gaussian 09 at Wed Aug 26 11:31:08 2020.
