 Gaussian 09, Revision D.01,
 Gaussian 09:  ES64L-G09RevD.01 24-Apr-2013

 --------------------
 #p B2PLYPD3/Def2QZVP
 --------------------

 --------
 acrolein
 --------
 Symbolic Z-matrix:
 Charge =  0 Multiplicity = 1

                         Standard orientation:
 ---------------------------------------------------------------------
 Center     Atomic      Atomic             Coordinates (Angstroms)
 Number     Number       Type             X           Y           Z
 ---------------------------------------------------------------------
      1          6           0       -0.680307    0.348454    0.010303
      2          8           0       -1.781713   -0.131788   -0.015183
      3          6           0        0.554897   -0.432079    0.029178
      4          6           0        1.758999    0.141768   -0.015041
      5          1           0        0.470675   -1.497421   -0.007645
      6          1           0        1.778219    1.171345   -0.003803
      7          1           0        2.711902   -0.424541   -0.033966
      8          1           0       -0.508627    1.456063    0.020243
 ---------------------------------------------------------------------

 SCF Done:  E(RB2PLYPD3) =  -191.613845287     A.U. after   12 cycles
 E2(B2PLYPD3) =    -0.2467131197D+00 E(B2PLYPD3) =    -0.19186055840674D+03

 The electronic state is 1-A.
 Alpha  occ. eigenvalues --  -19.72939 -10.71665 -10.65139 -10.64005  -1.20169
 Alpha  occ. eigenvalues --   -0.93214  -0.75556  -0.67209  -0.56891  -0.56385
 Alpha  occ. eigenvalues --   -0.50752  -0.47204  -0.47036  -0.34664  -0.33928
 Alpha virt. eigenvalues --   -0.01759   0.05817   0.07183   0.08407   0.09823
 Alpha virt. eigenvalues --    0.12608   0.13923   0.15373   0.17594   0.19890
 Alpha virt. eigenvalues --    0.20122   0.21442   0.25562   0.26314   0.28947

 Mulliken charges:
               1
     1  C    0.149779
     2  O   -0.341307
     3  C   -0.028089
     4  C   -0.135834
     5  H    0.102147
     6  H    0.084431
     7  H    0.104736
     8  H    0.064137
 Sum of Mulliken charges =   0.00000

 Dipole moment (field-independent basis, Debye):
    X=              3.4341    Y=              0.7544    Z=              0.0091  Tot=              3.5160
 Quadrupole moment (field-independent basis, Debye-Ang):
   XX=            -27.1875   YY=            -21.9444   ZZ=            -25.1528
   XY=             -1.1080   XZ=             -0.1762   YZ=              0.0509

 Normal termination of Gaussian 09 at Wed Aug 26 11:47:04 2020.
