 Gaussian 09, Revision D.01,
 Gaussian 09:  ES64L-G09RevD.01 24-Apr-2013

 --------------------
 #p B2PLYPD3/Def2QZVP
 --------------------

 --------
 acrolein
 --------
 Symbolic Z-matrix:
 Charge =  0 Multiplicity = 1

                         Standard orientation:
 ---------------------------------------------------------------------
 Center     Atomic      Atomic             Coordinates (Angstroms)
 Number     Number       Type             X           Y           Z
 ---------------------------------------------------------------------
      1          6           0        0.659842    0.338399    0.017095
      2          8           0        1.800506   -0.110442   -0.017073
      3          6           0       -0.566390   -0.454031    0.028663
      4          6           0       -1.756543    0.146135   -0.015428
      5          1           0       -0.415771   -1.539069   -0.012278
      6          1           0       -1.849291    1.209321   -0.002351
      7          1           0       -2.661540   -0.420058   -0.037632
      8          1           0        0.501101    1.450327    0.006863
 ---------------------------------------------------------------------

 SCF Done:  E(RB2PLYPD3) =  -191.615125438     A.U. after   12 cycles
 E2(B2PLYPD3) =    -0.2479934766D+00 E(B2PLYPD3) =    -0.19186311891465D+03

 The electronic state is 1-A.
 Alpha  occ. eigenvalues --  -19.72807 -10.71778 -10.65494 -10.64747  -1.18528
 Alpha  occ. eigenvalues --   -0.93355  -0.75942  -0.66725  -0.56650  -0.56389
 Alpha  occ. eigenvalues --   -0.50290  -0.47182  -0.46316  -0.34788  -0.33787
 Alpha virt. eigenvalues --   -0.02122   0.05739   0.07068   0.08146   0.09748
 Alpha virt. eigenvalues --    0.12605   0.13904   0.15275   0.17255   0.19916
 Alpha virt. eigenvalues --    0.19990   0.21723   0.25267   0.26503   0.28688

 Mulliken charges:
               1
     1  C    0.157519
     2  O   -0.358126
     3  C   -0.032307
     4  C   -0.128524
     5  H    0.104629
     6  H    0.089943
     7  H    0.103584
     8  H    0.063282
 Sum of Mulliken charges =   0.00000

 Dipole moment (field-independent basis, Debye):
    X=             -3.6526    Y=              0.7103    Z=              0.0125  Tot=              3.7210
 Quadrupole moment (field-independent basis, Debye-Ang):
   XX=            -27.5115   YY=            -21.7624   ZZ=            -25.2325
   XY=              0.7427   XZ=              0.1878   YZ=              0.0527

 Normal termination of Gaussian 09 at Wed Aug 26 15:27:52 2020.
