 Gaussian 09, Revision D.01,
 Gaussian 09:  ES64L-G09RevD.01 24-Apr-2013

 --------------------
 #p B2PLYPD3/Def2QZVP
 --------------------

 --------
 acrolein
 --------
 Symbolic Z-matrix:
 Charge =  0 Multiplicity = 1

                         Standard orientation:
 ---------------------------------------------------------------------
 Center     Atomic      Atomic             Coordinates (Angstroms)
 Number     Number       Type             X           Y           Z
 ---------------------------------------------------------------------
      1          6           0        0.655426    0.338321    0.044553
      2          8           0        1.813536   -0.100551   -0.067370
      3          6           0       -0.574700   -0.462326    0.091144
      4          6           0       -1.752473    0.144595   -0.078672
      5          1           0       -0.458661   -1.497597    0.096219
      6          1           0       -1.941005    1.308660    0.013532
      7          1           0       -2.584406   -0.474791   -0.102110
      8          1           0        0.506269    1.344602    0.189171
 ---------------------------------------------------------------------

 SCF Done:  E(RB2PLYPD3) =  -191.598414657     A.U. after   13 cycles
 E2(B2PLYPD3) =    -0.2486666437D+00 E(B2PLYPD3) =    -0.19184708130022D+03

 The electronic state is 1-A.
 Alpha  occ. eigenvalues --  -19.72634 -10.71014 -10.66295 -10.64371  -1.17368
 Alpha  occ. eigenvalues --   -0.93476  -0.76344  -0.68039  -0.56726  -0.55884
 Alpha  occ. eigenvalues --   -0.50373  -0.47155  -0.45391  -0.34723  -0.33858
 Alpha virt. eigenvalues --   -0.02285   0.05461   0.06903   0.08004   0.09524
 Alpha virt. eigenvalues --    0.12479   0.13810   0.15275   0.17900   0.18780
 Alpha virt. eigenvalues --    0.20044   0.21985   0.24385   0.26764   0.28035

 Mulliken charges:
               1
     1  C    0.160411
     2  O   -0.371099
     3  C   -0.050859
     4  C   -0.118429
     5  H    0.109639
     6  H    0.085452
     7  H    0.098836
     8  H    0.086048
 Sum of Mulliken charges =   0.00000

 Dipole moment (field-independent basis, Debye):
    X=             -3.7503    Y=              0.7382    Z=              0.2945  Tot=              3.8336
 Quadrupole moment (field-independent basis, Debye-Ang):
   XX=            -27.9642   YY=            -21.4582   ZZ=            -25.2048
   XY=              0.7331   XZ=              0.5268   YZ=              0.0815

 Normal termination of Gaussian 09 at Wed Aug 26 12:03:56 2020.
