 Gaussian 09, Revision D.01,
 Gaussian 09:  ES64L-G09RevD.01 24-Apr-2013

 --------------------
 #p B2PLYPD3/Def2QZVP
 --------------------

 --------
 acrolein
 --------
 Symbolic Z-matrix:
 Charge =  0 Multiplicity = 1

                         Standard orientation:
 ---------------------------------------------------------------------
 Center     Atomic      Atomic             Coordinates (Angstroms)
 Number     Number       Type             X           Y           Z
 ---------------------------------------------------------------------
      1          6           0        0.663579    0.338772   -0.023231
      2          8           0        1.776483   -0.100618    0.022255
      3          6           0       -0.576527   -0.511960   -0.026911
      4          6           0       -1.741396    0.173730    0.021053
      5          1           0       -0.533854   -1.541866    0.064101
      6          1           0       -1.829016    1.334447    0.124992
      7          1           0       -2.556829   -0.345787   -0.090266
      8          1           0        0.633898    1.354898   -0.102333
 ---------------------------------------------------------------------

 SCF Done:  E(RB2PLYPD3) =  -191.589254186     A.U. after   13 cycles
 E2(B2PLYPD3) =    -0.2461164159D+00 E(B2PLYPD3) =    -0.19183537060165D+03

 The electronic state is 1-A.
 Alpha  occ. eigenvalues --  -19.71990 -10.70290 -10.65086 -10.64484  -1.19950
 Alpha  occ. eigenvalues --   -0.92576  -0.75258  -0.68558  -0.57699  -0.56166
 Alpha  occ. eigenvalues --   -0.50165  -0.48134  -0.46474  -0.34258  -0.33220
 Alpha virt. eigenvalues --   -0.01245   0.05721   0.07412   0.07746   0.09588
 Alpha virt. eigenvalues --    0.12473   0.14205   0.15639   0.17751   0.19087
 Alpha virt. eigenvalues --    0.20230   0.21854   0.25058   0.26088   0.29133

 Mulliken charges:
               1
     1  C    0.151058
     2  O   -0.343492
     3  C   -0.065883
     4  C   -0.128522
     5  H    0.112745
     6  H    0.086118
     7  H    0.102330
     8  H    0.085647
 Sum of Mulliken charges =   0.00000

 Dipole moment (field-independent basis, Debye):
    X=             -3.4102    Y=              0.7458    Z=             -0.0296  Tot=              3.4910
 Quadrupole moment (field-independent basis, Debye-Ang):
   XX=            -27.7721   YY=            -21.1840   ZZ=            -25.1196
   XY=              1.0358   XZ=             -0.1661   YZ=              0.0568

 Normal termination of Gaussian 09 at Wed Aug 26 14:38:46 2020.
