 Gaussian 09, Revision D.01,
 Gaussian 09:  ES64L-G09RevD.01 24-Apr-2013

 --------------------
 #p B2PLYPD3/Def2QZVP
 --------------------

 --------
 acrolein
 --------
 Symbolic Z-matrix:
 Charge =  0 Multiplicity = 1

                         Standard orientation:
 ---------------------------------------------------------------------
 Center     Atomic      Atomic             Coordinates (Angstroms)
 Number     Number       Type             X           Y           Z
 ---------------------------------------------------------------------
      1          6           0       -0.693428    0.388561   -0.045882
      2          8           0       -1.786374   -0.154754    0.071081
      3          6           0        0.545969   -0.439583   -0.129760
      4          6           0        1.768376    0.110032    0.018427
      5          1           0        0.455408   -1.477396    0.054459
      6          1           0        1.943961    1.232367    0.146502
      7          1           0        2.678150   -0.459913    0.261369
      8          1           0       -0.512031    1.588915   -0.087682
 ---------------------------------------------------------------------

 SCF Done:  E(RB2PLYPD3) =  -191.597822828     A.U. after   13 cycles
 E2(B2PLYPD3) =    -0.2501672971D+00 E(B2PLYPD3) =    -0.19184799012534D+03

 The electronic state is 1-A.
 Alpha  occ. eigenvalues --  -19.73410 -10.73436 -10.66479 -10.64735  -1.19041
 Alpha  occ. eigenvalues --   -0.92160  -0.74523  -0.65948  -0.56279  -0.55193
 Alpha  occ. eigenvalues --   -0.50324  -0.46587  -0.45681  -0.34411  -0.33970
 Alpha virt. eigenvalues --   -0.02152   0.05371   0.06959   0.07322   0.09573
 Alpha virt. eigenvalues --    0.12049   0.13390   0.15282   0.17922   0.19214
 Alpha virt. eigenvalues --    0.19655   0.21558   0.24146   0.26165   0.28350

 Mulliken charges:
               1
     1  C    0.164524
     2  O   -0.345603
     3  C   -0.055063
     4  C   -0.108506
     5  H    0.114200
     6  H    0.069154
     7  H    0.094014
     8  H    0.067280
 Sum of Mulliken charges =   0.00000

 Dipole moment (field-independent basis, Debye):
    X=              3.4137    Y=              0.8379    Z=              0.1745  Tot=              3.5193
 Quadrupole moment (field-independent basis, Debye-Ang):
   XX=            -27.3981   YY=            -21.9206   ZZ=            -25.4312
   XY=             -1.0230   XZ=              1.2836   YZ=             -0.1729

 Normal termination of Gaussian 09 at Wed Aug 26 13:14:39 2020.
