 Gaussian 09, Revision D.01,
 Gaussian 09:  ES64L-G09RevD.01 24-Apr-2013

 --------------------
 #p B2PLYPD3/Def2QZVP
 --------------------

 --------
 acrolein
 --------
 Symbolic Z-matrix:
 Charge =  0 Multiplicity = 1

                         Standard orientation:
 ---------------------------------------------------------------------
 Center     Atomic      Atomic             Coordinates (Angstroms)
 Number     Number       Type             X           Y           Z
 ---------------------------------------------------------------------
      1          6           0        0.680646    0.355196   -0.028455
      2          8           0        1.779962   -0.127947    0.024220
      3          6           0       -0.547412   -0.435586   -0.026176
      4          6           0       -1.765225    0.131258    0.003226
      5          1           0       -0.448146   -1.497490    0.000525
      6          1           0       -1.826942    1.205835    0.042616
      7          1           0       -2.684648   -0.420959    0.074774
      8          1           0        0.511989    1.430981   -0.003243
 ---------------------------------------------------------------------

 SCF Done:  E(RB2PLYPD3) =  -191.616299803     A.U. after   12 cycles
 E2(B2PLYPD3) =    -0.2466668138D+00 E(B2PLYPD3) =    -0.19186296661662D+03

 The electronic state is 1-A.
 Alpha  occ. eigenvalues --  -19.72815 -10.71287 -10.65421 -10.64113  -1.20104
 Alpha  occ. eigenvalues --   -0.92830  -0.75763  -0.67396  -0.56708  -0.56597
 Alpha  occ. eigenvalues --   -0.50924  -0.47140  -0.46831  -0.34456  -0.33962
 Alpha virt. eigenvalues --   -0.01854   0.05787   0.07346   0.08344   0.09773
 Alpha virt. eigenvalues --    0.12590   0.14101   0.15424   0.17697   0.19772
 Alpha virt. eigenvalues --    0.19890   0.21609   0.25512   0.26468   0.28855

 Mulliken charges:
               1
     1  C    0.154460
     2  O   -0.344337
     3  C   -0.037150
     4  C   -0.134219
     5  H    0.104824
     6  H    0.079283
     7  H    0.104454
     8  H    0.072684
 Sum of Mulliken charges =   0.00000

 Dipole moment (field-independent basis, Debye):
    X=             -3.4304    Y=              0.7853    Z=              0.0170  Tot=              3.5192
 Quadrupole moment (field-independent basis, Debye-Ang):
   XX=            -27.2276   YY=            -21.8479   ZZ=            -25.1619
   XY=              1.0419   XZ=             -0.3783   YZ=             -0.0042

 Normal termination of Gaussian 09 at Wed Aug 26 15:11:01 2020.
