 Gaussian 09, Revision D.01,
 Gaussian 09:  ES64L-G09RevD.01 24-Apr-2013

 --------------------
 #p B2PLYPD3/Def2QZVP
 --------------------

 --------
 acrolein
 --------
 Symbolic Z-matrix:
 Charge =  0 Multiplicity = 1

                         Standard orientation:
 ---------------------------------------------------------------------
 Center     Atomic      Atomic             Coordinates (Angstroms)
 Number     Number       Type             X           Y           Z
 ---------------------------------------------------------------------
      1          6           0       -0.665726    0.355827   -0.043381
      2          8           0       -1.809285   -0.124502    0.051805
      3          6           0        0.607215   -0.468088   -0.055904
      4          6           0        1.768110    0.162178    0.007233
      5          1           0        0.459466   -1.504529   -0.104530
      6          1           0        1.783628    1.142695   -0.006113
      7          1           0        2.532601   -0.372337    0.291549
      8          1           0       -0.559011    1.430681   -0.043027
 ---------------------------------------------------------------------

 SCF Done:  E(RB2PLYPD3) =  -191.590498417     A.U. after   13 cycles
 E2(B2PLYPD3) =    -0.2477308295D+00 E(B2PLYPD3) =    -0.19183822924638D+03

 The electronic state is 1-A.
 Alpha  occ. eigenvalues --  -19.72910 -10.72022 -10.64514 -10.62972  -1.17523
 Alpha  occ. eigenvalues --   -0.93934  -0.76284  -0.68390  -0.58584  -0.56250
 Alpha  occ. eigenvalues --   -0.50417  -0.48955  -0.45379  -0.34784  -0.33647
 Alpha virt. eigenvalues --   -0.01925   0.05972   0.07298   0.07504   0.09853
 Alpha virt. eigenvalues --    0.12882   0.13991   0.15340   0.17432   0.19308
 Alpha virt. eigenvalues --    0.20370   0.22540   0.24667   0.26682   0.28437

 Mulliken charges:
               1
     1  C    0.145876
     2  O   -0.364603
     3  C   -0.037756
     4  C   -0.127118
     5  H    0.110412
     6  H    0.087200
     7  H    0.100664
     8  H    0.085325
 Sum of Mulliken charges =   0.00000

 Dipole moment (field-independent basis, Debye):
    X=              3.5194    Y=              0.8301    Z=             -0.0190  Tot=              3.6160
 Quadrupole moment (field-independent basis, Debye-Ang):
   XX=            -28.1269   YY=            -21.4564   ZZ=            -24.9282
   XY=             -0.9926   XZ=              0.9031   YZ=             -0.0583

 Normal termination of Gaussian 09 at Wed Aug 26 12:16:45 2020.
