 Gaussian 09, Revision D.01,
 Gaussian 09:  ES64L-G09RevD.01 24-Apr-2013

 --------------------
 #p B2PLYPD3/Def2QZVP
 --------------------

 --------
 acrolein
 --------
 Symbolic Z-matrix:
 Charge =  0 Multiplicity = 1

                         Standard orientation:
 ---------------------------------------------------------------------
 Center     Atomic      Atomic             Coordinates (Angstroms)
 Number     Number       Type             X           Y           Z
 ---------------------------------------------------------------------
      1          6           0       -0.680146    0.357471    0.055572
      2          8           0       -1.771279   -0.134651   -0.040806
      3          6           0        0.560261   -0.434109    0.017268
      4          6           0        1.754973    0.126789   -0.033848
      5          1           0        0.471049   -1.486694    0.066238
      6          1           0        1.830475    1.197826   -0.063981
      7          1           0        2.618133   -0.384149    0.026228
      8          1           0       -0.559952    1.449329    0.064007
 ---------------------------------------------------------------------

 SCF Done:  E(RB2PLYPD3) =  -191.612370588     A.U. after   12 cycles
 E2(B2PLYPD3) =    -0.2456981728D+00 E(B2PLYPD3) =    -0.19185806876034D+03

 The electronic state is 1-A.
 Alpha  occ. eigenvalues --  -19.72806 -10.71403 -10.64073 -10.63733  -1.20194
 Alpha  occ. eigenvalues --   -0.93287  -0.75977  -0.67421  -0.57468  -0.56915
 Alpha  occ. eigenvalues --   -0.51232  -0.47178  -0.46885  -0.34787  -0.33854
 Alpha virt. eigenvalues --   -0.01476   0.05941   0.07432   0.08312   0.09805
 Alpha virt. eigenvalues --    0.12677   0.14393   0.15439   0.17583   0.19782
 Alpha virt. eigenvalues --    0.19925   0.22109   0.25658   0.26356   0.29021

 Mulliken charges:
               1
     1  C    0.153005
     2  O   -0.340661
     3  C   -0.039472
     4  C   -0.128299
     5  H    0.103240
     6  H    0.075167
     7  H    0.102710
     8  H    0.074309
 Sum of Mulliken charges =   0.00000

 Dipole moment (field-independent basis, Debye):
    X=              3.3526    Y=              0.8031    Z=              0.2054  Tot=              3.4536
 Quadrupole moment (field-independent basis, Debye-Ang):
   XX=            -27.1907   YY=            -21.7895   ZZ=            -25.0089
   XY=             -1.1159   XZ=             -0.1807   YZ=             -0.1482

 Normal termination of Gaussian 09 at Wed Aug 26 09:08:14 2020.
