 Gaussian 09, Revision D.01,
 Gaussian 09:  ES64L-G09RevD.01 24-Apr-2013

 --------------------
 #p B2PLYPD3/Def2QZVP
 --------------------

 --------
 acrolein
 --------
 Symbolic Z-matrix:
 Charge =  0 Multiplicity = 1

                         Standard orientation:
 ---------------------------------------------------------------------
 Center     Atomic      Atomic             Coordinates (Angstroms)
 Number     Number       Type             X           Y           Z
 ---------------------------------------------------------------------
      1          6           0        0.641723    0.316962    0.078860
      2          8           0        1.811683   -0.094875   -0.055411
      3          6           0       -0.582771   -0.460081    0.050171
      4          6           0       -1.732639    0.159489   -0.043202
      5          1           0       -0.381242   -1.580838    0.010303
      6          1           0       -1.767969    1.170155   -0.032768
      7          1           0       -2.709354   -0.395866   -0.061545
      8          1           0        0.407224    1.467324    0.012319
 ---------------------------------------------------------------------

 SCF Done:  E(RB2PLYPD3) =  -191.598928681     A.U. after   13 cycles
 E2(B2PLYPD3) =    -0.2498417038D+00 E(B2PLYPD3) =    -0.19184877038439D+03

 The electronic state is 1-A.
 Alpha  occ. eigenvalues --  -19.73211 -10.72589 -10.65462 -10.65077  -1.17456
 Alpha  occ. eigenvalues --   -0.94495  -0.76070  -0.66223  -0.56681  -0.56039
 Alpha  occ. eigenvalues --   -0.49820  -0.46655  -0.45999  -0.35392  -0.33733
 Alpha virt. eigenvalues --   -0.02433   0.05675   0.06606   0.07887   0.09824
 Alpha virt. eigenvalues --    0.12634   0.13715   0.15096   0.16642   0.19871
 Alpha virt. eigenvalues --    0.20398   0.21604   0.25020   0.26693   0.28815

 Mulliken charges:
               1
     1  C    0.164942
     2  O   -0.365020
     3  C   -0.014476
     4  C   -0.122508
     5  H    0.099095
     6  H    0.094646
     7  H    0.102579
     8  H    0.040740
 Sum of Mulliken charges =   0.00000

 Dipole moment (field-independent basis, Debye):
    X=             -3.7818    Y=              0.5881    Z=              0.1424  Tot=              3.8299
 Quadrupole moment (field-independent basis, Debye-Ang):
   XX=            -27.6254   YY=            -22.0190   ZZ=            -25.2439
   XY=              0.4610   XZ=              0.4306   YZ=             -0.0137

 Normal termination of Gaussian 09 at Wed Aug 26 11:36:03 2020.
