 Gaussian 09, Revision D.01,
 Gaussian 09:  ES64L-G09RevD.01 24-Apr-2013

 --------------------
 #p B2PLYPD3/Def2QZVP
 --------------------

 --------
 acrolein
 --------
 Symbolic Z-matrix:
 Charge =  0 Multiplicity = 1

                         Standard orientation:
 ---------------------------------------------------------------------
 Center     Atomic      Atomic             Coordinates (Angstroms)
 Number     Number       Type             X           Y           Z
 ---------------------------------------------------------------------
      1          6           0        0.652250    0.324752    0.035063
      2          8           0        1.799233   -0.100115   -0.033409
      3          6           0       -0.570326   -0.483076    0.000532
      4          6           0       -1.734126    0.150445   -0.027914
      5          1           0       -0.502062   -1.515406    0.134643
      6          1           0       -1.858865    1.316361   -0.029209
      7          1           0       -2.616031   -0.401228   -0.003502
      8          1           0        0.496309    1.448469    0.119259
 ---------------------------------------------------------------------

 SCF Done:  E(RB2PLYPD3) =  -191.606573447     A.U. after   13 cycles
 E2(B2PLYPD3) =    -0.2480989840D+00 E(B2PLYPD3) =    -0.19185467243119D+03

 The electronic state is 1-A.
 Alpha  occ. eigenvalues --  -19.72697 -10.71888 -10.65962 -10.64255  -1.18509
 Alpha  occ. eigenvalues --   -0.93608  -0.75358  -0.66803  -0.56898  -0.55749
 Alpha  occ. eigenvalues --   -0.50309  -0.47122  -0.46056  -0.34959  -0.33640
 Alpha virt. eigenvalues --   -0.01799   0.05576   0.06935   0.07984   0.09572
 Alpha virt. eigenvalues --    0.12436   0.13974   0.15117   0.17668   0.19300
 Alpha virt. eigenvalues --    0.20043   0.21568   0.25085   0.26613   0.28837

 Mulliken charges:
               1
     1  C    0.154898
     2  O   -0.353868
     3  C   -0.040468
     4  C   -0.118486
     5  H    0.108510
     6  H    0.084386
     7  H    0.099751
     8  H    0.065277
 Sum of Mulliken charges =   0.00000

 Dipole moment (field-independent basis, Debye):
    X=             -3.6656    Y=              0.6201    Z=              0.2548  Tot=              3.7264
 Quadrupole moment (field-independent basis, Debye-Ang):
   XX=            -27.7052   YY=            -21.6230   ZZ=            -25.2254
   XY=              0.7723   XZ=              0.1250   YZ=             -0.1930

 Normal termination of Gaussian 09 at Wed Aug 26 09:00:39 2020.
