 Gaussian 09, Revision D.01,
 Gaussian 09:  ES64L-G09RevD.01 24-Apr-2013

 --------------------
 #p B2PLYPD3/Def2QZVP
 --------------------

 --------
 acrolein
 --------
 Symbolic Z-matrix:
 Charge =  0 Multiplicity = 1

                         Standard orientation:
 ---------------------------------------------------------------------
 Center     Atomic      Atomic             Coordinates (Angstroms)
 Number     Number       Type             X           Y           Z
 ---------------------------------------------------------------------
      1          6           0        0.655397    0.329644    0.049187
      2          8           0        1.808735   -0.103654   -0.030751
      3          6           0       -0.579271   -0.474270    0.026828
      4          6           0       -1.753952    0.166075   -0.024265
      5          1           0       -0.461192   -1.593876   -0.001732
      6          1           0       -1.836797    1.246599   -0.004832
      7          1           0       -2.617738   -0.421739   -0.034968
      8          1           0        0.512800    1.469551   -0.022965
 ---------------------------------------------------------------------

 SCF Done:  E(RB2PLYPD3) =  -191.608961286     A.U. after   13 cycles
 E2(B2PLYPD3) =    -0.2490684786D+00 E(B2PLYPD3) =    -0.19185802976465D+03

 The electronic state is 1-A.
 Alpha  occ. eigenvalues --  -19.72819 -10.72244 -10.65515 -10.65372  -1.18000
 Alpha  occ. eigenvalues --   -0.93218  -0.75596  -0.66031  -0.56603  -0.55952
 Alpha  occ. eigenvalues --   -0.49749  -0.47440  -0.45960  -0.34763  -0.33607
 Alpha virt. eigenvalues --   -0.02152   0.05760   0.06703   0.07771   0.09674
 Alpha virt. eigenvalues --    0.12571   0.13918   0.15218   0.17002   0.19811
 Alpha virt. eigenvalues --    0.20051   0.21781   0.24951   0.26407   0.28661

 Mulliken charges:
               1
     1  C    0.159053
     2  O   -0.357954
     3  C   -0.036638
     4  C   -0.126668
     5  H    0.102927
     6  H    0.095277
     7  H    0.104286
     8  H    0.059718
 Sum of Mulliken charges =   0.00000

 Dipole moment (field-independent basis, Debye):
    X=             -3.6837    Y=              0.6527    Z=              0.0776  Tot=              3.7419
 Quadrupole moment (field-independent basis, Debye-Ang):
   XX=            -27.8308   YY=            -21.5524   ZZ=            -25.3547
   XY=              0.7674   XZ=              0.2237   YZ=              0.0074

 Normal termination of Gaussian 09 at Wed Aug 26 08:22:35 2020.
