 Gaussian 09, Revision D.01,
 Gaussian 09:  ES64L-G09RevD.01 24-Apr-2013

 --------------------
 #p B2PLYPD3/Def2QZVP
 --------------------

 --------
 acrolein
 --------
 Symbolic Z-matrix:
 Charge =  0 Multiplicity = 1

                         Standard orientation:
 ---------------------------------------------------------------------
 Center     Atomic      Atomic             Coordinates (Angstroms)
 Number     Number       Type             X           Y           Z
 ---------------------------------------------------------------------
      1          6           0        0.686451    0.359783   -0.028734
      2          8           0        1.782262   -0.128312    0.038809
      3          6           0       -0.558199   -0.449087   -0.039889
      4          6           0       -1.764141    0.147094    0.012235
      5          1           0       -0.420016   -1.500346   -0.089533
      6          1           0       -1.785818    1.134596   -0.018243
      7          1           0       -2.742936   -0.390129    0.177875
      8          1           0        0.506009    1.435634   -0.042248
 ---------------------------------------------------------------------

 SCF Done:  E(RB2PLYPD3) =  -191.606828552     A.U. after   13 cycles
 E2(B2PLYPD3) =    -0.2466948243D+00 E(B2PLYPD3) =    -0.19185352337603D+03

 The electronic state is 1-A.
 Alpha  occ. eigenvalues --  -19.72952 -10.71528 -10.64969 -10.64268  -1.20191
 Alpha  occ. eigenvalues --   -0.92764  -0.75521  -0.67936  -0.57062  -0.56076
 Alpha  occ. eigenvalues --   -0.50824  -0.47767  -0.46854  -0.34380  -0.33815
 Alpha virt. eigenvalues --   -0.01688   0.05800   0.07406   0.08030   0.09796
 Alpha virt. eigenvalues --    0.12582   0.14019   0.15381   0.17607   0.19657
 Alpha virt. eigenvalues --    0.20266   0.21716   0.25306   0.26487   0.28930

 Mulliken charges:
               1
     1  C    0.149640
     2  O   -0.343344
     3  C   -0.035627
     4  C   -0.141746
     5  H    0.108028
     6  H    0.087992
     7  H    0.100207
     8  H    0.074849
 Sum of Mulliken charges =   0.00000

 Dipole moment (field-independent basis, Debye):
    X=             -3.3514    Y=              0.8310    Z=             -0.0698  Tot=              3.4536
 Quadrupole moment (field-independent basis, Debye-Ang):
   XX=            -27.2603   YY=            -21.8642   ZZ=            -25.1344
   XY=              0.9125   XZ=             -0.5748   YZ=             -0.0232

 Normal termination of Gaussian 09 at Wed Aug 26 10:28:42 2020.
