 Gaussian 09, Revision D.01,
 Gaussian 09:  ES64L-G09RevD.01 24-Apr-2013

 --------------------
 #p B2PLYPD3/Def2QZVP
 --------------------

 --------
 acrolein
 --------
 Symbolic Z-matrix:
 Charge =  0 Multiplicity = 1

                         Standard orientation:
 ---------------------------------------------------------------------
 Center     Atomic      Atomic             Coordinates (Angstroms)
 Number     Number       Type             X           Y           Z
 ---------------------------------------------------------------------
      1          6           0        0.678627    0.347869   -0.029200
      2          8           0        1.776291   -0.114181    0.028288
      3          6           0       -0.561860   -0.459241   -0.033615
      4          6           0       -1.748808    0.147818   -0.001348
      5          1           0       -0.462951   -1.565039   -0.001657
      6          1           0       -1.822129    1.284029    0.038569
      7          1           0       -2.680224   -0.399737    0.126315
      8          1           0        0.547224    1.375516   -0.004556
 ---------------------------------------------------------------------

 SCF Done:  E(RB2PLYPD3) =  -191.611189527     A.U. after   12 cycles
 E2(B2PLYPD3) =    -0.2462106659D+00 E(B2PLYPD3) =    -0.19185740019307D+03

 The electronic state is 1-A.
 Alpha  occ. eigenvalues --  -19.72559 -10.70631 -10.65872 -10.64582  -1.20546
 Alpha  occ. eigenvalues --   -0.92549  -0.75106  -0.67376  -0.56632  -0.56166
 Alpha  occ. eigenvalues --   -0.50814  -0.47240  -0.46095  -0.34620  -0.33815
 Alpha virt. eigenvalues --   -0.01315   0.05694   0.07155   0.08235   0.09647
 Alpha virt. eigenvalues --    0.12500   0.14292   0.15384   0.17552   0.19489
 Alpha virt. eigenvalues --    0.19838   0.21511   0.25366   0.26695   0.28833

 Mulliken charges:
               1
     1  C    0.159293
     2  O   -0.340921
     3  C   -0.047966
     4  C   -0.128506
     5  H    0.102160
     6  H    0.075990
     7  H    0.101491
     8  H    0.078459
 Sum of Mulliken charges =   0.00000

 Dipole moment (field-independent basis, Debye):
    X=             -3.3343    Y=              0.7838    Z=              0.0443  Tot=              3.4255
 Quadrupole moment (field-independent basis, Debye-Ang):
   XX=            -27.4874   YY=            -21.6229   ZZ=            -25.2017
   XY=              1.0009   XZ=             -0.5227   YZ=             -0.0331

 Normal termination of Gaussian 09 at Wed Aug 26 08:48:52 2020.
