 Gaussian 09, Revision D.01,
 Gaussian 09:  ES64L-G09RevD.01 24-Apr-2013

 --------------------
 #p B2PLYPD3/Def2QZVP
 --------------------

 --------
 acrolein
 --------
 Symbolic Z-matrix:
 Charge =  0 Multiplicity = 1

                         Standard orientation:
 ---------------------------------------------------------------------
 Center     Atomic      Atomic             Coordinates (Angstroms)
 Number     Number       Type             X           Y           Z
 ---------------------------------------------------------------------
      1          6           0        0.676508    0.357460   -0.019050
      2          8           0        1.773145   -0.135389    0.020923
      3          6           0       -0.548432   -0.433510   -0.018666
      4          6           0       -1.749980    0.132796    0.001588
      5          1           0       -0.494960   -1.491941    0.017826
      6          1           0       -1.824922    1.211980    0.137256
      7          1           0       -2.633094   -0.447016   -0.015274
      8          1           0        0.499238    1.469611   -0.090420
 ---------------------------------------------------------------------

 SCF Done:  E(RB2PLYPD3) =  -191.614728009     A.U. after   12 cycles
 E2(B2PLYPD3) =    -0.2466814418D+00 E(B2PLYPD3) =    -0.19186140945045D+03

 The electronic state is 1-A.
 Alpha  occ. eigenvalues --  -19.72885 -10.71692 -10.65005 -10.63746  -1.20085
 Alpha  occ. eigenvalues --   -0.93260  -0.75568  -0.66930  -0.56875  -0.56480
 Alpha  occ. eigenvalues --   -0.50781  -0.47278  -0.46828  -0.34634  -0.33913
 Alpha virt. eigenvalues --   -0.01680   0.05832   0.07172   0.08265   0.09813
 Alpha virt. eigenvalues --    0.12660   0.13927   0.15431   0.17617   0.19467
 Alpha virt. eigenvalues --    0.20179   0.21698   0.25443   0.26423   0.28680

 Mulliken charges:
               1
     1  C    0.153914
     2  O   -0.341237
     3  C   -0.037336
     4  C   -0.129945
     5  H    0.102571
     6  H    0.080109
     7  H    0.103042
     8  H    0.068881
 Sum of Mulliken charges =   0.00000

 Dipole moment (field-independent basis, Debye):
    X=             -3.4131    Y=              0.7445    Z=              0.0243  Tot=              3.4934
 Quadrupole moment (field-independent basis, Debye-Ang):
   XX=            -27.3614   YY=            -21.8062   ZZ=            -25.1167
   XY=              1.1586   XZ=             -0.2946   YZ=              0.1030

 Normal termination of Gaussian 09 at Wed Aug 26 08:53:15 2020.
