 Gaussian 09, Revision D.01,
 Gaussian 09:  ES64L-G09RevD.01 24-Apr-2013

 --------------------
 #p B2PLYPD3/Def2QZVP
 --------------------

 --------
 acrolein
 --------
 Symbolic Z-matrix:
 Charge =  0 Multiplicity = 1

                         Standard orientation:
 ---------------------------------------------------------------------
 Center     Atomic      Atomic             Coordinates (Angstroms)
 Number     Number       Type             X           Y           Z
 ---------------------------------------------------------------------
      1          6           0        0.676430    0.351037   -0.013256
      2          8           0        1.788178   -0.118580    0.015306
      3          6           0       -0.562359   -0.466152   -0.033257
      4          6           0       -1.760502    0.145808    0.006074
      5          1           0       -0.476794   -1.530630    0.034350
      6          1           0       -1.844155    1.268561    0.011326
      7          1           0       -2.650936   -0.403333    0.067761
      8          1           0        0.545047    1.429884    0.006749
 ---------------------------------------------------------------------

 SCF Done:  E(RB2PLYPD3) =  -191.614387380     A.U. after   12 cycles
 E2(B2PLYPD3) =    -0.2470495366D+00 E(B2PLYPD3) =    -0.19186143691681D+03

 The electronic state is 1-A.
 Alpha  occ. eigenvalues --  -19.72674 -10.71420 -10.65619 -10.64549  -1.19661
 Alpha  occ. eigenvalues --   -0.92520  -0.75230  -0.67237  -0.56612  -0.56319
 Alpha  occ. eigenvalues --   -0.50573  -0.47087  -0.46689  -0.34435  -0.33794
 Alpha virt. eigenvalues --   -0.01641   0.05744   0.07244   0.07994   0.09662
 Alpha virt. eigenvalues --    0.12490   0.14133   0.15383   0.17636   0.19566
 Alpha virt. eigenvalues --    0.19967   0.21608   0.25178   0.26462   0.28865

 Mulliken charges:
               1
     1  C    0.155336
     2  O   -0.345904
     3  C   -0.050341
     4  C   -0.129685
     5  H    0.107912
     6  H    0.081333
     7  H    0.103265
     8  H    0.078083
 Sum of Mulliken charges =   0.00000

 Dipole moment (field-independent basis, Debye):
    X=             -3.4478    Y=              0.7670    Z=              0.0578  Tot=              3.5326
 Quadrupole moment (field-independent basis, Debye-Ang):
   XX=            -27.5127   YY=            -21.5899   ZZ=            -25.2588
   XY=              1.0074   XZ=             -0.2926   YZ=             -0.0887

 Normal termination of Gaussian 09 at Wed Aug 26 18:57:03 2020.
