 Gaussian 09, Revision D.01,
 Gaussian 09:  ES64L-G09RevD.01 24-Apr-2013

 --------------------
 #p B2PLYPD3/Def2QZVP
 --------------------

 --------
 acrolein
 --------
 Symbolic Z-matrix:
 Charge =  0 Multiplicity = 1

                         Standard orientation:
 ---------------------------------------------------------------------
 Center     Atomic      Atomic             Coordinates (Angstroms)
 Number     Number       Type             X           Y           Z
 ---------------------------------------------------------------------
      1          6           0       -0.709403    0.391574    0.037312
      2          8           0       -1.760632   -0.168879   -0.062386
      3          6           0        0.554562   -0.401872    0.029157
      4          6           0        1.786530    0.109848   -0.058599
      5          1           0        0.392034   -1.572228    0.233751
      6          1           0        1.837823    1.133209   -0.126127
      7          1           0        2.679361   -0.390398    0.049445
      8          1           0       -0.614298    1.583155    0.294803
 ---------------------------------------------------------------------

 SCF Done:  E(RB2PLYPD3) =  -191.593487537     A.U. after   13 cycles
 E2(B2PLYPD3) =    -0.2479360982D+00 E(B2PLYPD3) =    -0.19184142363558D+03

 The electronic state is 1-A.
 Alpha  occ. eigenvalues --  -19.73524 -10.73101 -10.65569 -10.63948  -1.21090
 Alpha  occ. eigenvalues --   -0.92158  -0.75362  -0.64760  -0.57110  -0.56221
 Alpha  occ. eigenvalues --   -0.51716  -0.47667  -0.44599  -0.34458  -0.33938
 Alpha virt. eigenvalues --   -0.01577   0.05832   0.06250   0.08268   0.09695
 Alpha virt. eigenvalues --    0.12350   0.14133   0.15293   0.16722   0.19261
 Alpha virt. eigenvalues --    0.19964   0.22337   0.25057   0.26671   0.29029

 Mulliken charges:
               1
     1  C    0.160955
     2  O   -0.320205
     3  C   -0.048143
     4  C   -0.126190
     5  H    0.091943
     6  H    0.075239
     7  H    0.106379
     8  H    0.060022
 Sum of Mulliken charges =   0.00000

 Dipole moment (field-independent basis, Debye):
    X=              3.1162    Y=              0.8905    Z=              0.3800  Tot=              3.2632
 Quadrupole moment (field-independent basis, Debye-Ang):
   XX=            -26.8265   YY=            -22.1280   ZZ=            -25.2972
   XY=             -1.1476   XZ=             -0.2426   YZ=             -0.3419

 Normal termination of Gaussian 09 at Wed Aug 26 12:06:31 2020.
