 Gaussian 09, Revision D.01,
 Gaussian 09:  ES64L-G09RevD.01 24-Apr-2013

 --------------------
 #p B2PLYPD3/Def2QZVP
 --------------------

 --------
 acrolein
 --------
 Symbolic Z-matrix:
 Charge =  0 Multiplicity = 1

                         Standard orientation:
 ---------------------------------------------------------------------
 Center     Atomic      Atomic             Coordinates (Angstroms)
 Number     Number       Type             X           Y           Z
 ---------------------------------------------------------------------
      1          6           0        0.678744    0.334338   -0.043199
      2          8           0        1.820915   -0.095316    0.033778
      3          6           0       -0.558074   -0.450978   -0.065277
      4          6           0       -1.769893    0.142956   -0.015372
      5          1           0       -0.404095   -1.635684    0.095544
      6          1           0       -1.945256    1.219029    0.041711
      7          1           0       -2.697936   -0.443182    0.229121
      8          1           0        0.375307    1.464471    0.106485
 ---------------------------------------------------------------------

 SCF Done:  E(RB2PLYPD3) =  -191.594593464     A.U. after   13 cycles
 E2(B2PLYPD3) =    -0.2506467611D+00 E(B2PLYPD3) =    -0.19184524022532D+03

 The electronic state is 1-A.
 Alpha  occ. eigenvalues --  -19.73513 -10.72767 -10.66779 -10.66283  -1.19106
 Alpha  occ. eigenvalues --   -0.92613  -0.75637  -0.64893  -0.56477  -0.55127
 Alpha  occ. eigenvalues --   -0.50100  -0.46686  -0.45301  -0.34796  -0.33797
 Alpha virt. eigenvalues --   -0.02683   0.05454   0.06124   0.07987   0.09621
 Alpha virt. eigenvalues --    0.12492   0.13719   0.15178   0.16825   0.19399
 Alpha virt. eigenvalues --    0.19716   0.22080   0.24251   0.26639   0.27889

 Mulliken charges:
               1
     1  C    0.172223
     2  O   -0.345381
     3  C   -0.030850
     4  C   -0.120358
     5  H    0.094721
     6  H    0.086431
     7  H    0.098208
     8  H    0.045006
 Sum of Mulliken charges =   0.00000

 Dipole moment (field-independent basis, Debye):
    X=             -3.6318    Y=              0.6427    Z=              0.2156  Tot=              3.6945
 Quadrupole moment (field-independent basis, Debye-Ang):
   XX=            -27.4699   YY=            -22.1542   ZZ=            -25.4607
   XY=              0.2632   XZ=             -0.8503   YZ=             -0.2119

 Normal termination of Gaussian 09 at Wed Aug 26 13:12:00 2020.
