 Gaussian 09, Revision D.01,
 Gaussian 09:  ES64L-G09RevD.01 24-Apr-2013

 --------------------
 #p B2PLYPD3/Def2QZVP
 --------------------

 --------
 acrolein
 --------
 Symbolic Z-matrix:
 Charge =  0 Multiplicity = 1

                         Standard orientation:
 ---------------------------------------------------------------------
 Center     Atomic      Atomic             Coordinates (Angstroms)
 Number     Number       Type             X           Y           Z
 ---------------------------------------------------------------------
      1          6           0       -0.684423    0.354015    0.011655
      2          8           0       -1.784316   -0.137873   -0.035127
      3          6           0        0.559733   -0.439004    0.024900
      4          6           0        1.756608    0.135208   -0.022723
      5          1           0        0.447769   -1.491156    0.114340
      6          1           0        1.826784    1.159467   -0.118048
      7          1           0        2.728839   -0.407983   -0.008700
      8          1           0       -0.520373    1.541334    0.210429
 ---------------------------------------------------------------------

 SCF Done:  E(RB2PLYPD3) =  -191.607050116     A.U. after   12 cycles
 E2(B2PLYPD3) =    -0.2476619653D+00 E(B2PLYPD3) =    -0.19185471208163D+03

 The electronic state is 1-A.
 Alpha  occ. eigenvalues --  -19.73325 -10.72771 -10.65100 -10.64272  -1.20180
 Alpha  occ. eigenvalues --   -0.93064  -0.75167  -0.66295  -0.56528  -0.56241
 Alpha  occ. eigenvalues --   -0.50727  -0.47342  -0.46692  -0.34861  -0.33711
 Alpha virt. eigenvalues --   -0.01701   0.05795   0.06799   0.08134   0.09776
 Alpha virt. eigenvalues --    0.12444   0.13836   0.15327   0.17392   0.19444
 Alpha virt. eigenvalues --    0.20334   0.21455   0.25027   0.26545   0.28764

 Mulliken charges:
               1
     1  C    0.158815
     2  O   -0.335356
     3  C   -0.039387
     4  C   -0.126628
     5  H    0.108231
     6  H    0.085331
     7  H    0.098621
     8  H    0.050374
 Sum of Mulliken charges =   0.00000

 Dipole moment (field-independent basis, Debye):
    X=              3.3934    Y=              0.6837    Z=              0.1356  Tot=              3.4642
 Quadrupole moment (field-independent basis, Debye-Ang):
   XX=            -27.0702   YY=            -22.1092   ZZ=            -25.2215
   XY=             -0.9048   XZ=             -0.3150   YZ=             -0.2049

 Normal termination of Gaussian 09 at Wed Aug 26 09:55:19 2020.
