 Gaussian 09, Revision D.01,
 Gaussian 09:  ES64L-G09RevD.01 24-Apr-2013

 --------------------
 #p B2PLYPD3/Def2QZVP
 --------------------

 --------
 acrolein
 --------
 Symbolic Z-matrix:
 Charge =  0 Multiplicity = 1

                         Standard orientation:
 ---------------------------------------------------------------------
 Center     Atomic      Atomic             Coordinates (Angstroms)
 Number     Number       Type             X           Y           Z
 ---------------------------------------------------------------------
      1          6           0       -0.657805    0.357275   -0.010873
      2          8           0       -1.762017   -0.146061   -0.020379
      3          6           0        0.522216   -0.385764    0.040709
      4          6           0        1.743445    0.131620    0.000154
      5          1           0        0.431888   -1.530918    0.029599
      6          1           0        1.794313    1.100723   -0.059593
      7          1           0        2.868155   -0.426466   -0.101540
      8          1           0       -0.645352    1.406367    0.114625
 ---------------------------------------------------------------------

 SCF Done:  E(RB2PLYPD3) =  -191.577611540     A.U. after   13 cycles
 E2(B2PLYPD3) =    -0.2478286178D+00 E(B2PLYPD3) =    -0.19182544015808D+03

 The electronic state is 1-A.
 Alpha  occ. eigenvalues --  -19.72232 -10.70433 -10.66151 -10.64527  -1.19323
 Alpha  occ. eigenvalues --   -0.94076  -0.76487  -0.67661  -0.58711  -0.54994
 Alpha  occ. eigenvalues --   -0.49528  -0.47085  -0.44978  -0.34756  -0.33970
 Alpha virt. eigenvalues --   -0.02375   0.05011   0.06903   0.08687   0.09600
 Alpha virt. eigenvalues --    0.11963   0.14520   0.15355   0.17325   0.19261
 Alpha virt. eigenvalues --    0.20279   0.20760   0.25852   0.26260   0.29028

 Mulliken charges:
               1
     1  C    0.139494
     2  O   -0.353352
     3  C   -0.025259
     4  C   -0.124658
     5  H    0.100404
     6  H    0.089550
     7  H    0.096503
     8  H    0.077319
 Sum of Mulliken charges =   0.00000

 Dipole moment (field-independent basis, Debye):
    X=              3.5877    Y=              0.9545    Z=             -0.0398  Tot=              3.7127
 Quadrupole moment (field-independent basis, Debye-Ang):
   XX=            -26.8478   YY=            -22.0336   ZZ=            -25.1204
   XY=             -1.2727   XZ=             -0.4903   YZ=              0.0171

 Normal termination of Gaussian 09 at Wed Aug 26 11:10:58 2020.
