 Gaussian 09, Revision D.01,
 Gaussian 09:  ES64L-G09RevD.01 24-Apr-2013

 --------------------
 #p B2PLYPD3/Def2QZVP
 --------------------

 --------
 acrolein
 --------
 Symbolic Z-matrix:
 Charge =  0 Multiplicity = 1

                         Standard orientation:
 ---------------------------------------------------------------------
 Center     Atomic      Atomic             Coordinates (Angstroms)
 Number     Number       Type             X           Y           Z
 ---------------------------------------------------------------------
      1          6           0        0.669882    0.340167   -0.015632
      2          8           0        1.788384   -0.106501    0.021582
      3          6           0       -0.557636   -0.469677   -0.028430
      4          6           0       -1.753677    0.155890    0.024132
      5          1           0       -0.447939   -1.556247   -0.039749
      6          1           0       -1.823656    1.232278   -0.035736
      7          1           0       -2.698555   -0.390858    0.056566
      8          1           0        0.511667    1.408561   -0.034156
 ---------------------------------------------------------------------

 SCF Done:  E(RB2PLYPD3) =  -191.615947700     A.U. after   12 cycles
 E2(B2PLYPD3) =    -0.2471102802D+00 E(B2PLYPD3) =    -0.19186305798061D+03

 The electronic state is 1-A.
 Alpha  occ. eigenvalues --  -19.72612 -10.71150 -10.65863 -10.64803  -1.19735
 Alpha  occ. eigenvalues --   -0.92634  -0.75347  -0.67294  -0.56609  -0.56178
 Alpha  occ. eigenvalues --   -0.50455  -0.47263  -0.46746  -0.34403  -0.33770
 Alpha virt. eigenvalues --   -0.01797   0.05740   0.07167   0.08135   0.09678
 Alpha virt. eigenvalues --    0.12614   0.14167   0.15343   0.17443   0.19919
 Alpha virt. eigenvalues --    0.20001   0.21403   0.25185   0.26507   0.28792

 Mulliken charges:
               1
     1  C    0.153624
     2  O   -0.347512
     3  C   -0.038973
     4  C   -0.133047
     5  H    0.105922
     6  H    0.086761
     7  H    0.100633
     8  H    0.072593
 Sum of Mulliken charges =   0.00000

 Dipole moment (field-independent basis, Debye):
    X=             -3.5041    Y=              0.7345    Z=             -0.0937  Tot=              3.5815
 Quadrupole moment (field-independent basis, Debye-Ang):
   XX=            -27.4464   YY=            -21.6751   ZZ=            -25.2561
   XY=              0.8061   XZ=             -0.1740   YZ=             -0.0444

 Normal termination of Gaussian 09 at Wed Aug 26 19:50:04 2020.
