 Gaussian 09, Revision D.01,
 Gaussian 09:  ES64L-G09RevD.01 24-Apr-2013

 --------------------
 #p B2PLYPD3/Def2QZVP
 --------------------

 --------
 acrolein
 --------
 Symbolic Z-matrix:
 Charge =  0 Multiplicity = 1

                         Standard orientation:
 ---------------------------------------------------------------------
 Center     Atomic      Atomic             Coordinates (Angstroms)
 Number     Number       Type             X           Y           Z
 ---------------------------------------------------------------------
      1          6           0        0.670291    0.344033    0.021543
      2          8           0        1.794815   -0.110796   -0.011723
      3          6           0       -0.568505   -0.474584    0.004836
      4          6           0       -1.750418    0.149481   -0.011387
      5          1           0       -0.451346   -1.524611    0.001180
      6          1           0       -1.860152    1.261858   -0.016612
      7          1           0       -2.663275   -0.407203    0.019411
      8          1           0        0.508044    1.442751   -0.000145
 ---------------------------------------------------------------------

 SCF Done:  E(RB2PLYPD3) =  -191.615010840     A.U. after   12 cycles
 E2(B2PLYPD3) =    -0.2473873266D+00 E(B2PLYPD3) =    -0.19186239816679D+03

 The electronic state is 1-A.
 Alpha  occ. eigenvalues --  -19.72789 -10.71686 -10.65745 -10.64450  -1.19290
 Alpha  occ. eigenvalues --   -0.92826  -0.75090  -0.67151  -0.56487  -0.56113
 Alpha  occ. eigenvalues --   -0.50589  -0.47147  -0.46560  -0.34673  -0.33701
 Alpha virt. eigenvalues --   -0.01653   0.05688   0.07249   0.07940   0.09665
 Alpha virt. eigenvalues --    0.12519   0.14011   0.15347   0.17578   0.19600
 Alpha virt. eigenvalues --    0.19981   0.21534   0.25319   0.26503   0.28651

 Mulliken charges:
               1
     1  C    0.157994
     2  O   -0.349752
     3  C   -0.047435
     4  C   -0.127257
     5  H    0.110529
     6  H    0.085465
     7  H    0.099410
     8  H    0.071046
 Sum of Mulliken charges =   0.00000

 Dipole moment (field-independent basis, Debye):
    X=             -3.5075    Y=              0.7160    Z=              0.0547  Tot=              3.5802
 Quadrupole moment (field-independent basis, Debye-Ang):
   XX=            -27.5732   YY=            -21.6262   ZZ=            -25.2618
   XY=              0.7795   XZ=              0.0269   YZ=             -0.0335

 Normal termination of Gaussian 09 at Wed Aug 26 15:56:06 2020.
