 Gaussian 09, Revision D.01,
 Gaussian 09:  ES64L-G09RevD.01 24-Apr-2013

 --------------------
 #p B2PLYPD3/Def2QZVP
 --------------------

 --------
 acrolein
 --------
 Symbolic Z-matrix:
 Charge =  0 Multiplicity = 1

                         Standard orientation:
 ---------------------------------------------------------------------
 Center     Atomic      Atomic             Coordinates (Angstroms)
 Number     Number       Type             X           Y           Z
 ---------------------------------------------------------------------
      1          6           0        0.657828    0.333899    0.005880
      2          8           0        1.797424   -0.106528   -0.007369
      3          6           0       -0.570642   -0.459808    0.010095
      4          6           0       -1.745659    0.150001   -0.010830
      5          1           0       -0.438679   -1.532618    0.034102
      6          1           0       -1.824015    1.221757    0.059243
      7          1           0       -2.654608   -0.403737   -0.050517
      8          1           0        0.488746    1.422269   -0.014746
 ---------------------------------------------------------------------

 SCF Done:  E(RB2PLYPD3) =  -191.616047121     A.U. after   12 cycles
 E2(B2PLYPD3) =    -0.2473480559D+00 E(B2PLYPD3) =    -0.19186339517744D+03

 The electronic state is 1-A.
 Alpha  occ. eigenvalues --  -19.72748 -10.71488 -10.65310 -10.64385  -1.18742
 Alpha  occ. eigenvalues --   -0.93599  -0.75833  -0.67138  -0.56717  -0.56479
 Alpha  occ. eigenvalues --   -0.50472  -0.47315  -0.46373  -0.34906  -0.33776
 Alpha virt. eigenvalues --   -0.01884   0.05758   0.07150   0.08168   0.09744
 Alpha virt. eigenvalues --    0.12708   0.14005   0.15272   0.17365   0.19808
 Alpha virt. eigenvalues --    0.20123   0.21696   0.25352   0.26590   0.28710

 Mulliken charges:
               1
     1  C    0.155421
     2  O   -0.356867
     3  C   -0.031117
     4  C   -0.128962
     5  H    0.104480
     6  H    0.088322
     7  H    0.102293
     8  H    0.066429
 Sum of Mulliken charges =   0.00000

 Dipole moment (field-independent basis, Debye):
    X=             -3.6262    Y=              0.6989    Z=              0.0554  Tot=              3.6934
 Quadrupole moment (field-independent basis, Debye-Ang):
   XX=            -27.5655   YY=            -21.7385   ZZ=            -25.1459
   XY=              0.7605   XZ=              0.0457   YZ=              0.0510

 Normal termination of Gaussian 09 at Wed Aug 26 15:08:55 2020.
