 Gaussian 09, Revision D.01,
 Gaussian 09:  ES64L-G09RevD.01 24-Apr-2013

 --------------------
 #p B2PLYPD3/Def2QZVP
 --------------------

 --------
 acrolein
 --------
 Symbolic Z-matrix:
 Charge =  0 Multiplicity = 1

                         Standard orientation:
 ---------------------------------------------------------------------
 Center     Atomic      Atomic             Coordinates (Angstroms)
 Number     Number       Type             X           Y           Z
 ---------------------------------------------------------------------
      1          6           0       -0.677328    0.351881    0.020348
      2          8           0       -1.785990   -0.126774   -0.023906
      3          6           0        0.553961   -0.440158    0.016318
      4          6           0        1.764660    0.128266   -0.010113
      5          1           0        0.451462   -1.516855    0.027956
      6          1           0        1.865408    1.220347   -0.093476
      7          1           0        2.650072   -0.410458    0.002216
      8          1           0       -0.526786    1.481228    0.095232
 ---------------------------------------------------------------------

 SCF Done:  E(RB2PLYPD3) =  -191.614670957     A.U. after   12 cycles
 E2(B2PLYPD3) =    -0.2472283532D+00 E(B2PLYPD3) =    -0.19186189931011D+03

 The electronic state is 1-A.
 Alpha  occ. eigenvalues --  -19.72919 -10.71912 -10.65251 -10.64448  -1.19753
 Alpha  occ. eigenvalues --   -0.92911  -0.75794  -0.66477  -0.57028  -0.56231
 Alpha  occ. eigenvalues --   -0.50834  -0.46918  -0.46749  -0.34602  -0.33870
 Alpha virt. eigenvalues --   -0.01894   0.05797   0.07160   0.08269   0.09732
 Alpha virt. eigenvalues --    0.12530   0.14079   0.15413   0.17372   0.19549
 Alpha virt. eigenvalues --    0.20090   0.21815   0.25385   0.26345   0.28755

 Mulliken charges:
               1
     1  C    0.158274
     2  O   -0.343856
     3  C   -0.040892
     4  C   -0.127478
     5  H    0.103896
     6  H    0.079758
     7  H    0.105333
     8  H    0.064965
 Sum of Mulliken charges =   0.00000

 Dipole moment (field-independent basis, Debye):
    X=              3.4821    Y=              0.7262    Z=              0.0530  Tot=              3.5574
 Quadrupole moment (field-independent basis, Debye-Ang):
   XX=            -27.2264   YY=            -21.8567   ZZ=            -25.2159
   XY=             -0.9674   XZ=             -0.2479   YZ=             -0.1085

 Normal termination of Gaussian 09 at Wed Aug 26 16:23:19 2020.
