 Gaussian 09, Revision D.01,
 Gaussian 09:  ES64L-G09RevD.01 24-Apr-2013

 --------------------
 #p B2PLYPD3/Def2QZVP
 --------------------

 --------
 acrolein
 --------
 Symbolic Z-matrix:
 Charge =  0 Multiplicity = 1

                         Standard orientation:
 ---------------------------------------------------------------------
 Center     Atomic      Atomic             Coordinates (Angstroms)
 Number     Number       Type             X           Y           Z
 ---------------------------------------------------------------------
      1          6           0       -0.678336    0.363644   -0.007837
      2          8           0       -1.789709   -0.133241    0.018134
      3          6           0        0.562584   -0.450588   -0.033351
      4          6           0        1.749255    0.134192    0.023040
      5          1           0        0.474231   -1.510426   -0.031374
      6          1           0        1.843841    1.240319   -0.039260
      7          1           0        2.688296   -0.431186    0.063762
      8          1           0       -0.489719    1.483737   -0.029310
 ---------------------------------------------------------------------

 SCF Done:  E(RB2PLYPD3) =  -191.614162600     A.U. after   12 cycles
 E2(B2PLYPD3) =    -0.2477929512D+00 E(B2PLYPD3) =    -0.19186195555143D+03

 The electronic state is 1-A.
 Alpha  occ. eigenvalues --  -19.73087 -10.72279 -10.65623 -10.64159  -1.19261
 Alpha  occ. eigenvalues --   -0.92953  -0.74841  -0.66806  -0.56366  -0.55985
 Alpha  occ. eigenvalues --   -0.50616  -0.46770  -0.46399  -0.34778  -0.33938
 Alpha virt. eigenvalues --   -0.01610   0.05661   0.07100   0.07927   0.09712
 Alpha virt. eigenvalues --    0.12413   0.13879   0.15348   0.17569   0.19711
 Alpha virt. eigenvalues --    0.19918   0.21381   0.25353   0.26406   0.28638

 Mulliken charges:
               1
     1  C    0.158847
     2  O   -0.347182
     3  C   -0.044039
     4  C   -0.126320
     5  H    0.108166
     6  H    0.078708
     7  H    0.099273
     8  H    0.072547
 Sum of Mulliken charges =   0.00000

 Dipole moment (field-independent basis, Debye):
    X=              3.4465    Y=              0.7770    Z=             -0.0635  Tot=              3.5336
 Quadrupole moment (field-independent basis, Debye-Ang):
   XX=            -27.5097   YY=            -21.7360   ZZ=            -25.2793
   XY=             -1.0175   XZ=              0.1700   YZ=             -0.0747

 Normal termination of Gaussian 09 at Wed Aug 26 19:10:18 2020.
