 Gaussian 09, Revision D.01,
 Gaussian 09:  ES64L-G09RevD.01 24-Apr-2013

 --------------------
 #p B2PLYPD3/Def2QZVP
 --------------------

 --------
 acrolein
 --------
 Symbolic Z-matrix:
 Charge =  0 Multiplicity = 1

                         Standard orientation:
 ---------------------------------------------------------------------
 Center     Atomic      Atomic             Coordinates (Angstroms)
 Number     Number       Type             X           Y           Z
 ---------------------------------------------------------------------
      1          6           0        0.669619    0.323811   -0.029416
      2          8           0        1.800231   -0.103459    0.034580
      3          6           0       -0.557015   -0.466298   -0.043622
      4          6           0       -1.761170    0.157119    0.003123
      5          1           0       -0.445841   -1.492306   -0.026558
      6          1           0       -1.846936    1.247824    0.017230
      7          1           0       -2.727419   -0.441262    0.169967
      8          1           0        0.509745    1.425619   -0.017782
 ---------------------------------------------------------------------

 SCF Done:  E(RB2PLYPD3) =  -191.610066690     A.U. after   13 cycles
 E2(B2PLYPD3) =    -0.2479376592D+00 E(B2PLYPD3) =    -0.19185800434871D+03

 The electronic state is 1-A.
 Alpha  occ. eigenvalues --  -19.72694 -10.71433 -10.66933 -10.64444  -1.19437
 Alpha  occ. eigenvalues --   -0.92826  -0.75179  -0.67453  -0.56389  -0.55904
 Alpha  occ. eigenvalues --   -0.50258  -0.47375  -0.46721  -0.34450  -0.33679
 Alpha virt. eigenvalues --   -0.02204   0.05524   0.07230   0.08214   0.09651
 Alpha virt. eigenvalues --    0.12384   0.13811   0.15319   0.17878   0.19562
 Alpha virt. eigenvalues --    0.19849   0.21267   0.24974   0.26475   0.28710

 Mulliken charges:
               1
     1  C    0.155039
     2  O   -0.350364
     3  C   -0.035426
     4  C   -0.128032
     5  H    0.110814
     6  H    0.091470
     7  H    0.096808
     8  H    0.059691
 Sum of Mulliken charges =   0.00000

 Dipole moment (field-independent basis, Debye):
    X=             -3.5873    Y=              0.6586    Z=              0.0218  Tot=              3.6473
 Quadrupole moment (field-independent basis, Debye-Ang):
   XX=            -27.5019   YY=            -21.8170   ZZ=            -25.2853
   XY=              0.7501   XZ=             -0.6098   YZ=             -0.0552

 Normal termination of Gaussian 09 at Wed Aug 26 10:17:54 2020.
