 Gaussian 09, Revision D.01,
 Gaussian 09:  ES64L-G09RevD.01 24-Apr-2013

 --------------------
 #p B2PLYPD3/Def2QZVP
 --------------------

 --------
 acrolein
 --------
 Symbolic Z-matrix:
 Charge =  0 Multiplicity = 1

                         Standard orientation:
 ---------------------------------------------------------------------
 Center     Atomic      Atomic             Coordinates (Angstroms)
 Number     Number       Type             X           Y           Z
 ---------------------------------------------------------------------
      1          6           0       -0.665138    0.353395   -0.013356
      2          8           0       -1.789802   -0.117520    0.017952
      3          6           0        0.576012   -0.463321   -0.022053
      4          6           0        1.749936    0.150986    0.004510
      5          1           0        0.446848   -1.543044   -0.031439
      6          1           0        1.829444    1.238824   -0.003575
      7          1           0        2.596145   -0.422271    0.094076
      8          1           0       -0.518884    1.420294   -0.017286
 ---------------------------------------------------------------------

 SCF Done:  E(RB2PLYPD3) =  -191.613617806     A.U. after   12 cycles
 E2(B2PLYPD3) =    -0.2469952237D+00 E(B2PLYPD3) =    -0.19186061302967D+03

 The electronic state is 1-A.
 Alpha  occ. eigenvalues --  -19.72712 -10.71399 -10.64744 -10.64411  -1.18871
 Alpha  occ. eigenvalues --   -0.93230  -0.75647  -0.67321  -0.56998  -0.56309
 Alpha  occ. eigenvalues --   -0.50517  -0.47431  -0.46309  -0.34761  -0.33772
 Alpha virt. eigenvalues --   -0.01551   0.05822   0.07209   0.07935   0.09757
 Alpha virt. eigenvalues --    0.12686   0.14016   0.15324   0.17408   0.19722
 Alpha virt. eigenvalues --    0.19977   0.22015   0.25380   0.26594   0.28662

 Mulliken charges:
               1
     1  C    0.155230
     2  O   -0.355296
     3  C   -0.043057
     4  C   -0.132412
     5  H    0.105680
     6  H    0.087555
     7  H    0.103251
     8  H    0.079049
 Sum of Mulliken charges =   0.00000

 Dipole moment (field-independent basis, Debye):
    X=              3.4921    Y=              0.7836    Z=             -0.0101  Tot=              3.5789
 Quadrupole moment (field-independent basis, Debye-Ang):
   XX=            -27.7877   YY=            -21.4743   ZZ=            -25.1519
   XY=             -0.9164   XZ=              0.3007   YZ=             -0.0314

 Normal termination of Gaussian 09 at Wed Aug 26 16:15:10 2020.
