 Gaussian 09, Revision D.01,
 Gaussian 09:  ES64L-G09RevD.01 24-Apr-2013

 --------------------
 #p B2PLYPD3/Def2QZVP
 --------------------

 --------
 acrolein
 --------
 Symbolic Z-matrix:
 Charge =  0 Multiplicity = 1

                         Standard orientation:
 ---------------------------------------------------------------------
 Center     Atomic      Atomic             Coordinates (Angstroms)
 Number     Number       Type             X           Y           Z
 ---------------------------------------------------------------------
      1          6           0       -0.662522    0.349720   -0.024827
      2          8           0       -1.789303   -0.121506    0.025176
      3          6           0        0.556091   -0.436228   -0.025870
      4          6           0        1.748732    0.136412    0.005461
      5          1           0        0.447976   -1.525062   -0.027034
      6          1           0        1.819333    1.204599    0.023391
      7          1           0        2.703400   -0.412855    0.092685
      8          1           0       -0.510090    1.405946   -0.019029
 ---------------------------------------------------------------------

 SCF Done:  E(RB2PLYPD3) =  -191.614785507     A.U. after   12 cycles
 E2(B2PLYPD3) =    -0.2473090311D+00 E(B2PLYPD3) =    -0.19186209453760D+03

 The electronic state is 1-A.
 Alpha  occ. eigenvalues --  -19.72704 -10.71191 -10.65566 -10.64273  -1.18768
 Alpha  occ. eigenvalues --   -0.93537  -0.75935  -0.67479  -0.56934  -0.56304
 Alpha  occ. eigenvalues --   -0.50496  -0.46590  -0.46391  -0.34825  -0.34027
 Alpha virt. eigenvalues --   -0.01977   0.05677   0.07158   0.08280   0.09718
 Alpha virt. eigenvalues --    0.12582   0.14166   0.15311   0.17499   0.19872
 Alpha virt. eigenvalues --    0.19886   0.21515   0.25575   0.26527   0.28936

 Mulliken charges:
               1
     1  C    0.151694
     2  O   -0.357823
     3  C   -0.028497
     4  C   -0.128554
     5  H    0.103143
     6  H    0.080745
     7  H    0.101860
     8  H    0.077433
 Sum of Mulliken charges =   0.00000

 Dipole moment (field-independent basis, Debye):
    X=              3.5968    Y=              0.8090    Z=             -0.0156  Tot=              3.6867
 Quadrupole moment (field-independent basis, Debye-Ang):
   XX=            -27.4261   YY=            -21.7843   ZZ=            -25.1410
   XY=             -0.9684   XZ=              0.3791   YZ=             -0.0031

 Normal termination of Gaussian 09 at Wed Aug 26 18:30:33 2020.
