 Gaussian 09, Revision D.01,
 Gaussian 09:  ES64L-G09RevD.01 24-Apr-2013

 --------------------
 #p B2PLYPD3/Def2QZVP
 --------------------

 --------
 acrolein
 --------
 Symbolic Z-matrix:
 Charge =  0 Multiplicity = 1

                         Standard orientation:
 ---------------------------------------------------------------------
 Center     Atomic      Atomic             Coordinates (Angstroms)
 Number     Number       Type             X           Y           Z
 ---------------------------------------------------------------------
      1          6           0       -0.683792    0.343845    0.043575
      2          8           0       -1.787191   -0.112298   -0.040226
      3          6           0        0.585238   -0.464980    0.011715
      4          6           0        1.758381    0.152572   -0.037695
      5          1           0        0.441732   -1.568649    0.117347
      6          1           0        1.881028    1.245134   -0.030385
      7          1           0        2.573010   -0.397821    0.011998
      8          1           0       -0.557203    1.431098    0.117277
 ---------------------------------------------------------------------

 SCF Done:  E(RB2PLYPD3) =  -191.607253020     A.U. after   12 cycles
 E2(B2PLYPD3) =    -0.2461116493D+00 E(B2PLYPD3) =    -0.19185336466921D+03

 The electronic state is 1-A.
 Alpha  occ. eigenvalues --  -19.72824 -10.71421 -10.64845 -10.64210  -1.20333
 Alpha  occ. eigenvalues --   -0.92795  -0.75557  -0.66588  -0.57079  -0.56447
 Alpha  occ. eigenvalues --   -0.51079  -0.47380  -0.46672  -0.34784  -0.33554
 Alpha virt. eigenvalues --   -0.01190   0.05942   0.07095   0.08173   0.09671
 Alpha virt. eigenvalues --    0.12698   0.14201   0.15325   0.17291   0.19596
 Alpha virt. eigenvalues --    0.20020   0.22322   0.25242   0.26556   0.28400

 Mulliken charges:
               1
     1  C    0.157761
     2  O   -0.337582
     3  C   -0.049633
     4  C   -0.130942
     5  H    0.099263
     6  H    0.086148
     7  H    0.104194
     8  H    0.070791
 Sum of Mulliken charges =   0.00000

 Dipole moment (field-independent basis, Debye):
    X=              3.3284    Y=              0.7416    Z=              0.2688  Tot=              3.4205
 Quadrupole moment (field-independent basis, Debye-Ang):
   XX=            -27.4994   YY=            -21.5889   ZZ=            -25.1469
   XY=             -0.7792   XZ=             -0.1512   YZ=             -0.1758

 Normal termination of Gaussian 09 at Wed Aug 26 10:04:14 2020.
