 Gaussian 09, Revision D.01,
 Gaussian 09:  ES64L-G09RevD.01 24-Apr-2013

 --------------------
 #p B2PLYPD3/Def2QZVP
 --------------------

 --------
 acrolein
 --------
 Symbolic Z-matrix:
 Charge =  0 Multiplicity = 1

                         Standard orientation:
 ---------------------------------------------------------------------
 Center     Atomic      Atomic             Coordinates (Angstroms)
 Number     Number       Type             X           Y           Z
 ---------------------------------------------------------------------
      1          6           0       -0.672189    0.334481    0.027431
      2          8           0       -1.786698   -0.107349   -0.016928
      3          6           0        0.567180   -0.457986    0.003639
      4          6           0        1.749214    0.151359   -0.009747
      5          1           0        0.451902   -1.537936    0.012704
      6          1           0        1.832528    1.256403   -0.043410
      7          1           0        2.676732   -0.406369    0.016431
      8          1           0       -0.532804    1.379568    0.021760
 ---------------------------------------------------------------------

 SCF Done:  E(RB2PLYPD3) =  -191.615388626     A.U. after   12 cycles
 E2(B2PLYPD3) =    -0.2462147238D+00 E(B2PLYPD3) =    -0.19186160334971D+03

 The electronic state is 1-A.
 Alpha  occ. eigenvalues --  -19.72585 -10.70751 -10.65672 -10.64349  -1.20048
 Alpha  occ. eigenvalues --   -0.92996  -0.75430  -0.67467  -0.56715  -0.56405
 Alpha  occ. eigenvalues --   -0.50787  -0.47020  -0.46754  -0.34778  -0.33727
 Alpha virt. eigenvalues --   -0.01518   0.05738   0.07253   0.08348   0.09684
 Alpha virt. eigenvalues --    0.12615   0.14155   0.15362   0.17606   0.19616
 Alpha virt. eigenvalues --    0.19980   0.21538   0.25518   0.26615   0.28781

 Mulliken charges:
               1
     1  C    0.156796
     2  O   -0.346132
     3  C   -0.040188
     4  C   -0.131831
     5  H    0.103131
     6  H    0.084094
     7  H    0.102127
     8  H    0.072003
 Sum of Mulliken charges =   0.00000

 Dipole moment (field-independent basis, Debye):
    X=              3.4578    Y=              0.7373    Z=              0.0674  Tot=              3.5362
 Quadrupole moment (field-independent basis, Debye-Ang):
   XX=            -27.4435   YY=            -21.6995   ZZ=            -25.1519
   XY=             -0.8628   XZ=             -0.0977   YZ=             -0.0762

 Normal termination of Gaussian 09 at Wed Aug 26 20:13:11 2020.
