 Gaussian 09, Revision D.01,
 Gaussian 09:  ES64L-G09RevD.01 24-Apr-2013

 --------------------
 #p B2PLYPD3/Def2QZVP
 --------------------

 --------
 acrolein
 --------
 Symbolic Z-matrix:
 Charge =  0 Multiplicity = 1

                         Standard orientation:
 ---------------------------------------------------------------------
 Center     Atomic      Atomic             Coordinates (Angstroms)
 Number     Number       Type             X           Y           Z
 ---------------------------------------------------------------------
      1          6           0        0.672362    0.342151    0.004512
      2          8           0        1.792495   -0.113805   -0.016413
      3          6           0       -0.573179   -0.465376    0.021232
      4          6           0       -1.750854    0.146268   -0.005562
      5          1           0       -0.489748   -1.510926    0.031117
      6          1           0       -1.858324    1.263882   -0.025914
      7          1           0       -2.618325   -0.396130   -0.062172
      8          1           0        0.536468    1.415360    0.067191
 ---------------------------------------------------------------------

 SCF Done:  E(RB2PLYPD3) =  -191.613043843     A.U. after   12 cycles
 E2(B2PLYPD3) =    -0.2464730560D+00 E(B2PLYPD3) =    -0.19185951689851D+03

 The electronic state is 1-A.
 Alpha  occ. eigenvalues --  -19.72699 -10.71352 -10.65056 -10.64107  -1.19489
 Alpha  occ. eigenvalues --   -0.93139  -0.75539  -0.67508  -0.56996  -0.56444
 Alpha  occ. eigenvalues --   -0.50781  -0.47283  -0.46623  -0.34797  -0.33734
 Alpha virt. eigenvalues --   -0.01493   0.05788   0.07352   0.08093   0.09650
 Alpha virt. eigenvalues --    0.12632   0.14206   0.15359   0.17682   0.19578
 Alpha virt. eigenvalues --    0.19980   0.21781   0.25418   0.26467   0.28655

 Mulliken charges:
               1
     1  C    0.155176
     2  O   -0.348007
     3  C   -0.048547
     4  C   -0.126289
     5  H    0.107532
     6  H    0.081665
     7  H    0.101329
     8  H    0.077142
 Sum of Mulliken charges =   0.00000

 Dipole moment (field-independent basis, Debye):
    X=             -3.4844    Y=              0.7339    Z=              0.0167  Tot=              3.5609
 Quadrupole moment (field-independent basis, Debye-Ang):
   XX=            -27.5319   YY=            -21.6115   ZZ=            -25.1285
   XY=              0.9276   XZ=              0.2719   YZ=             -0.0063

 Normal termination of Gaussian 09 at Wed Aug 26 14:58:21 2020.
