 Gaussian 09, Revision D.01,
 Gaussian 09:  ES64L-G09RevD.01 24-Apr-2013

 --------------------
 #p B2PLYPD3/Def2QZVP
 --------------------

 --------
 acrolein
 --------
 Symbolic Z-matrix:
 Charge =  0 Multiplicity = 1

                         Standard orientation:
 ---------------------------------------------------------------------
 Center     Atomic      Atomic             Coordinates (Angstroms)
 Number     Number       Type             X           Y           Z
 ---------------------------------------------------------------------
      1          6           0        0.662509    0.352272    0.023654
      2          8           0        1.783156   -0.126116   -0.015047
      3          6           0       -0.552424   -0.439100    0.002149
      4          6           0       -1.751343    0.132303   -0.014490
      5          1           0       -0.465020   -1.518170    0.022439
      6          1           0       -1.816454    1.209759   -0.035756
      7          1           0       -2.660459   -0.401155    0.035651
      8          1           0        0.524226    1.445639    0.030168
 ---------------------------------------------------------------------

 SCF Done:  E(RB2PLYPD3) =  -191.616064502     A.U. after   12 cycles
 E2(B2PLYPD3) =    -0.2471958706D+00 E(B2PLYPD3) =    -0.19186326037252D+03

 The electronic state is 1-A.
 Alpha  occ. eigenvalues --  -19.72699 -10.71492 -10.65139 -10.64203  -1.18986
 Alpha  occ. eigenvalues --   -0.93448  -0.75970  -0.67133  -0.56868  -0.56706
 Alpha  occ. eigenvalues --   -0.50549  -0.46786  -0.46606  -0.34722  -0.33954
 Alpha virt. eigenvalues --   -0.01958   0.05783   0.07154   0.08281   0.09758
 Alpha virt. eigenvalues --    0.12589   0.14233   0.15347   0.17422   0.19836
 Alpha virt. eigenvalues --    0.19967   0.21713   0.25608   0.26317   0.29062

 Mulliken charges:
               1
     1  C    0.151060
     2  O   -0.353332
     3  C   -0.031343
     4  C   -0.127730
     5  H    0.103705
     6  H    0.079335
     7  H    0.104343
     8  H    0.073962
 Sum of Mulliken charges =   0.00000

 Dipole moment (field-independent basis, Debye):
    X=             -3.5699    Y=              0.7793    Z=              0.0926  Tot=              3.6551
 Quadrupole moment (field-independent basis, Debye-Ang):
   XX=            -27.3658   YY=            -21.7602   ZZ=            -25.1419
   XY=              1.0566   XZ=              0.0177   YZ=             -0.0797

 Normal termination of Gaussian 09 at Wed Aug 26 13:13:34 2020.
