 Gaussian 09, Revision D.01,
 Gaussian 09:  ES64L-G09RevD.01 24-Apr-2013

 --------------------
 #p B2PLYPD3/Def2QZVP
 --------------------

 --------
 acrolein
 --------
 Symbolic Z-matrix:
 Charge =  0 Multiplicity = 1

                         Standard orientation:
 ---------------------------------------------------------------------
 Center     Atomic      Atomic             Coordinates (Angstroms)
 Number     Number       Type             X           Y           Z
 ---------------------------------------------------------------------
      1          6           0       -0.670272    0.357054   -0.023872
      2          8           0       -1.790150   -0.127698    0.019442
      3          6           0        0.563146   -0.443465   -0.024325
      4          6           0        1.756210    0.145761    0.003553
      5          1           0        0.432713   -1.520477    0.002346
      6          1           0        1.810353    1.160525    0.011674
      7          1           0        2.690503   -0.423355    0.079712
      8          1           0       -0.506871    1.448787    0.018593
 ---------------------------------------------------------------------

 SCF Done:  E(RB2PLYPD3) =  -191.613137049     A.U. after   12 cycles
 E2(B2PLYPD3) =    -0.2473870679D+00 E(B2PLYPD3) =    -0.19186052411657D+03

 The electronic state is 1-A.
 Alpha  occ. eigenvalues --  -19.72893 -10.71751 -10.64905 -10.64385  -1.18939
 Alpha  occ. eigenvalues --   -0.93285  -0.75744  -0.67396  -0.56944  -0.56299
 Alpha  occ. eigenvalues --   -0.50468  -0.47264  -0.46484  -0.34690  -0.33933
 Alpha virt. eigenvalues --   -0.01881   0.05787   0.07174   0.08051   0.09818
 Alpha virt. eigenvalues --    0.12652   0.13965   0.15335   0.17386   0.19893
 Alpha virt. eigenvalues --    0.20187   0.21702   0.25396   0.26498   0.28834

 Mulliken charges:
               1
     1  C    0.152511
     2  O   -0.354375
     3  C   -0.032001
     4  C   -0.135101
     5  H    0.105875
     6  H    0.088171
     7  H    0.101665
     8  H    0.073255
 Sum of Mulliken charges =   0.00000

 Dipole moment (field-independent basis, Debye):
    X=              3.5154    Y=              0.8101    Z=              0.0184  Tot=              3.6076
 Quadrupole moment (field-independent basis, Debye-Ang):
   XX=            -27.4805   YY=            -21.7421   ZZ=            -25.1682
   XY=             -0.9476   XZ=              0.3102   YZ=             -0.0365

 Normal termination of Gaussian 09 at Wed Aug 26 18:37:40 2020.
