 Gaussian 09, Revision D.01,
 Gaussian 09:  ES64L-G09RevD.01 24-Apr-2013

 --------------------
 #p B2PLYPD3/Def2QZVP
 --------------------

 --------
 acrolein
 --------
 Symbolic Z-matrix:
 Charge =  0 Multiplicity = 1

                         Standard orientation:
 ---------------------------------------------------------------------
 Center     Atomic      Atomic             Coordinates (Angstroms)
 Number     Number       Type             X           Y           Z
 ---------------------------------------------------------------------
      1          6           0       -0.670605    0.348833    0.025643
      2          8           0       -1.777703   -0.135520   -0.020350
      3          6           0        0.537508   -0.426537    0.012205
      4          6           0        1.763446    0.139257   -0.028944
      5          1           0        0.439357   -1.474647    0.000833
      6          1           0        1.794471    1.149452   -0.094874
      7          1           0        2.726443   -0.460321    0.109777
      8          1           0       -0.520740    1.500350    0.093645
 ---------------------------------------------------------------------

 SCF Done:  E(RB2PLYPD3) =  -191.605641437     A.U. after   13 cycles
 E2(B2PLYPD3) =    -0.2478550645D+00 E(B2PLYPD3) =    -0.19185349650105D+03

 The electronic state is 1-A.
 Alpha  occ. eigenvalues --  -19.72848 -10.71856 -10.65775 -10.64073  -1.19716
 Alpha  occ. eigenvalues --   -0.93264  -0.75841  -0.67022  -0.56860  -0.56014
 Alpha  occ. eigenvalues --   -0.50170  -0.47545  -0.46998  -0.34398  -0.33819
 Alpha virt. eigenvalues --   -0.02358   0.05692   0.07029   0.08442   0.09884
 Alpha virt. eigenvalues --    0.12369   0.13737   0.15398   0.17508   0.19559
 Alpha virt. eigenvalues --    0.20257   0.21456   0.25432   0.26214   0.29093

 Mulliken charges:
               1
     1  C    0.149995
     2  O   -0.346158
     3  C   -0.026445
     4  C   -0.134818
     5  H    0.107437
     6  H    0.090218
     7  H    0.104728
     8  H    0.055042
 Sum of Mulliken charges =   0.00000

 Dipole moment (field-independent basis, Debye):
    X=              3.5241    Y=              0.7151    Z=              0.1144  Tot=              3.5977
 Quadrupole moment (field-independent basis, Debye-Ang):
   XX=            -27.1861   YY=            -21.9813   ZZ=            -25.2058
   XY=             -1.0955   XZ=              0.0387   YZ=             -0.1427

 Normal termination of Gaussian 09 at Wed Aug 26 08:47:05 2020.
