 Gaussian 09, Revision D.01,
 Gaussian 09:  ES64L-G09RevD.01 24-Apr-2013

 --------------------
 #p B2PLYPD3/Def2QZVP
 --------------------

 --------
 acrolein
 --------
 Symbolic Z-matrix:
 Charge =  0 Multiplicity = 1

                         Standard orientation:
 ---------------------------------------------------------------------
 Center     Atomic      Atomic             Coordinates (Angstroms)
 Number     Number       Type             X           Y           Z
 ---------------------------------------------------------------------
      1          6           0       -0.673119    0.338101   -0.006599
      2          8           0       -1.798729   -0.114332   -0.005700
      3          6           0        0.579528   -0.461811   -0.004614
      4          6           0        1.756740    0.136696    0.008547
      5          1           0        0.449596   -1.507234    0.030427
      6          1           0        1.872326    1.279521   -0.096659
      7          1           0        2.606446   -0.410393    0.016237
      8          1           0       -0.517430    1.474848    0.111592
 ---------------------------------------------------------------------

 SCF Done:  E(RB2PLYPD3) =  -191.607521136     A.U. after   12 cycles
 E2(B2PLYPD3) =    -0.2473707294D+00 E(B2PLYPD3) =    -0.19185489186555D+03

 The electronic state is 1-A.
 Alpha  occ. eigenvalues --  -19.73026 -10.72138 -10.65241 -10.64269  -1.19443
 Alpha  occ. eigenvalues --   -0.93273  -0.75499  -0.66393  -0.57349  -0.55621
 Alpha  occ. eigenvalues --   -0.50855  -0.46953  -0.46651  -0.35036  -0.33641
 Alpha virt. eigenvalues --   -0.01622   0.05731   0.07197   0.07974   0.09678
 Alpha virt. eigenvalues --    0.12497   0.13942   0.15300   0.17443   0.19335
 Alpha virt. eigenvalues --    0.20056   0.21926   0.25038   0.26660   0.28514

 Mulliken charges:
               1
     1  C    0.163773
     2  O   -0.345335
     3  C   -0.049726
     4  C   -0.121342
     5  H    0.106610
     6  H    0.082711
     7  H    0.104351
     8  H    0.058958
 Sum of Mulliken charges =   0.00000

 Dipole moment (field-independent basis, Debye):
    X=              3.4898    Y=              0.6329    Z=              0.0021  Tot=              3.5467
 Quadrupole moment (field-independent basis, Debye-Ang):
   XX=            -27.4959   YY=            -21.7884   ZZ=            -25.1960
   XY=             -0.8343   XZ=             -0.1345   YZ=             -0.1360

 Normal termination of Gaussian 09 at Wed Aug 26 09:21:17 2020.
