 Gaussian 09, Revision D.01,
 Gaussian 09:  ES64L-G09RevD.01 24-Apr-2013

 --------------------
 #p B2PLYPD3/Def2QZVP
 --------------------

 --------
 acrolein
 --------
 Symbolic Z-matrix:
 Charge =  0 Multiplicity = 1

                         Standard orientation:
 ---------------------------------------------------------------------
 Center     Atomic      Atomic             Coordinates (Angstroms)
 Number     Number       Type             X           Y           Z
 ---------------------------------------------------------------------
      1          6           0       -0.676980    0.347342    0.018153
      2          8           0       -1.779249   -0.129316   -0.020353
      3          6           0        0.556678   -0.434255    0.010456
      4          6           0        1.757397    0.144011   -0.005070
      5          1           0        0.439774   -1.484875    0.040686
      6          1           0        1.813201    1.158369   -0.064746
      7          1           0        2.703696   -0.427803   -0.022478
      8          1           0       -0.545252    1.446249    0.068130
 ---------------------------------------------------------------------

 SCF Done:  E(RB2PLYPD3) =  -191.613836284     A.U. after   12 cycles
 E2(B2PLYPD3) =    -0.2462454053D+00 E(B2PLYPD3) =    -0.19186008168901D+03

 The electronic state is 1-A.
 Alpha  occ. eigenvalues --  -19.72760 -10.71350 -10.64979 -10.63953  -1.20097
 Alpha  occ. eigenvalues --   -0.93253  -0.75731  -0.67525  -0.57222  -0.56381
 Alpha  occ. eigenvalues --   -0.50695  -0.47434  -0.47081  -0.34679  -0.33816
 Alpha virt. eigenvalues --   -0.01713   0.05822   0.07320   0.08422   0.09822
 Alpha virt. eigenvalues --    0.12614   0.14010   0.15379   0.17626   0.19808
 Alpha virt. eigenvalues --    0.20236   0.21562   0.25539   0.26370   0.28876

 Mulliken charges:
               1
     1  C    0.149842
     2  O   -0.344432
     3  C   -0.032549
     4  C   -0.135635
     5  H    0.106127
     6  H    0.088467
     7  H    0.101068
     8  H    0.067111
 Sum of Mulliken charges =   0.00000

 Dipole moment (field-independent basis, Debye):
    X=              3.4324    Y=              0.7704    Z=              0.0476  Tot=              3.5181
 Quadrupole moment (field-independent basis, Debye-Ang):
   XX=            -27.2054   YY=            -21.8750   ZZ=            -25.0943
   XY=             -1.0140   XZ=             -0.2403   YZ=             -0.0960

 Normal termination of Gaussian 09 at Wed Aug 26 16:33:04 2020.
