 Gaussian 09, Revision D.01,
 Gaussian 09:  ES64L-G09RevD.01 24-Apr-2013

 --------------------
 #p B2PLYPD3/Def2QZVP
 --------------------

 --------
 acrolein
 --------
 Symbolic Z-matrix:
 Charge =  0 Multiplicity = 1

                         Standard orientation:
 ---------------------------------------------------------------------
 Center     Atomic      Atomic             Coordinates (Angstroms)
 Number     Number       Type             X           Y           Z
 ---------------------------------------------------------------------
      1          6           0       -0.690828    0.371247    0.030338
      2          8           0       -1.761471   -0.137790   -0.040568
      3          6           0        0.553643   -0.449516    0.015466
      4          6           0        1.747415    0.147184   -0.015069
      5          1           0        0.462891   -1.510153    0.131243
      6          1           0        1.835598    1.186902   -0.082889
      7          1           0        2.708909   -0.410381   -0.059328
      8          1           0       -0.577010    1.422465    0.151115
 ---------------------------------------------------------------------

 SCF Done:  E(RB2PLYPD3) =  -191.613541307     A.U. after   12 cycles
 E2(B2PLYPD3) =    -0.2455227338D+00 E(B2PLYPD3) =    -0.19185906404031D+03

 The electronic state is 1-A.
 Alpha  occ. eigenvalues --  -19.72654 -10.71021 -10.64864 -10.64061  -1.20968
 Alpha  occ. eigenvalues --   -0.92387  -0.74865  -0.67904  -0.57404  -0.55990
 Alpha  occ. eigenvalues --   -0.50911  -0.47512  -0.46667  -0.34435  -0.33736
 Alpha virt. eigenvalues --   -0.01041   0.05862   0.07302   0.08087   0.09715
 Alpha virt. eigenvalues --    0.12581   0.14245   0.15326   0.17854   0.19570
 Alpha virt. eigenvalues --    0.20168   0.21452   0.25291   0.26670   0.28814

 Mulliken charges:
               1
     1  C    0.151009
     2  O   -0.334469
     3  C   -0.055444
     4  C   -0.133407
     5  H    0.110438
     6  H    0.081510
     7  H    0.093619
     8  H    0.086744
 Sum of Mulliken charges =   0.00000

 Dipole moment (field-independent basis, Debye):
    X=              3.1909    Y=              0.8959    Z=              0.1747  Tot=              3.3189
 Quadrupole moment (field-independent basis, Debye-Ang):
   XX=            -27.2934   YY=            -21.6379   ZZ=            -25.1168
   XY=             -1.0808   XZ=             -0.4195   YZ=             -0.1911

 Normal termination of Gaussian 09 at Wed Aug 26 08:40:06 2020.
