 Gaussian 09, Revision D.01,
 Gaussian 09:  ES64L-G09RevD.01 24-Apr-2013

 --------------------
 #p B2PLYPD3/Def2QZVP
 --------------------

 --------
 acrolein
 --------
 Symbolic Z-matrix:
 Charge =  0 Multiplicity = 1

                         Standard orientation:
 ---------------------------------------------------------------------
 Center     Atomic      Atomic             Coordinates (Angstroms)
 Number     Number       Type             X           Y           Z
 ---------------------------------------------------------------------
      1          6           0       -0.669364    0.360708   -0.024009
      2          8           0       -1.787327   -0.130133    0.024311
      3          6           0        0.558481   -0.457035   -0.033855
      4          6           0        1.746956    0.142027    0.011777
      5          1           0        0.478222   -1.512568    0.000996
      6          1           0        1.820397    1.235406    0.021736
      7          1           0        2.681403   -0.432518    0.072556
      8          1           0       -0.497847    1.476544   -0.013252
 ---------------------------------------------------------------------

 SCF Done:  E(RB2PLYPD3) =  -191.614785801     A.U. after   12 cycles
 E2(B2PLYPD3) =    -0.2479396544D+00 E(B2PLYPD3) =    -0.19186272545524D+03

 The electronic state is 1-A.
 Alpha  occ. eigenvalues --  -19.72900 -10.72098 -10.65662 -10.64208  -1.18903
 Alpha  occ. eigenvalues --   -0.93029  -0.74961  -0.67077  -0.56344  -0.56110
 Alpha  occ. eigenvalues --   -0.50291  -0.46992  -0.46460  -0.34654  -0.33913
 Alpha virt. eigenvalues --   -0.01737   0.05674   0.07082   0.07882   0.09733
 Alpha virt. eigenvalues --    0.12469   0.13872   0.15338   0.17597   0.19758
 Alpha virt. eigenvalues --    0.19930   0.21377   0.25357   0.26387   0.28848

 Mulliken charges:
               1
     1  C    0.154735
     2  O   -0.351907
     3  C   -0.041145
     4  C   -0.127913
     5  H    0.109908
     6  H    0.082533
     7  H    0.099412
     8  H    0.074378
 Sum of Mulliken charges =   0.00000

 Dipole moment (field-independent basis, Debye):
    X=              3.5018    Y=              0.7789    Z=             -0.0017  Tot=              3.5874
 Quadrupole moment (field-independent basis, Debye-Ang):
   XX=            -27.6092   YY=            -21.6388   ZZ=            -25.2791
   XY=             -1.0416   XZ=              0.3350   YZ=             -0.0390

 Normal termination of Gaussian 09 at Wed Aug 26 09:18:36 2020.
