 Gaussian 09, Revision D.01,
 Gaussian 09:  ES64L-G09RevD.01 24-Apr-2013

 --------------------
 #p B2PLYPD3/Def2QZVP
 --------------------

 --------
 acrolein
 --------
 Symbolic Z-matrix:
 Charge =  0 Multiplicity = 1

                         Standard orientation:
 ---------------------------------------------------------------------
 Center     Atomic      Atomic             Coordinates (Angstroms)
 Number     Number       Type             X           Y           Z
 ---------------------------------------------------------------------
      1          6           0        0.674949    0.346887   -0.004865
      2          8           0        1.791196   -0.113538    0.002813
      3          6           0       -0.574029   -0.461070    0.005035
      4          6           0       -1.762580    0.148284   -0.008738
      5          1           0       -0.443295   -1.571258    0.010263
      6          1           0       -1.870896    1.257561    0.066853
      7          1           0       -2.592199   -0.414877   -0.019211
      8          1           0        0.546777    1.432272   -0.028998
 ---------------------------------------------------------------------

 SCF Done:  E(RB2PLYPD3) =  -191.610319038     A.U. after   13 cycles
 E2(B2PLYPD3) =    -0.2469040986D+00 E(B2PLYPD3) =    -0.19185722313661D+03

 The electronic state is 1-A.
 Alpha  occ. eigenvalues --  -19.72724 -10.71422 -10.64992 -10.64867  -1.19632
 Alpha  occ. eigenvalues --   -0.92774  -0.75684  -0.66600  -0.56931  -0.56256
 Alpha  occ. eigenvalues --   -0.50685  -0.47030  -0.46669  -0.34641  -0.33700
 Alpha virt. eigenvalues --   -0.01577   0.05823   0.07105   0.08099   0.09683
 Alpha virt. eigenvalues --    0.12588   0.14133   0.15367   0.17223   0.19588
 Alpha virt. eigenvalues --    0.20037   0.22117   0.25266   0.26443   0.28511

 Mulliken charges:
               1
     1  C    0.159180
     2  O   -0.346211
     3  C   -0.048445
     4  C   -0.131322
     5  H    0.100957
     6  H    0.087134
     7  H    0.106218
     8  H    0.072488
 Sum of Mulliken charges =   0.00000

 Dipole moment (field-independent basis, Debye):
    X=             -3.4461    Y=              0.7447    Z=              0.0278  Tot=              3.5257
 Quadrupole moment (field-independent basis, Debye-Ang):
   XX=            -27.5847   YY=            -21.5516   ZZ=            -25.2264
   XY=              0.8743   XZ=             -0.0848   YZ=              0.0746

 Normal termination of Gaussian 09 at Wed Aug 26 19:32:34 2020.
