 Gaussian 09, Revision D.01,
 Gaussian 09:  ES64L-G09RevD.01 24-Apr-2013

 --------------------
 #p B2PLYPD3/Def2QZVP
 --------------------

 --------
 acrolein
 --------
 Symbolic Z-matrix:
 Charge =  0 Multiplicity = 1

                         Standard orientation:
 ---------------------------------------------------------------------
 Center     Atomic      Atomic             Coordinates (Angstroms)
 Number     Number       Type             X           Y           Z
 ---------------------------------------------------------------------
      1          6           0       -0.642028   -0.340364    0.020573
      2          8           0       -1.798337    0.113932   -0.039211
      3          6           0        0.602293    0.467898    0.003690
      4          6           0        1.730222   -0.178273   -0.009862
      5          1           0        0.457732    1.602163    0.187456
      6          1           0        1.664895   -1.171355   -0.067289
      7          1           0        2.654628    0.361018   -0.098005
      8          1           0       -0.533481   -1.398843    0.205118
 ---------------------------------------------------------------------

 SCF Done:  E(RB2PLYPD3) =  -191.599078033     A.U. after   13 cycles
 E2(B2PLYPD3) =    -0.2482186236D+00 E(B2PLYPD3) =    -0.19184729665701D+03

 The electronic state is 1-A.
 Alpha  occ. eigenvalues --  -19.72760 -10.71763 -10.64998 -10.64030  -1.17470
 Alpha  occ. eigenvalues --   -0.94458  -0.75528  -0.67184  -0.57712  -0.56019
 Alpha  occ. eigenvalues --   -0.50052  -0.47286  -0.45238  -0.35359  -0.33728
 Alpha virt. eigenvalues --   -0.01647   0.05980   0.06430   0.07655   0.09738
 Alpha virt. eigenvalues --    0.12835   0.13855   0.14949   0.17003   0.19476
 Alpha virt. eigenvalues --    0.20727   0.21738   0.24814   0.27008   0.29185

 Mulliken charges:
               1
     1  C    0.144597
     2  O   -0.364563
     3  C   -0.027204
     4  C   -0.124916
     5  H    0.101316
     6  H    0.085698
     7  H    0.104318
     8  H    0.080754
 Sum of Mulliken charges =   0.00000

 Dipole moment (field-independent basis, Debye):
    X=              3.6044    Y=             -0.7789    Z=              0.2130  Tot=              3.6938
 Quadrupole moment (field-independent basis, Debye-Ang):
   XX=            -28.0141   YY=            -21.5978   ZZ=            -25.0668
   XY=              1.0486   XZ=             -0.4713   YZ=              0.2194

 Normal termination of Gaussian 09 at Wed Aug 26 12:42:38 2020.
