 Gaussian 09, Revision D.01,
 Gaussian 09:  ES64L-G09RevD.01 24-Apr-2013

 --------------------
 #p B2PLYPD3/Def2QZVP
 --------------------

 ---------
 butadiene
 ---------
 Symbolic Z-matrix:
 Charge =  0 Multiplicity = 1

                         Standard orientation:
 ---------------------------------------------------------------------
 Center     Atomic      Atomic             Coordinates (Angstroms)
 Number     Number       Type             X           Y           Z
 ---------------------------------------------------------------------
      1          6           0       -1.833282    0.065863    0.048936
      2          6           0       -0.588231   -0.374044   -0.044273
      3          6           0        0.628689    0.472440   -0.055501
      4          6           0        1.807753   -0.157500    0.006155
      5          1           0       -2.755998   -0.539396    0.051179
      6          1           0       -1.962397    1.180236    0.145991
      7          1           0       -0.429223   -1.420471   -0.150475
      8          1           0        0.510148    1.615884   -0.177722
      9          1           0        1.859632   -1.307115    0.114289
     10          1           0        2.688263    0.430308    0.284833
 ---------------------------------------------------------------------

 SCF Done:  E(RB2PLYPD3) =  -155.683677709     A.U. after   11 cycles
 E2(B2PLYPD3) =    -0.2272258206D+00 E(B2PLYPD3) =    -0.15591090352992D+03

 The electronic state is 1-A.
 Alpha  occ. eigenvalues --  -10.63898 -10.62553 -10.62275 -10.61775  -0.92777
 Alpha  occ. eigenvalues --   -0.84695  -0.68756  -0.63383  -0.54185  -0.52926
 Alpha  occ. eigenvalues --   -0.46699  -0.44143  -0.40928  -0.37693  -0.27905
 Alpha virt. eigenvalues --    0.01965   0.06894   0.07025   0.07862   0.09022
 Alpha virt. eigenvalues --    0.11650   0.12422   0.14144   0.15463   0.16135
 Alpha virt. eigenvalues --    0.18690   0.19873   0.21200   0.23061   0.23504

 Mulliken charges:
               1
     1  C   -0.174126
     2  C   -0.024310
     3  C   -0.046571
     4  C   -0.158216
     5  H    0.088983
     6  H    0.050071
     7  H    0.059361
     8  H    0.064684
     9  H    0.059098
    10  H    0.081025
 Sum of Mulliken charges =   0.00000

 Dipole moment (field-independent basis, Debye):
    X=              0.0132    Y=              0.0022    Z=              0.1699  Tot=              0.1704
 Quadrupole moment (field-independent basis, Debye-Ang):
   XX=            -24.1612   YY=            -23.0533   ZZ=            -29.3367
   XY=              0.1126   XZ=              0.6433   YZ=              0.0725

 1\1\GINC-NODE32\SP\RB2PLYPD3-FC\def2QZVP\C4H6\BOITTIER\26-Aug-2020\0\\
 #p B2PLYPD3/Def2QZVP\\butadiene\\0,1\C,0,-3.846986,0.176869,0.064183\C
 ,0,-2.699762,-0.480045,-0.00438\C,0,-1.352022,0.136255,-0.040782\C,0,-
 0.303314,-0.689797,0.052323\H,0,-4.862413,-0.254708,0.084109\H,0,-3.77
 6346,1.299408,0.11742\H,0,-2.72894,-1.541421,-0.069193\H,0,-1.265999,1
 .276952,-0.20771\H,0,-0.456049,-1.825297,0.205005\H,0,0.66771,-0.25694
 ,0.313519\\Version=ES64L-G09RevD.01\State=1-A\HF=-155.6836777\MP2=-155
 .9109035\RMSD=7.501e-09\PG=C01 [X(C4H6)]\\@

 Normal termination of Gaussian 09 at Wed Aug 26 13:39:22 2020.
