 Gaussian 09, Revision D.01,
 Gaussian 09:  ES64L-G09RevD.01 24-Apr-2013

 --------------------
 #p B2PLYPD3/Def2QZVP
 --------------------

 ---------
 butadiene
 ---------
 Symbolic Z-matrix:
 Charge =  0 Multiplicity = 1

                         Standard orientation:
 ---------------------------------------------------------------------
 Center     Atomic      Atomic             Coordinates (Angstroms)
 Number     Number       Type             X           Y           Z
 ---------------------------------------------------------------------
      1          6           0       -1.827114    0.105501    0.011784
      2          6           0       -0.589625   -0.385239   -0.023996
      3          6           0        0.601774    0.396879   -0.038107
      4          6           0        1.822813   -0.114196    0.024834
      5          1           0       -2.686542   -0.528036    0.028174
      6          1           0       -2.003459    1.151781    0.088661
      7          1           0       -0.433838   -1.455063    0.009138
      8          1           0        0.483565    1.509141   -0.042665
      9          1           0        1.878251   -1.226019    0.000940
     10          1           0        2.714938    0.530528    0.068665
 ---------------------------------------------------------------------

 SCF Done:  E(RB2PLYPD3) =  -155.697258134     A.U. after   11 cycles
 E2(B2PLYPD3) =    -0.2258600305D+00 E(B2PLYPD3) =    -0.15592311816453D+03

 The electronic state is 1-A.
 Alpha  occ. eigenvalues --  -10.62332 -10.62183 -10.61895 -10.61099  -0.93593
 Alpha  occ. eigenvalues --   -0.85069  -0.70249  -0.63686  -0.54803  -0.53847
 Alpha  occ. eigenvalues --   -0.46706  -0.45273  -0.41105  -0.38580  -0.27647
 Alpha virt. eigenvalues --    0.01709   0.07025   0.07272   0.07996   0.09852
 Alpha virt. eigenvalues --    0.11758   0.12461   0.14672   0.15805   0.16060
 Alpha virt. eigenvalues --    0.18574   0.20431   0.21462   0.22782   0.24095

 Mulliken charges:
               1
     1  C   -0.178797
     2  C   -0.024248
     3  C   -0.016794
     4  C   -0.177700
     5  H    0.086053
     6  H    0.066879
     7  H    0.048294
     8  H    0.043040
     9  H    0.060681
    10  H    0.092593
 Sum of Mulliken charges =   0.00000

 Dipole moment (field-independent basis, Debye):
    X=             -0.0174    Y=              0.0303    Z=              0.1006  Tot=              0.1065
 Quadrupole moment (field-independent basis, Debye-Ang):
   XX=            -23.6171   YY=            -23.1823   ZZ=            -29.2114
   XY=              0.1051   XZ=             -0.0751   YZ=              0.0869

 1\1\GINC-NODE25\SP\RB2PLYPD3-FC\def2QZVP\C4H6\BOITTIER\26-Aug-2020\0\\
 #p B2PLYPD3/Def2QZVP\\butadiene\\0,1\C,0,-3.831217,0.218595,0.034971\C
 ,0,-2.702692,-0.488118,0.013188\C,0,-1.389822,0.065581,-0.020397\C,0,-
 0.280764,-0.655592,0.057027\H,0,-4.790754,-0.248847,0.067228\H,0,-3.81
 5645,1.28116,0.084192\H,0,-2.742306,-1.567265,0.074541\H,0,-1.305481,1
 .180418,-0.054264\H,0,-0.426877,-1.759412,0.062385\H,0,0.713185,-0.181
 485,0.084706\\Version=ES64L-G09RevD.01\State=1-A\HF=-155.6972581\MP2=-
 155.9231182\RMSD=5.876e-09\PG=C01 [X(C4H6)]\\@

 Normal termination of Gaussian 09 at Wed Aug 26 11:10:37 2020.
