 Gaussian 09, Revision D.01,
 Gaussian 09:  ES64L-G09RevD.01 24-Apr-2013

 --------------------
 #p B2PLYPD3/Def2QZVP
 --------------------

 ---------
 butadiene
 ---------
 Symbolic Z-matrix:
 Charge =  0 Multiplicity = 1

                         Standard orientation:
 ---------------------------------------------------------------------
 Center     Atomic      Atomic             Coordinates (Angstroms)
 Number     Number       Type             X           Y           Z
 ---------------------------------------------------------------------
      1          6           0        1.827232   -0.115685    0.022044
      2          6           0        0.607105    0.417668   -0.021967
      3          6           0       -0.598579   -0.396957   -0.010702
      4          6           0       -1.831673    0.103146    0.010443
      5          1           0        2.723074    0.477608    0.069855
      6          1           0        1.938744   -1.217644   -0.063860
      7          1           0        0.515753    1.506373   -0.048162
      8          1           0       -0.464831   -1.461454   -0.006823
      9          1           0       -2.010898    1.146338    0.009053
     10          1           0       -2.726355   -0.500253    0.041030
 ---------------------------------------------------------------------

 SCF Done:  E(RB2PLYPD3) =  -155.699789109     A.U. after   11 cycles
 E2(B2PLYPD3) =    -0.2255066386D+00 E(B2PLYPD3) =    -0.15592529574790D+03

 The electronic state is 1-A.
 Alpha  occ. eigenvalues --  -10.62576 -10.62384 -10.61647 -10.61078  -0.93087
 Alpha  occ. eigenvalues --   -0.84993  -0.70034  -0.64232  -0.54890  -0.53885
 Alpha  occ. eigenvalues --   -0.46804  -0.45232  -0.41370  -0.38126  -0.27702
 Alpha virt. eigenvalues --    0.01895   0.07043   0.07409   0.08071   0.09505
 Alpha virt. eigenvalues --    0.11663   0.12590   0.14585   0.15916   0.16298
 Alpha virt. eigenvalues --    0.18764   0.20499   0.21668   0.22960   0.23807

 Mulliken charges:
               1
     1  C   -0.172793
     2  C   -0.032456
     3  C   -0.029470
     4  C   -0.173503
     5  H    0.086998
     6  H    0.060435
     7  H    0.055874
     8  H    0.058112
     9  H    0.064622
    10  H    0.082180
 Sum of Mulliken charges =   0.00000

 Dipole moment (field-independent basis, Debye):
    X=              0.0015    Y=              0.0375    Z=             -0.0232  Tot=              0.0441
 Quadrupole moment (field-independent basis, Debye-Ang):
   XX=            -23.3875   YY=            -23.1340   ZZ=            -29.2231
   XY=             -0.0522   XZ=             -0.0697   YZ=              0.0628

 1\1\GINC-NODE21\SP\RB2PLYPD3-FC\def2QZVP\C4H6\BOITTIER\26-Aug-2020\0\\
 #p B2PLYPD3/Def2QZVP\\butadiene\\0,1\C,0,-3.828245,0.227443,0.038336\C
 ,0,-2.723544,-0.516986,0.014429\C,0,-1.391402,0.068405,0.002992\C,0,-0
 .267784,-0.643589,0.043188\H,0,-4.815724,-0.193947,0.102606\H,0,-3.740
 817,1.328271,-0.082754\H,0,-2.828782,-1.604719,0.023004\H,0,-1.33228,1
 .139222,-0.02723\H,0,-0.27834,-1.701525,0.07534\H,0,0.72061,-0.209572,
 0.056953\\Version=ES64L-G09RevD.01\State=1-A\HF=-155.6997891\MP2=-155.
 9252957\RMSD=2.878e-09\PG=C01 [X(C4H6)]\\@

 Normal termination of Gaussian 09 at Wed Aug 26 08:44:42 2020.
