 Gaussian 09, Revision D.01,
 Gaussian 09:  ES64L-G09RevD.01 24-Apr-2013

 --------------------
 #p B2PLYPD3/Def2QZVP
 --------------------

 ---------
 butadiene
 ---------
 Symbolic Z-matrix:
 Charge =  0 Multiplicity = 1

                         Standard orientation:
 ---------------------------------------------------------------------
 Center     Atomic      Atomic             Coordinates (Angstroms)
 Number     Number       Type             X           Y           Z
 ---------------------------------------------------------------------
      1          6           0       -1.840732    0.107137    0.027735
      2          6           0       -0.609264   -0.388515   -0.010923
      3          6           0        0.612748    0.399035   -0.029359
      4          6           0        1.840907   -0.112167    0.020665
      5          1           0       -2.677974   -0.549961   -0.054190
      6          1           0       -2.007711    1.175250    0.058212
      7          1           0       -0.500680   -1.463586   -0.070836
      8          1           0        0.461732    1.474443   -0.039127
      9          1           0        2.007951   -1.181041    0.078318
     10          1           0        2.694725    0.511950   -0.021088
 ---------------------------------------------------------------------

 SCF Done:  E(RB2PLYPD3) =  -155.701005659     A.U. after   11 cycles
 E2(B2PLYPD3) =    -0.2252120986D+00 E(B2PLYPD3) =    -0.15592621775719D+03

 The electronic state is 1-A.
 Alpha  occ. eigenvalues --  -10.62467 -10.62208 -10.61278 -10.61174  -0.93065
 Alpha  occ. eigenvalues --   -0.85229  -0.70374  -0.64003  -0.54803  -0.54169
 Alpha  occ. eigenvalues --   -0.46907  -0.45834  -0.41038  -0.38116  -0.27829
 Alpha virt. eigenvalues --    0.01800   0.07039   0.07458   0.08102   0.09769
 Alpha virt. eigenvalues --    0.11721   0.12410   0.14818   0.15824   0.16129
 Alpha virt. eigenvalues --    0.18863   0.20500   0.21568   0.22667   0.24005

 Mulliken charges:
               1
     1  C   -0.179523
     2  C   -0.022687
     3  C   -0.034932
     4  C   -0.174335
     5  H    0.087617
     6  H    0.064665
     7  H    0.051333
     8  H    0.052761
     9  H    0.066818
    10  H    0.088283
 Sum of Mulliken charges =   0.00000

 Dipole moment (field-independent basis, Debye):
    X=              0.0249    Y=             -0.0054    Z=             -0.0695  Tot=              0.0741
 Quadrupole moment (field-independent basis, Debye-Ang):
   XX=            -23.4789   YY=            -23.0905   ZZ=            -29.1730
   XY=             -0.1048   XZ=              0.1799   YZ=              0.0459

 1\1\GINC-NODE20\SP\RB2PLYPD3-FC\def2QZVP\C4H6\BOITTIER\26-Aug-2020\0\\
 #p B2PLYPD3/Def2QZVP\\butadiene\\0,1\C,0,-3.844227,0.220927,0.042652\C
 ,0,-2.721789,-0.488534,0.020857\C,0,-1.378299,0.066148,-0.014541\C,0,-
 0.261757,-0.655665,0.052714\H,0,-4.785951,-0.277177,-0.024524\H,0,-3.8
 1673,1.302092,0.044478\H,0,-2.808031,-1.56684,-0.010392\H,0,-1.333857,
 1.150557,-0.053089\H,0,-0.289178,-1.735258,0.139008\H,0,0.690145,-0.19
 6242,-0.002825\\Version=ES64L-G09RevD.01\State=1-A\HF=-155.7010057\MP2
 =-155.9262178\RMSD=3.771e-09\PG=C01 [X(C4H6)]\\@

 Normal termination of Gaussian 09 at Wed Aug 26 21:10:58 2020.
