 Gaussian 09, Revision D.01,
 Gaussian 09:  ES64L-G09RevD.01 24-Apr-2013

 --------------------
 #p B2PLYPD3/Def2QZVP
 --------------------

 ---------
 butadiene
 ---------
 Symbolic Z-matrix:
 Charge =  0 Multiplicity = 1

                         Standard orientation:
 ---------------------------------------------------------------------
 Center     Atomic      Atomic             Coordinates (Angstroms)
 Number     Number       Type             X           Y           Z
 ---------------------------------------------------------------------
      1          6           0        1.832908   -0.126274    0.014635
      2          6           0        0.604865    0.423279   -0.023086
      3          6           0       -0.610012   -0.387612   -0.013476
      4          6           0       -1.832392    0.101374    0.006277
      5          1           0        2.733634    0.488168    0.012594
      6          1           0        1.957152   -1.204861    0.053142
      7          1           0        0.487832    1.492614   -0.060476
      8          1           0       -0.457666   -1.462293   -0.008698
      9          1           0       -1.983871    1.184378    0.128653
     10          1           0       -2.709299   -0.562608   -0.031313
 ---------------------------------------------------------------------

 SCF Done:  E(RB2PLYPD3) =  -155.699688349     A.U. after   11 cycles
 E2(B2PLYPD3) =    -0.2257642292D+00 E(B2PLYPD3) =    -0.15592545257800D+03

 The electronic state is 1-A.
 Alpha  occ. eigenvalues --  -10.62649 -10.62211 -10.61821 -10.61533  -0.93013
 Alpha  occ. eigenvalues --   -0.84899  -0.69660  -0.64100  -0.54272  -0.53877
 Alpha  occ. eigenvalues --   -0.46633  -0.45502  -0.41099  -0.38074  -0.27762
 Alpha virt. eigenvalues --    0.01903   0.06996   0.07360   0.08031   0.09506
 Alpha virt. eigenvalues --    0.11724   0.12367   0.14621   0.15808   0.16109
 Alpha virt. eigenvalues --    0.18716   0.20452   0.21363   0.22872   0.23936

 Mulliken charges:
               1
     1  C   -0.175575
     2  C   -0.038130
     3  C   -0.023190
     4  C   -0.176197
     5  H    0.085151
     6  H    0.066513
     7  H    0.058097
     8  H    0.052957
     9  H    0.064642
    10  H    0.085730
 Sum of Mulliken charges =   0.00000

 Dipole moment (field-independent basis, Debye):
    X=              0.0308    Y=             -0.0072    Z=              0.0647  Tot=              0.0720
 Quadrupole moment (field-independent basis, Debye-Ang):
   XX=            -23.6746   YY=            -23.0504   ZZ=            -29.2826
   XY=             -0.0354   XZ=             -0.0416   YZ=              0.0592

 1\1\GINC-NODE25\SP\RB2PLYPD3-FC\def2QZVP\C4H6\BOITTIER\26-Aug-2020\0\\
 #p B2PLYPD3/Def2QZVP\\butadiene\\0,1\C,0,-3.833337,0.237426,0.032697\C
 ,0,-2.72309,-0.523201,0.014819\C,0,-1.38307,0.057961,0.002147\C,0,-0.2
 6741,-0.640316,0.03983\H,0,-4.829189,-0.206317,0.047583\H,0,-3.763147,
 1.321547,0.037543\H,0,-2.798722,-1.596903,0.010787\H,0,-1.341338,1.142
 212,-0.026664\H,0,-0.311066,-1.728677,0.195989\H,0,0.71371,-0.144826,-
 0.016255\\Version=ES64L-G09RevD.01\State=1-A\HF=-155.6996883\MP2=-155.
 9254526\RMSD=5.666e-09\PG=C01 [X(C4H6)]\\@

 Normal termination of Gaussian 09 at Wed Aug 26 20:50:51 2020.
