 Gaussian 09, Revision D.01,
 Gaussian 09:  ES64L-G09RevD.01 24-Apr-2013

 --------------------
 #p B2PLYPD3/Def2QZVP
 --------------------

 ---------
 butadiene
 ---------
 Symbolic Z-matrix:
 Charge =  0 Multiplicity = 1

                         Standard orientation:
 ---------------------------------------------------------------------
 Center     Atomic      Atomic             Coordinates (Angstroms)
 Number     Number       Type             X           Y           Z
 ---------------------------------------------------------------------
      1          6           0       -1.820969   -0.126662    0.046437
      2          6           0       -0.596763    0.440517   -0.042931
      3          6           0        0.602098   -0.394790   -0.041299
      4          6           0        1.831901    0.095398    0.021246
      5          1           0       -2.755391    0.453126    0.000886
      6          1           0       -2.027059   -1.182225   -0.004421
      7          1           0       -0.472589    1.529805    0.028335
      8          1           0        0.431313   -1.494700   -0.031599
      9          1           0        1.988014    1.162237    0.000840
     10          1           0        2.738110   -0.555024    0.105235
 ---------------------------------------------------------------------

 SCF Done:  E(RB2PLYPD3) =  -155.695526766     A.U. after   11 cycles
 E2(B2PLYPD3) =    -0.2265301954D+00 E(B2PLYPD3) =    -0.15592205696140D+03

 The electronic state is 1-A.
 Alpha  occ. eigenvalues --  -10.63256 -10.62721 -10.61945 -10.61632  -0.92837
 Alpha  occ. eigenvalues --   -0.84556  -0.69747  -0.63938  -0.54329  -0.53513
 Alpha  occ. eigenvalues --   -0.46643  -0.44963  -0.40903  -0.38094  -0.27624
 Alpha virt. eigenvalues --    0.01720   0.06991   0.07252   0.07965   0.09208
 Alpha virt. eigenvalues --    0.11646   0.12497   0.14593   0.15712   0.16247
 Alpha virt. eigenvalues --    0.18741   0.19903   0.22165   0.23137   0.23453

 Mulliken charges:
               1
     1  C   -0.166297
     2  C   -0.041656
     3  C   -0.022212
     4  C   -0.175034
     5  H    0.073650
     6  H    0.065221
     7  H    0.063085
     8  H    0.054477
     9  H    0.064962
    10  H    0.083803
 Sum of Mulliken charges =   0.00000

 Dipole moment (field-independent basis, Debye):
    X=             -0.0440    Y=             -0.0088    Z=              0.0252  Tot=              0.0514
 Quadrupole moment (field-independent basis, Debye-Ang):
   XX=            -23.5372   YY=            -23.0982   ZZ=            -29.3874
   XY=              0.3890   XZ=              0.3068   YZ=              0.0117

 1\1\GINC-NODE31\SP\RB2PLYPD3-FC\def2QZVP\C4H6\BOITTIER\26-Aug-2020\0\\
 #p B2PLYPD3/Def2QZVP\\butadiene\\0,1\C,0,-3.821257,0.241473,-0.02589\C
 ,0,-2.720345,-0.536601,0.078761\C,0,-1.389414,0.065842,0.052439\C,0,-0
 .269869,-0.641824,0.003037\H,0,-4.845374,-0.1568,0.036853\H,0,-3.83131
 5,1.317919,-0.005032\H,0,-2.797095,-1.631835,0.038525\H,0,-1.357037,1.
 177749,0.011473\H,0,-0.310585,-1.718254,0.053772\H,0,0.739147,-0.17005
 9,-0.100123\\Version=ES64L-G09RevD.01\State=1-A\HF=-155.6955268\MP2=-1
 55.922057\RMSD=6.803e-09\PG=C01 [X(C4H6)]\\@

 Normal termination of Gaussian 09 at Wed Aug 26 22:12:51 2020.
