 Gaussian 09, Revision D.01,
 Gaussian 09:  ES64L-G09RevD.01 24-Apr-2013

 --------------------
 #p B2PLYPD3/Def2QZVP
 --------------------

 ---------
 butadiene
 ---------
 Symbolic Z-matrix:
 Charge =  0 Multiplicity = 1

                         Standard orientation:
 ---------------------------------------------------------------------
 Center     Atomic      Atomic             Coordinates (Angstroms)
 Number     Number       Type             X           Y           Z
 ---------------------------------------------------------------------
      1          6           0       -1.831351    0.107754    0.012497
      2          6           0       -0.590594   -0.419029   -0.006875
      3          6           0        0.593322    0.378782   -0.001996
      4          6           0        1.825770   -0.091124    0.005160
      5          1           0       -2.799665   -0.431776   -0.006702
      6          1           0       -1.923252    1.244800    0.044067
      7          1           0       -0.447070   -1.507674   -0.120889
      8          1           0        0.498266    1.473253   -0.042263
      9          1           0        1.978062   -1.163579    0.138582
     10          1           0        2.710776    0.526679   -0.065510
 ---------------------------------------------------------------------

 SCF Done:  E(RB2PLYPD3) =  -155.694444508     A.U. after   11 cycles
 E2(B2PLYPD3) =    -0.2265548195D+00 E(B2PLYPD3) =    -0.15592099932775D+03

 The electronic state is 1-A.
 Alpha  occ. eigenvalues --  -10.62995 -10.62749 -10.62203 -10.61285  -0.93424
 Alpha  occ. eigenvalues --   -0.84708  -0.69887  -0.63622  -0.54833  -0.53431
 Alpha  occ. eigenvalues --   -0.46942  -0.44253  -0.41028  -0.38463  -0.27597
 Alpha virt. eigenvalues --    0.01547   0.07016   0.07256   0.07897   0.09643
 Alpha virt. eigenvalues --    0.11569   0.12554   0.14362   0.15710   0.16416
 Alpha virt. eigenvalues --    0.18687   0.20166   0.21554   0.22538   0.23757

 Mulliken charges:
               1
     1  C   -0.165331
     2  C   -0.038665
     3  C   -0.011540
     4  C   -0.176903
     5  H    0.088599
     6  H    0.053592
     7  H    0.055656
     8  H    0.048109
     9  H    0.058638
    10  H    0.087845
 Sum of Mulliken charges =   0.00000

 Dipole moment (field-independent basis, Debye):
    X=             -0.0039    Y=             -0.0005    Z=             -0.0538  Tot=              0.0539
 Quadrupole moment (field-independent basis, Debye-Ang):
   XX=            -23.2616   YY=            -23.4117   ZZ=            -29.3027
   XY=              0.0896   XZ=              0.0498   YZ=             -0.0499

 1\1\GINC-NODE15\SP\RB2PLYPD3-FC\def2QZVP\C4H6\BOITTIER\26-Aug-2020\0\\
 #p B2PLYPD3/Def2QZVP\\butadiene\\0,1\C,0,-3.832636,0.225401,0.028001\C
 ,0,-2.708001,-0.517935,0.027374\C,0,-1.399061,0.051801,0.011207\C,0,-0
 .272205,-0.633327,0.035374\H,0,-4.882769,-0.129967,0.02264\H,0,-3.7167
 88,1.360693,0.025305\H,0,-2.76456,-1.617471,-0.053663\H,0,-1.294255,1.
 14367,-0.062026\H,0,-0.316446,-1.711148,0.201198\H,0,0.709914,-0.1886,
 -0.051636\\Version=ES64L-G09RevD.01\State=1-A\HF=-155.6944445\MP2=-155
 .9209993\RMSD=6.691e-09\PG=C01 [X(C4H6)]\\@

 Normal termination of Gaussian 09 at Wed Aug 26 09:12:07 2020.
