 Gaussian 09, Revision D.01,
 Gaussian 09:  ES64L-G09RevD.01 24-Apr-2013

 --------------------
 #p B2PLYPD3/Def2QZVP
 --------------------

 ---------
 butadiene
 ---------
 Symbolic Z-matrix:
 Charge =  0 Multiplicity = 1

                         Standard orientation:
 ---------------------------------------------------------------------
 Center     Atomic      Atomic             Coordinates (Angstroms)
 Number     Number       Type             X           Y           Z
 ---------------------------------------------------------------------
      1          6           0       -1.826842   -0.123875    0.008231
      2          6           0       -0.610287    0.418225   -0.022277
      3          6           0        0.600054   -0.383052   -0.026172
      4          6           0        1.839334    0.096370    0.023373
      5          1           0       -2.742517    0.496542    0.072965
      6          1           0       -1.942162   -1.208809    0.012910
      7          1           0       -0.488692    1.477478   -0.021234
      8          1           0        0.457587   -1.460268    0.011769
      9          1           0        1.977813    1.171669    0.017223
     10          1           0        2.724419   -0.522622    0.007447
 ---------------------------------------------------------------------

 SCF Done:  E(RB2PLYPD3) =  -155.700273008     A.U. after   11 cycles
 E2(B2PLYPD3) =    -0.2256378702D+00 E(B2PLYPD3) =    -0.15592591087805D+03

 The electronic state is 1-A.
 Alpha  occ. eigenvalues --  -10.62369 -10.62308 -10.61897 -10.61351  -0.93180
 Alpha  occ. eigenvalues --   -0.84959  -0.69872  -0.64286  -0.54513  -0.53924
 Alpha  occ. eigenvalues --   -0.46924  -0.45213  -0.41150  -0.38252  -0.27763
 Alpha virt. eigenvalues --    0.01836   0.07000   0.07423   0.08049   0.09622
 Alpha virt. eigenvalues --    0.11696   0.12504   0.14580   0.15778   0.16211
 Alpha virt. eigenvalues --    0.18738   0.20253   0.21657   0.22969   0.23871

 Mulliken charges:
               1
     1  C   -0.171344
     2  C   -0.034492
     3  C   -0.023237
     4  C   -0.177468
     5  H    0.083893
     6  H    0.065889
     7  H    0.057886
     8  H    0.050444
     9  H    0.059720
    10  H    0.088711
 Sum of Mulliken charges =   0.00000

 Dipole moment (field-independent basis, Debye):
    X=             -0.0275    Y=              0.0114    Z=              0.0563  Tot=              0.0637
 Quadrupole moment (field-independent basis, Debye-Ang):
   XX=            -23.4877   YY=            -23.1588   ZZ=            -29.2511
   XY=              0.0027   XZ=             -0.1784   YZ=             -0.0007

 1\1\GINC-NODE04\SP\RB2PLYPD3-FC\def2QZVP\C4H6\BOITTIER\26-Aug-2020\0\\
 #p B2PLYPD3/Def2QZVP\\butadiene\\0,1\C,0,-3.827477,0.233111,0.00487\C,
 0,-2.727095,-0.516088,0.056522\C,0,-1.393201,0.056095,0.038685\C,0,-0.
 25948,-0.638078,0.008397\H,0,-4.839321,-0.215726,-0.042938\H,0,-3.7473
 77,1.320499,-0.034795\H,0,-2.796453,-1.579523,0.089668\H,0,-1.341274,1
 .139673,-0.034065\H,0,-0.31507,-1.720076,0.049298\H,0,0.721885,-0.1867
 44,0.007369\\Version=ES64L-G09RevD.01\State=1-A\HF=-155.700273\MP2=-15
 5.9259109\RMSD=4.658e-09\PG=C01 [X(C4H6)]\\@

 Normal termination of Gaussian 09 at Wed Aug 26 10:48:41 2020.
