 Gaussian 09, Revision D.01,
 Gaussian 09:  ES64L-G09RevD.01 24-Apr-2013

 --------------------
 #p B2PLYPD3/Def2QZVP
 --------------------

 ---------
 butadiene
 ---------
 Symbolic Z-matrix:
 Charge =  0 Multiplicity = 1

                         Standard orientation:
 ---------------------------------------------------------------------
 Center     Atomic      Atomic             Coordinates (Angstroms)
 Number     Number       Type             X           Y           Z
 ---------------------------------------------------------------------
      1          6           0       -1.838798    0.109463    0.007753
      2          6           0       -0.609151   -0.411275   -0.001343
      3          6           0        0.599820    0.395468    0.002055
      4          6           0        1.832073   -0.102025   -0.010462
      5          1           0       -2.713775   -0.497413   -0.039452
      6          1           0       -1.937010    1.210010   -0.057816
      7          1           0       -0.424122   -1.493825    0.081365
      8          1           0        0.463923    1.477769    0.048639
      9          1           0        2.004576   -1.180832   -0.053287
     10          1           0        2.702742    0.534502    0.032537
 ---------------------------------------------------------------------

 SCF Done:  E(RB2PLYPD3) =  -155.699647090     A.U. after   11 cycles
 E2(B2PLYPD3) =    -0.2258753707D+00 E(B2PLYPD3) =    -0.15592552246030D+03

 The electronic state is 1-A.
 Alpha  occ. eigenvalues --  -10.62708 -10.62411 -10.61679 -10.61488  -0.93058
 Alpha  occ. eigenvalues --   -0.84939  -0.70051  -0.63739  -0.54832  -0.53556
 Alpha  occ. eigenvalues --   -0.46883  -0.45346  -0.40990  -0.38160  -0.27776
 Alpha virt. eigenvalues --    0.01793   0.07062   0.07263   0.08093   0.09545
 Alpha virt. eigenvalues --    0.11714   0.12449   0.14624   0.15687   0.16144
 Alpha virt. eigenvalues --    0.18716   0.20226   0.21611   0.22926   0.23893

 Mulliken charges:
               1
     1  C   -0.174676
     2  C   -0.030741
     3  C   -0.022525
     4  C   -0.177998
     5  H    0.091229
     6  H    0.062747
     7  H    0.052288
     8  H    0.050085
     9  H    0.062565
    10  H    0.087025
 Sum of Mulliken charges =   0.00000

 Dipole moment (field-independent basis, Debye):
    X=              0.0137    Y=             -0.0103    Z=              0.0048  Tot=              0.0178
 Quadrupole moment (field-independent basis, Debye-Ang):
   XX=            -23.5294   YY=            -23.1640   ZZ=            -29.2769
   XY=             -0.0792   XZ=              0.2185   YZ=             -0.0038

 1\1\GINC-NODE37\SP\RB2PLYPD3-FC\def2QZVP\C4H6\BOITTIER\26-Aug-2020\0\\
 #p B2PLYPD3/Def2QZVP\\butadiene\\0,1\C,0,-3.838389,0.227334,0.023122\C
 ,0,-2.723813,-0.508103,0.034699\C,0,-1.388407,0.065344,0.017204\C,0,-0
 .267053,-0.647828,0.024645\H,0,-4.809148,-0.211706,-0.008221\H,0,-3.73
 5196,1.324806,-0.07716\H,0,-2.738327,-1.603116,0.151859\H,0,-1.325344,
 1.155246,0.029455\H,0,-0.293477,-1.740827,0.016172\H,0,0.704846,-0.178
 994,0.050842\\Version=ES64L-G09RevD.01\State=1-A\HF=-155.6996471\MP2=-
 155.9255225\RMSD=4.163e-09\PG=C01 [X(C4H6)]\\@

 Normal termination of Gaussian 09 at Wed Aug 26 09:51:13 2020.
