 Gaussian 09, Revision D.01,
 Gaussian 09:  ES64L-G09RevD.01 24-Apr-2013

 --------------------
 #p B2PLYPD3/Def2QZVP
 --------------------

 ---------
 butadiene
 ---------
 Symbolic Z-matrix:
 Charge =  0 Multiplicity = 1

                         Standard orientation:
 ---------------------------------------------------------------------
 Center     Atomic      Atomic             Coordinates (Angstroms)
 Number     Number       Type             X           Y           Z
 ---------------------------------------------------------------------
      1          6           0       -1.835827    0.101820    0.009244
      2          6           0       -0.598180   -0.398847   -0.018610
      3          6           0        0.600127    0.416677   -0.018948
      4          6           0        1.837272   -0.112797    0.005456
      5          1           0       -2.713871   -0.537376    0.066671
      6          1           0       -2.018851    1.175106   -0.014751
      7          1           0       -0.428661   -1.456427   -0.020369
      8          1           0        0.457015    1.474489    0.033016
      9          1           0        1.937410   -1.190189    0.035703
     10          1           0        2.746611    0.493276    0.036875
 ---------------------------------------------------------------------

 SCF Done:  E(RB2PLYPD3) =  -155.700329359     A.U. after   11 cycles
 E2(B2PLYPD3) =    -0.2259414277D+00 E(B2PLYPD3) =    -0.15592627078648D+03

 The electronic state is 1-A.
 Alpha  occ. eigenvalues --  -10.62443 -10.62349 -10.61802 -10.61650  -0.93084
 Alpha  occ. eigenvalues --   -0.84652  -0.70084  -0.64516  -0.54553  -0.53752
 Alpha  occ. eigenvalues --   -0.46750  -0.45621  -0.41359  -0.38108  -0.27520
 Alpha virt. eigenvalues --    0.01633   0.07008   0.07420   0.08128   0.09471
 Alpha virt. eigenvalues --    0.11700   0.12506   0.14642   0.15794   0.16177
 Alpha virt. eigenvalues --    0.18724   0.20435   0.21673   0.23072   0.23774

 Mulliken charges:
               1
     1  C   -0.177060
     2  C   -0.029333
     3  C   -0.030342
     4  C   -0.177544
     5  H    0.084507
     6  H    0.065501
     7  H    0.056085
     8  H    0.057923
     9  H    0.063221
    10  H    0.087042
 Sum of Mulliken charges =   0.00000

 Dipole moment (field-independent basis, Debye):
    X=             -0.0010    Y=              0.0107    Z=              0.0998  Tot=              0.1003
 Quadrupole moment (field-independent basis, Debye-Ang):
   XX=            -23.5047   YY=            -23.1251   ZZ=            -29.2976
   XY=             -0.1524   XZ=              0.0425   YZ=             -0.0201

 1\1\GINC-NODE40\SP\RB2PLYPD3-FC\def2QZVP\C4H6\BOITTIER\26-Aug-2020\0\\
 #p B2PLYPD3/Def2QZVP\\butadiene\\0,1\C,0,-3.839161,0.21929,0.0296\C,0,
 -2.713521,-0.499072,0.019452\C,0,-1.386714,0.084124,-0.002582\C,0,-0.2
 66645,-0.660904,0.040363\H,0,-4.818759,-0.247254,0.104142\H,0,-3.82369
 ,1.30676,-0.026839\H,0,-2.739494,-1.569413,0.049649\H,0,-1.33457,1.151
 376,0.017455\H,0,-0.364342,-1.737123,0.10299\H,0,0.73798,-0.229971,0.0
 55686\\Version=ES64L-G09RevD.01\State=1-A\HF=-155.7003294\MP2=-155.926
 2708\RMSD=4.546e-09\PG=C01 [X(C4H6)]\\@

 Normal termination of Gaussian 09 at Wed Aug 26 21:36:02 2020.
