 Gaussian 09, Revision D.01,
 Gaussian 09:  ES64L-G09RevD.01 24-Apr-2013

 --------------------
 #p B2PLYPD3/Def2QZVP
 --------------------

 ---------
 butadiene
 ---------
 Symbolic Z-matrix:
 Charge =  0 Multiplicity = 1

                         Standard orientation:
 ---------------------------------------------------------------------
 Center     Atomic      Atomic             Coordinates (Angstroms)
 Number     Number       Type             X           Y           Z
 ---------------------------------------------------------------------
      1          6           0       -1.821159   -0.175172    0.073173
      2          6           0       -0.594406    0.462417   -0.057859
      3          6           0        0.605137   -0.355123   -0.069732
      4          6           0        1.819590    0.087031    0.035016
      5          1           0       -2.653929    0.496217    0.006822
      6          1           0       -1.942170   -1.266291    0.022800
      7          1           0       -0.548486    1.570621    0.011939
      8          1           0        0.483781   -1.409081   -0.155570
      9          1           0        1.943415    1.167155    0.007224
     10          1           0        2.662414   -0.673538    0.223203
 ---------------------------------------------------------------------

 SCF Done:  E(RB2PLYPD3) =  -155.682895626     A.U. after   12 cycles
 E2(B2PLYPD3) =    -0.2271871069D+00 E(B2PLYPD3) =    -0.15591008273274D+03

 The electronic state is 1-A.
 Alpha  occ. eigenvalues --  -10.63620 -10.62281 -10.61471 -10.61312  -0.93168
 Alpha  occ. eigenvalues --   -0.84647  -0.69237  -0.63991  -0.54570  -0.52939
 Alpha  occ. eigenvalues --   -0.46226  -0.45029  -0.41548  -0.37905  -0.27372
 Alpha virt. eigenvalues --    0.01566   0.06912   0.07217   0.07869   0.09350
 Alpha virt. eigenvalues --    0.11878   0.12071   0.14651   0.15350   0.16334
 Alpha virt. eigenvalues --    0.18460   0.19230   0.21606   0.22987   0.24554

 Mulliken charges:
               1
     1  C   -0.177892
     2  C   -0.058833
     3  C   -0.003843
     4  C   -0.179934
     5  H    0.081129
     6  H    0.075744
     7  H    0.059150
     8  H    0.055300
     9  H    0.065781
    10  H    0.083397
 Sum of Mulliken charges =   0.00000

 Dipole moment (field-independent basis, Debye):
    X=             -0.0504    Y=             -0.0209    Z=              0.0082  Tot=              0.0552
 Quadrupole moment (field-independent basis, Debye-Ang):
   XX=            -24.6343   YY=            -22.6076   ZZ=            -29.3686
   XY=             -0.1854   XZ=              0.5153   YZ=             -0.0205

 1\1\GINC-NODE31\SP\RB2PLYPD3-FC\def2QZVP\C4H6\BOITTIER\26-Aug-2020\0\\
 #p B2PLYPD3/Def2QZVP\\butadiene\\0,1\C,0,-3.815461,0.275145,-0.052402\
 C,0,-2.718184,-0.562356,0.099873\C,0,-1.393939,0.032022,0.077363\C,0,-
 0.276714,-0.619848,-0.013429\H,0,-4.7523,-0.236851,0.041744\H,0,-3.743
 032,1.371684,-0.043588\H,0,-2.867711,-1.663259,0.072493\H,0,-1.328032,
 1.093385,0.123041\H,0,-0.343727,-1.703148,0.055436\H,0,0.68452,-0.0264
 24,-0.232765\\Version=ES64L-G09RevD.01\State=1-A\HF=-155.6828956\MP2=-
 155.9100827\RMSD=3.971e-09\PG=C01 [X(C4H6)]\\@

 Normal termination of Gaussian 09 at Wed Aug 26 14:36:01 2020.
