 Gaussian 09, Revision D.01,
 Gaussian 09:  ES64L-G09RevD.01 24-Apr-2013

 --------------------
 #p B2PLYPD3/Def2QZVP
 --------------------

 ---------
 butadiene
 ---------
 Symbolic Z-matrix:
 Charge =  0 Multiplicity = 1

                         Standard orientation:
 ---------------------------------------------------------------------
 Center     Atomic      Atomic             Coordinates (Angstroms)
 Number     Number       Type             X           Y           Z
 ---------------------------------------------------------------------
      1          6           0        1.840073   -0.124674    0.014095
      2          6           0        0.616268    0.416969   -0.016252
      3          6           0       -0.608344   -0.379332   -0.031868
      4          6           0       -1.844095    0.094896    0.012834
      5          1           0        2.713574    0.503859   -0.002439
      6          1           0        1.967698   -1.220345    0.100133
      7          1           0        0.495517    1.490294   -0.061465
      8          1           0       -0.465414   -1.462388   -0.031147
      9          1           0       -1.994331    1.169776    0.120918
     10          1           0       -2.740460   -0.528348    0.001146
 ---------------------------------------------------------------------

 SCF Done:  E(RB2PLYPD3) =  -155.699924562     A.U. after   11 cycles
 E2(B2PLYPD3) =    -0.2257634682D+00 E(B2PLYPD3) =    -0.15592568803056D+03

 The electronic state is 1-A.
 Alpha  occ. eigenvalues --  -10.62665 -10.62429 -10.61861 -10.61515  -0.92922
 Alpha  occ. eigenvalues --   -0.84990  -0.69887  -0.63881  -0.54624  -0.53700
 Alpha  occ. eigenvalues --   -0.46912  -0.45317  -0.40911  -0.38076  -0.27842
 Alpha virt. eigenvalues --    0.01803   0.07003   0.07369   0.08034   0.09615
 Alpha virt. eigenvalues --    0.11663   0.12397   0.14592   0.15799   0.16168
 Alpha virt. eigenvalues --    0.18811   0.20441   0.21434   0.22717   0.23753

 Mulliken charges:
               1
     1  C   -0.174217
     2  C   -0.037927
     3  C   -0.022577
     4  C   -0.174108
     5  H    0.088394
     6  H    0.066929
     7  H    0.056052
     8  H    0.049735
     9  H    0.059578
    10  H    0.088141
 Sum of Mulliken charges =   0.00000

 Dipole moment (field-independent basis, Debye):
    X=              0.0251    Y=              0.0162    Z=              0.0877  Tot=              0.0927
 Quadrupole moment (field-independent basis, Debye-Ang):
   XX=            -23.4466   YY=            -23.1805   ZZ=            -29.2777
   XY=              0.0089   XZ=             -0.0822   YZ=             -0.0350

 1\1\GINC-NODE39\SP\RB2PLYPD3-FC\def2QZVP\C4H6\BOITTIER\26-Aug-2020\0\\
 #p B2PLYPD3/Def2QZVP\\butadiene\\0,1\C,0,-3.839976,0.235256,0.033278\C
 ,0,-2.731836,-0.515632,0.019485\C,0,-1.385342,0.04997,-0.013115\C,0,-0
 .253323,-0.634832,0.046456\H,0,-4.811219,-0.228436,0.030384\H,0,-3.770
 878,1.337988,0.091517\H,0,-2.803647,-1.594136,0.00148\H,0,-1.333722,1.
 140868,-0.039886\H,0,-0.296077,-1.716253,0.181811\H,0,0.739424,-0.1811
 11,0.021325\\Version=ES64L-G09RevD.01\State=1-A\HF=-155.6999246\MP2=-1
 55.925688\RMSD=5.572e-09\PG=C01 [X(C4H6)]\\@

 Normal termination of Gaussian 09 at Wed Aug 26 19:48:10 2020.
