 Gaussian 09, Revision D.01,
 Gaussian 09:  ES64L-G09RevD.01 24-Apr-2013

 --------------------
 #p B2PLYPD3/Def2QZVP
 --------------------

 ---------
 butadiene
 ---------
 Symbolic Z-matrix:
 Charge =  0 Multiplicity = 1

                         Standard orientation:
 ---------------------------------------------------------------------
 Center     Atomic      Atomic             Coordinates (Angstroms)
 Number     Number       Type             X           Y           Z
 ---------------------------------------------------------------------
      1          6           0       -1.797967   -0.140702   -0.026411
      2          6           0       -0.588300    0.455281   -0.009565
      3          6           0        0.558103   -0.365198    0.012980
      4          6           0        1.845720    0.064896   -0.046683
      5          1           0       -2.633737    0.545190    0.040851
      6          1           0       -1.892805   -1.232885   -0.072078
      7          1           0       -0.484588    1.452542    0.207958
      8          1           0        0.228623   -1.383905    0.181041
      9          1           0        2.035470    1.143290   -0.043022
     10          1           0        2.641695   -0.609898    0.103326
 ---------------------------------------------------------------------

 SCF Done:  E(RB2PLYPD3) =  -155.684966886     A.U. after   11 cycles
 E2(B2PLYPD3) =    -0.2270098221D+00 E(B2PLYPD3) =    -0.15591197670784D+03

 The electronic state is 1-A.
 Alpha  occ. eigenvalues --  -10.62186 -10.62018 -10.61481 -10.61458  -0.93904
 Alpha  occ. eigenvalues --   -0.84297  -0.70664  -0.65067  -0.54375  -0.53704
 Alpha  occ. eigenvalues --   -0.47256  -0.45561  -0.42046  -0.37690  -0.27084
 Alpha virt. eigenvalues --    0.01122   0.07169   0.07320   0.08125   0.09325
 Alpha virt. eigenvalues --    0.11904   0.12307   0.14855   0.15368   0.15982
 Alpha virt. eigenvalues --    0.18327   0.19932   0.21810   0.23293   0.24091

 Mulliken charges:
               1
     1  C   -0.185324
     2  C   -0.025213
     3  C   -0.026185
     4  C   -0.188791
     5  H    0.081748
     6  H    0.075928
     7  H    0.066148
     8  H    0.047846
     9  H    0.064794
    10  H    0.089050
 Sum of Mulliken charges =   0.00000

 Dipole moment (field-independent basis, Debye):
    X=             -0.1790    Y=              0.0574    Z=              0.3924  Tot=              0.4351
 Quadrupole moment (field-independent basis, Debye-Ang):
   XX=            -24.2235   YY=            -23.0054   ZZ=            -29.1726
   XY=              0.3042   XZ=              0.1790   YZ=              0.0593

 1\1\GINC-NODE40\SP\RB2PLYPD3-FC\def2QZVP\C4H6\BOITTIER\26-Aug-2020\0\\
 #p B2PLYPD3/Def2QZVP\\butadiene\\0,1\C,0,-3.790157,0.272187,0.036841\C
 ,0,-2.718469,-0.546501,0.034221\C,0,-1.435226,0.036361,-0.00442\C,0,-0
 .254786,-0.633042,0.066006\H,0,-4.742881,-0.240574,-0.016794\H,0,-3.67
 2079,1.362833,0.059061\H,0,-2.810003,-1.549391,-0.161831\H,0,-1.562186
 ,1.095738,-0.194601\H,0,-0.276955,-1.727608,0.085606\H,0,0.656116,-0.1
 28082,-0.097392\\Version=ES64L-G09RevD.01\State=1-A\HF=-155.6849669\MP
 2=-155.9119767\RMSD=7.901e-09\PG=C01 [X(C4H6)]\\@

 Normal termination of Gaussian 09 at Wed Aug 26 13:22:25 2020.
