 Gaussian 09, Revision D.01,
 Gaussian 09:  ES64L-G09RevD.01 24-Apr-2013

 --------------------
 #p B2PLYPD3/Def2QZVP
 --------------------

 ---------
 butadiene
 ---------
 Symbolic Z-matrix:
 Charge =  0 Multiplicity = 1

                         Standard orientation:
 ---------------------------------------------------------------------
 Center     Atomic      Atomic             Coordinates (Angstroms)
 Number     Number       Type             X           Y           Z
 ---------------------------------------------------------------------
      1          6           0       -1.841301   -0.118072    0.022990
      2          6           0       -0.610030    0.391315   -0.014519
      3          6           0        0.604111   -0.385328   -0.054540
      4          6           0        1.844756    0.097031    0.050646
      5          1           0       -2.691786    0.561555   -0.044345
      6          1           0       -2.094773   -1.124996    0.135460
      7          1           0       -0.471153    1.438796   -0.084468
      8          1           0        0.475848   -1.449869   -0.049816
      9          1           0        2.027594    1.170194    0.077190
     10          1           0        2.769047   -0.505354   -0.061481
 ---------------------------------------------------------------------

 SCF Done:  E(RB2PLYPD3) =  -155.696518981     A.U. after   11 cycles
 E2(B2PLYPD3) =    -0.2255672371D+00 E(B2PLYPD3) =    -0.15592208621857D+03

 The electronic state is 1-A.
 Alpha  occ. eigenvalues --  -10.62291 -10.62212 -10.61887 -10.61301  -0.93214
 Alpha  occ. eigenvalues --   -0.84962  -0.70622  -0.64606  -0.54681  -0.54131
 Alpha  occ. eigenvalues --   -0.47179  -0.45496  -0.40858  -0.38146  -0.27721
 Alpha virt. eigenvalues --    0.01430   0.06934   0.07600   0.08074   0.09755
 Alpha virt. eigenvalues --    0.11646   0.12470   0.14890   0.15654   0.16334
 Alpha virt. eigenvalues --    0.18972   0.20052   0.22112   0.22404   0.23630

 Mulliken charges:
               1
     1  C   -0.176762
     2  C   -0.031291
     3  C   -0.035979
     4  C   -0.165081
     5  H    0.077262
     6  H    0.074575
     7  H    0.061862
     8  H    0.058016
     9  H    0.056407
    10  H    0.080990
 Sum of Mulliken charges =   0.00000

 Dipole moment (field-independent basis, Debye):
    X=             -0.0386    Y=             -0.0103    Z=             -0.0629  Tot=              0.0745
 Quadrupole moment (field-independent basis, Debye-Ang):
   XX=            -23.2263   YY=            -23.2884   ZZ=            -29.1544
   XY=              0.3643   XZ=             -0.1762   YZ=             -0.1389

 1\1\GINC-NODE03\SP\RB2PLYPD3-FC\def2QZVP\C4H6\BOITTIER\26-Aug-2020\0\\
 #p B2PLYPD3/Def2QZVP\\butadiene\\0,1\C,0,-3.841616,0.231912,-0.008116\
 C,0,-2.7228,-0.490094,0.054083\C,0,-1.387952,0.054816,0.067034\C,0,-0.
 255579,-0.648059,-0.0144\H,0,-4.800837,-0.279207,0.083555\H,0,-3.90900
 4,1.262747,-0.161846\H,0,-2.775622,-1.541738,0.166562\H,0,-1.321349,1.
 123921,0.019078\H,0,-0.270193,-1.736775,0.002848\H,0,0.762939,-0.219,0
 .076605\\Version=ES64L-G09RevD.01\State=1-A\HF=-155.696519\MP2=-155.92
 20862\RMSD=6.657e-09\PG=C01 [X(C4H6)]\\@

 Normal termination of Gaussian 09 at Wed Aug 26 09:03:43 2020.
