 Gaussian 09, Revision D.01,
 Gaussian 09:  ES64L-G09RevD.01 24-Apr-2013

 --------------------
 #p B2PLYPD3/Def2QZVP
 --------------------

 ---------
 butadiene
 ---------
 Symbolic Z-matrix:
 Charge =  0 Multiplicity = 1

                         Standard orientation:
 ---------------------------------------------------------------------
 Center     Atomic      Atomic             Coordinates (Angstroms)
 Number     Number       Type             X           Y           Z
 ---------------------------------------------------------------------
      1          6           0        1.816921    0.087305    0.026742
      2          6           0        0.600048   -0.381313   -0.037213
      3          6           0       -0.590694    0.427269   -0.048143
      4          6           0       -1.817101   -0.131280    0.010920
      5          1           0        2.681826   -0.515924    0.098267
      6          1           0        1.968274    1.181790    0.053556
      7          1           0        0.480566   -1.479387   -0.016172
      8          1           0       -0.518622    1.504998   -0.076142
      9          1           0       -1.980305   -1.184317   -0.001165
     10          1           0       -2.686788    0.480951    0.227818
 ---------------------------------------------------------------------

 SCF Done:  E(RB2PLYPD3) =  -155.696748037     A.U. after   11 cycles
 E2(B2PLYPD3) =    -0.2255173818D+00 E(B2PLYPD3) =    -0.15592226541913D+03

 The electronic state is 1-A.
 Alpha  occ. eigenvalues --  -10.62652 -10.62073 -10.61489 -10.60846  -0.93427
 Alpha  occ. eigenvalues --   -0.85132  -0.70121  -0.64040  -0.54948  -0.54140
 Alpha  occ. eigenvalues --   -0.46671  -0.45170  -0.41354  -0.38361  -0.27614
 Alpha virt. eigenvalues --    0.01849   0.07072   0.07355   0.08036   0.09628
 Alpha virt. eigenvalues --    0.11704   0.12557   0.14669   0.15816   0.16388
 Alpha virt. eigenvalues --    0.18730   0.20153   0.21769   0.23101   0.23848

 Mulliken charges:
               1
     1  C   -0.171369
     2  C   -0.019207
     3  C   -0.037728
     4  C   -0.173864
     5  H    0.088408
     6  H    0.054730
     7  H    0.048790
     8  H    0.062515
     9  H    0.068661
    10  H    0.079063
 Sum of Mulliken charges =   0.00000

 Dipole moment (field-independent basis, Debye):
    X=              0.0026    Y=             -0.0217    Z=              0.1998  Tot=              0.2010
 Quadrupole moment (field-independent basis, Debye-Ang):
   XX=            -23.6768   YY=            -23.0659   ZZ=            -29.1065
   XY=              0.0358   XZ=             -0.2558   YZ=              0.0577

 1\1\GINC-NODE12\SP\RB2PLYPD3-FC\def2QZVP\C4H6\BOITTIER\26-Aug-2020\0\\
 #p B2PLYPD3/Def2QZVP\\butadiene\\0,1\C,0,-3.822531,0.19887,-0.009413\C
 ,0,-2.710224,-0.480351,0.067431\C,0,-1.392784,0.099305,0.055494\C,0,-0
 .28802,-0.673439,0.011886\H,0,-4.782676,-0.239557,-0.063857\H,0,-3.773
 476,1.301512,-0.066851\H,0,-2.791524,-1.582069,0.07714\H,0,-1.268503,1
 .17263,0.053302\H,0,-0.317996,-1.737884,0.053438\H,0,0.676945,-0.23496
 5,-0.222232\\Version=ES64L-G09RevD.01\State=1-A\HF=-155.696748\MP2=-15
 5.9222654\RMSD=5.944e-09\PG=C01 [X(C4H6)]\\@

 Normal termination of Gaussian 09 at Wed Aug 26 08:24:45 2020.
