 Gaussian 09, Revision D.01,
 Gaussian 09:  ES64L-G09RevD.01 24-Apr-2013

 --------------------
 #p B2PLYPD3/Def2QZVP
 --------------------

 ---------
 butadiene
 ---------
 Symbolic Z-matrix:
 Charge =  0 Multiplicity = 1

                         Standard orientation:
 ---------------------------------------------------------------------
 Center     Atomic      Atomic             Coordinates (Angstroms)
 Number     Number       Type             X           Y           Z
 ---------------------------------------------------------------------
      1          6           0        1.840231    0.117407   -0.019640
      2          6           0        0.618851   -0.422566    0.026091
      3          6           0       -0.590280    0.378012    0.040330
      4          6           0       -1.848557   -0.102669   -0.035110
      5          1           0        2.742293   -0.487212   -0.003106
      6          1           0        2.010056    1.232398   -0.043120
      7          1           0        0.477861   -1.504751   -0.040468
      8          1           0       -0.522229    1.459142    0.006988
      9          1           0       -2.157077   -1.123107    0.033851
     10          1           0       -2.672376    0.602424   -0.024168
 ---------------------------------------------------------------------

 SCF Done:  E(RB2PLYPD3) =  -155.696396502     A.U. after   11 cycles
 E2(B2PLYPD3) =    -0.2263608621D+00 E(B2PLYPD3) =    -0.15592275736416D+03

 The electronic state is 1-A.
 Alpha  occ. eigenvalues --  -10.62851 -10.62686 -10.62218 -10.61466  -0.92804
 Alpha  occ. eigenvalues --   -0.84684  -0.70193  -0.63944  -0.54561  -0.53723
 Alpha  occ. eigenvalues --   -0.46415  -0.45249  -0.41117  -0.38021  -0.27559
 Alpha virt. eigenvalues --    0.01462   0.06959   0.07407   0.07968   0.09473
 Alpha virt. eigenvalues --    0.11535   0.12385   0.14759   0.15810   0.16149
 Alpha virt. eigenvalues --    0.18863   0.20364   0.21622   0.22493   0.23956

 Mulliken charges:
               1
     1  C   -0.165492
     2  C   -0.040666
     3  C   -0.028741
     4  C   -0.175109
     5  H    0.084742
     6  H    0.063558
     7  H    0.062294
     8  H    0.057371
     9  H    0.068079
    10  H    0.073964
 Sum of Mulliken charges =   0.00000

 Dipole moment (field-independent basis, Debye):
    X=              0.0380    Y=             -0.0237    Z=             -0.0082  Tot=              0.0455
 Quadrupole moment (field-independent basis, Debye-Ang):
   XX=            -23.4056   YY=            -23.0866   ZZ=            -29.3684
   XY=              0.2707   XZ=             -0.1281   YZ=             -0.0550

 1\1\GINC-NODE13\SP\RB2PLYPD3-FC\def2QZVP\C4H6\BOITTIER\26-Aug-2020\0\\
 #p B2PLYPD3/Def2QZVP\\butadiene\\0,1\C,0,-3.837407,0.237063,0.041559\C
 ,0,-2.734256,-0.516251,0.009862\C,0,-1.400146,0.051372,-0.023013\C,0,-
 0.249515,-0.647418,0.065007\H,0,-4.834142,-0.194292,0.039116\H,0,-3.80
 2314,1.364605,0.037754\H,0,-2.791428,-1.604146,0.10286\H,0,-1.271062,1
 .127417,-0.016062\H,0,-0.131247,-1.708231,0.02114\H,0,0.688375,-0.1037
 65,0.03748\\Version=ES64L-G09RevD.01\State=1-A\HF=-155.6963965\MP2=-15
 5.9227574\RMSD=5.896e-09\PG=C01 [X(C4H6)]\\@

 Normal termination of Gaussian 09 at Wed Aug 26 09:03:41 2020.
