 Gaussian 09, Revision D.01,
 Gaussian 09:  ES64L-G09RevD.01 24-Apr-2013

 --------------------
 #p B2PLYPD3/Def2QZVP
 --------------------

 ---------
 butadiene
 ---------
 Symbolic Z-matrix:
 Charge =  0 Multiplicity = 1

                         Standard orientation:
 ---------------------------------------------------------------------
 Center     Atomic      Atomic             Coordinates (Angstroms)
 Number     Number       Type             X           Y           Z
 ---------------------------------------------------------------------
      1          6           0       -1.823964   -0.137568   -0.032337
      2          6           0       -0.613068    0.433006    0.029373
      3          6           0        0.593087   -0.389569    0.011027
      4          6           0        1.836143    0.097428   -0.025201
      5          1           0       -2.643073    0.543344   -0.041824
      6          1           0       -1.998241   -1.188695    0.025082
      7          1           0       -0.467359    1.508940    0.061012
      8          1           0        0.431647   -1.487360    0.085189
      9          1           0        2.008419    1.176607    0.005396
     10          1           0        2.715422   -0.572618   -0.032026
 ---------------------------------------------------------------------

 SCF Done:  E(RB2PLYPD3) =  -155.697251845     A.U. after   11 cycles
 E2(B2PLYPD3) =    -0.2261237426D+00 E(B2PLYPD3) =    -0.15592337558720D+03

 The electronic state is 1-A.
 Alpha  occ. eigenvalues --  -10.62699 -10.62621 -10.61709 -10.61281  -0.92877
 Alpha  occ. eigenvalues --   -0.84787  -0.69862  -0.63873  -0.54229  -0.53879
 Alpha  occ. eigenvalues --   -0.46825  -0.45521  -0.41033  -0.37889  -0.27608
 Alpha virt. eigenvalues --    0.01847   0.07019   0.07234   0.08053   0.09385
 Alpha virt. eigenvalues --    0.11758   0.12263   0.14838   0.15776   0.15996
 Alpha virt. eigenvalues --    0.18639   0.20421   0.21442   0.23067   0.23941

 Mulliken charges:
               1
     1  C   -0.175503
     2  C   -0.038864
     3  C   -0.020939
     4  C   -0.181617
     5  H    0.081473
     6  H    0.077842
     7  H    0.058533
     8  H    0.049956
     9  H    0.063815
    10  H    0.085304
 Sum of Mulliken charges =   0.00000

 Dipole moment (field-independent basis, Debye):
    X=             -0.0665    Y=              0.0151    Z=              0.1273  Tot=              0.1444
 Quadrupole moment (field-independent basis, Debye-Ang):
   XX=            -23.9345   YY=            -22.8449   ZZ=            -29.3395
   XY=              0.2544   XZ=              0.0058   YZ=             -0.0617

 1\1\GINC-NODE17\SP\RB2PLYPD3-FC\def2QZVP\C4H6\BOITTIER\26-Aug-2020\0\\
 #p B2PLYPD3/Def2QZVP\\butadiene\\0,1\C,0,-3.819388,0.252653,0.04677\C,
 0,-2.732569,-0.530134,0.005515\C,0,-1.396963,0.059702,0.000414\C,0,-0.
 262969,-0.643718,0.054483\H,0,-4.748549,-0.26742,0.076018\H,0,-3.79997
 4,1.315625,-0.044061\H,0,-2.784914,-1.615086,0.008054\H,0,-1.356509,1.
 165681,-0.108594\H,0,-0.289775,-1.736654,0.05822\H,0,0.723446,-0.14474
 9,0.042003\\Version=ES64L-G09RevD.01\State=1-A\HF=-155.6972518\MP2=-15
 5.9233756\RMSD=7.663e-09\PG=C01 [X(C4H6)]\\@

 Normal termination of Gaussian 09 at Wed Aug 26 08:49:10 2020.
