 Gaussian 09, Revision D.01,
 Gaussian 09:  ES64L-G09RevD.01 24-Apr-2013

 --------------------
 #p B2PLYPD3/Def2QZVP
 --------------------

 ---------
 butadiene
 ---------
 Symbolic Z-matrix:
 Charge =  0 Multiplicity = 1

                         Standard orientation:
 ---------------------------------------------------------------------
 Center     Atomic      Atomic             Coordinates (Angstroms)
 Number     Number       Type             X           Y           Z
 ---------------------------------------------------------------------
      1          6           0        1.850098    0.117661    0.000503
      2          6           0        0.613206   -0.412920    0.003564
      3          6           0       -0.611441    0.401567   -0.022277
      4          6           0       -1.852464   -0.108181    0.014466
      5          1           0        2.686127   -0.534959   -0.028683
      6          1           0        2.010620    1.195156    0.086504
      7          1           0        0.510406   -1.470760   -0.044156
      8          1           0       -0.452843    1.465362   -0.014540
      9          1           0       -2.022152   -1.166226    0.060999
     10          1           0       -2.728559    0.522670   -0.037670
 ---------------------------------------------------------------------

 SCF Done:  E(RB2PLYPD3) =  -155.699839567     A.U. after   11 cycles
 E2(B2PLYPD3) =    -0.2257933312D+00 E(B2PLYPD3) =    -0.15592563289807D+03

 The electronic state is 1-A.
 Alpha  occ. eigenvalues --  -10.62680 -10.62521 -10.61535 -10.61518  -0.92614
 Alpha  occ. eigenvalues --   -0.84810  -0.70166  -0.64413  -0.54571  -0.53918
 Alpha  occ. eigenvalues --   -0.46619  -0.46056  -0.41363  -0.37730  -0.27603
 Alpha virt. eigenvalues --    0.01647   0.07016   0.07490   0.08143   0.09374
 Alpha virt. eigenvalues --    0.11692   0.12394   0.14727   0.15796   0.16204
 Alpha virt. eigenvalues --    0.18842   0.20337   0.21655   0.22952   0.23890

 Mulliken charges:
               1
     1  C   -0.179353
     2  C   -0.036191
     3  C   -0.035422
     4  C   -0.175255
     5  H    0.086716
     6  H    0.068368
     7  H    0.059649
     8  H    0.058576
     9  H    0.067481
    10  H    0.085431
 Sum of Mulliken charges =   0.00000

 Dipole moment (field-independent basis, Debye):
    X=              0.0052    Y=             -0.0276    Z=              0.0120  Tot=              0.0305
 Quadrupole moment (field-independent basis, Debye-Ang):
   XX=            -23.5303   YY=            -22.9932   ZZ=            -29.3119
   XY=              0.1463   XZ=              0.0471   YZ=              0.0796

 1\1\GINC-NODE25\SP\RB2PLYPD3-FC\def2QZVP\C4H6\BOITTIER\26-Aug-2020\0\\
 #p B2PLYPD3/Def2QZVP\\butadiene\\0,1\C,0,-3.851332,0.231552,0.015619\C
 ,0,-2.729223,-0.511383,0.034219\C,0,-1.378618,0.07144,0.034152\C,0,-0.
 248855,-0.652934,0.018365\H,0,-4.790428,-0.259654,0.065875\H,0,-3.8170
 12,1.316682,-0.108774\H,0,-2.816975,-1.568214,0.119526\H,0,-1.34454,1.
 145509,-0.011538\H,0,-0.27121,-1.725241,0.009642\H,0,0.726095,-0.18743
 4,0.050244\\Version=ES64L-G09RevD.01\State=1-A\HF=-155.6998396\MP2=-15
 5.9256329\RMSD=3.368e-09\PG=C01 [X(C4H6)]\\@

 Normal termination of Gaussian 09 at Wed Aug 26 09:23:57 2020.
