 Gaussian 09, Revision D.01,
 Gaussian 09:  ES64L-G09RevD.01 24-Apr-2013

 --------------------
 #p B2PLYPD3/Def2QZVP
 --------------------

 ---------
 butadiene
 ---------
 Symbolic Z-matrix:
 Charge =  0 Multiplicity = 1

                         Standard orientation:
 ---------------------------------------------------------------------
 Center     Atomic      Atomic             Coordinates (Angstroms)
 Number     Number       Type             X           Y           Z
 ---------------------------------------------------------------------
      1          6           0        1.871947    0.091236   -0.028539
      2          6           0        0.620160   -0.377262    0.033969
      3          6           0       -0.622514    0.418710   -0.003424
      4          6           0       -1.845909   -0.126273    0.000806
      5          1           0        2.722712   -0.568405   -0.007093
      6          1           0        2.037011    1.167246   -0.060735
      7          1           0        0.369656   -1.430381    0.086449
      8          1           0       -0.493706    1.482002    0.126067
      9          1           0       -2.000749   -1.208866   -0.109563
     10          1           0       -2.777028    0.519938   -0.051995
 ---------------------------------------------------------------------

 SCF Done:  E(RB2PLYPD3) =  -155.695555009     A.U. after   11 cycles
 E2(B2PLYPD3) =    -0.2263878764D+00 E(B2PLYPD3) =    -0.15592194288566D+03

 The electronic state is 1-A.
 Alpha  occ. eigenvalues --  -10.62800 -10.62741 -10.62505 -10.61764  -0.92610
 Alpha  occ. eigenvalues --   -0.84733  -0.69925  -0.63978  -0.54366  -0.53272
 Alpha  occ. eigenvalues --   -0.47227  -0.45480  -0.40462  -0.37721  -0.27929
 Alpha virt. eigenvalues --    0.01597   0.06951   0.07377   0.08042   0.09395
 Alpha virt. eigenvalues --    0.11651   0.12307   0.14573   0.15484   0.16066
 Alpha virt. eigenvalues --    0.18768   0.19971   0.21787   0.22894   0.23515

 Mulliken charges:
               1
     1  C   -0.177658
     2  C   -0.033262
     3  C   -0.032334
     4  C   -0.172543
     5  H    0.092664
     6  H    0.067360
     7  H    0.051133
     8  H    0.059389
     9  H    0.065092
    10  H    0.080157
 Sum of Mulliken charges =   0.00000

 Dipole moment (field-independent basis, Debye):
    X=             -0.0300    Y=              0.0044    Z=             -0.0025  Tot=              0.0305
 Quadrupole moment (field-independent basis, Debye-Ang):
   XX=            -23.4253   YY=            -23.2777   ZZ=            -29.3680
   XY=              0.2549   XZ=              0.1866   YZ=              0.1093

 1\1\GINC-NODE11\SP\RB2PLYPD3-FC\def2QZVP\C4H6\BOITTIER\26-Aug-2020\0\\
 #p B2PLYPD3/Def2QZVP\\butadiene\\0,1\C,0,-3.875032,0.209927,0.042904\C
 ,0,-2.727504,-0.477094,0.003553\C,0,-1.362343,0.084553,0.013285\C,0,-0
 .256211,-0.670242,0.035134\H,0,-4.83016,-0.287179,0.044992\H,0,-3.8448
 06,1.298519,0.031355\H,0,-2.669651,-1.559283,-0.005788\H,0,-1.299332,1
 .147677,-0.159185\H,0,-0.297135,-1.757763,0.189361\H,0,0.775689,-0.199
 458,0.065192\\Version=ES64L-G09RevD.01\State=1-A\HF=-155.695555\MP2=-1
 55.9219429\RMSD=3.080e-09\PG=C01 [X(C4H6)]\\@

 Normal termination of Gaussian 09 at Wed Aug 26 09:07:57 2020.
