 Gaussian 09, Revision D.01,
 Gaussian 09:  ES64L-G09RevD.01 24-Apr-2013

 --------------------
 #p B2PLYPD3/Def2QZVP
 --------------------

 ---------
 butadiene
 ---------
 Symbolic Z-matrix:
 Charge =  0 Multiplicity = 1

                         Standard orientation:
 ---------------------------------------------------------------------
 Center     Atomic      Atomic             Coordinates (Angstroms)
 Number     Number       Type             X           Y           Z
 ---------------------------------------------------------------------
      1          6           0       -1.871589    0.124558    0.051987
      2          6           0       -0.629421   -0.419718   -0.060848
      3          6           0        0.638298    0.413643   -0.078896
      4          6           0        1.858289   -0.127889   -0.004475
      5          1           0       -2.817126   -0.500829   -0.015838
      6          1           0       -1.939555    1.184038    0.139344
      7          1           0       -0.437397   -1.520766    0.070621
      8          1           0        0.535329    1.490179   -0.043521
      9          1           0        2.053012   -1.117689    0.128377
     10          1           0        2.632273    0.521503    0.274407
 ---------------------------------------------------------------------

 SCF Done:  E(RB2PLYPD3) =  -155.682504445     A.U. after   11 cycles
 E2(B2PLYPD3) =    -0.2268551939D+00 E(B2PLYPD3) =    -0.15590935963891D+03

 The electronic state is 1-A.
 Alpha  occ. eigenvalues --  -10.63912 -10.63206 -10.62493 -10.60404  -0.91997
 Alpha  occ. eigenvalues --   -0.84899  -0.69862  -0.64204  -0.54086  -0.53736
 Alpha  occ. eigenvalues --   -0.46902  -0.46101  -0.40796  -0.37097  -0.27770
 Alpha virt. eigenvalues --    0.01414   0.06921   0.07368   0.08041   0.08768
 Alpha virt. eigenvalues --    0.11710   0.12513   0.14679   0.15395   0.16495
 Alpha virt. eigenvalues --    0.18916   0.19162   0.21758   0.23081   0.24650

 Mulliken charges:
               1
     1  C   -0.174501
     2  C   -0.044857
     3  C   -0.037326
     4  C   -0.158864
     5  H    0.089258
     6  H    0.070507
     7  H    0.059361
     8  H    0.059212
     9  H    0.064621
    10  H    0.072589
 Sum of Mulliken charges =   0.00000

 Dipole moment (field-independent basis, Debye):
    X=             -0.0187    Y=              0.0311    Z=              0.4188  Tot=              0.4203
 Quadrupole moment (field-independent basis, Debye-Ang):
   XX=            -23.8432   YY=            -23.0749   ZZ=            -29.3066
   XY=             -0.2628   XZ=              0.8350   YZ=              0.0769

 1\1\GINC-NODE21\SP\RB2PLYPD3-FC\def2QZVP\C4H6\BOITTIER\26-Aug-2020\0\\
 #p B2PLYPD3/Def2QZVP\\butadiene\\0,1\C,0,-3.873734,0.232494,0.069394\C
 ,0,-2.743676,-0.520611,-0.018653\C,0,-1.351239,0.08109,-0.050319\C,0,-
 0.243062,-0.660084,0.048565\H,0,-4.91273,-0.222398,0.011868\H,0,-3.758
 293,1.289923,0.126537\H,0,-2.744676,-1.634013,0.145051\H,0,-1.267196,1
 .159839,-0.045882\H,0,-0.22223,-1.664372,0.210557\H,0,0.630515,-0.1459
 13,0.315074\\Version=ES64L-G09RevD.01\State=1-A\HF=-155.6825044\MP2=-1
 55.9093596\RMSD=5.560e-09\PG=C01 [X(C4H6)]\\@

 Normal termination of Gaussian 09 at Wed Aug 26 15:12:47 2020.
