 Gaussian 09, Revision D.01,
 Gaussian 09:  ES64L-G09RevD.01 24-Apr-2013

 --------------------
 #p B2PLYPD3/Def2QZVP
 --------------------

 ---------
 butadiene
 ---------
 Symbolic Z-matrix:
 Charge =  0 Multiplicity = 1

                         Standard orientation:
 ---------------------------------------------------------------------
 Center     Atomic      Atomic             Coordinates (Angstroms)
 Number     Number       Type             X           Y           Z
 ---------------------------------------------------------------------
      1          6           0       -1.833051   -0.118263   -0.019661
      2          6           0       -0.602466    0.418516    0.017102
      3          6           0        0.597983   -0.392956    0.022458
      4          6           0        1.846863    0.097626   -0.028231
      5          1           0       -2.759212    0.488758    0.008311
      6          1           0       -1.973936   -1.187361   -0.073773
      7          1           0       -0.490455    1.488701    0.074416
      8          1           0        0.428658   -1.454561    0.070756
      9          1           0        2.017249    1.177304   -0.059925
     10          1           0        2.721719   -0.542384    0.030201
 ---------------------------------------------------------------------

 SCF Done:  E(RB2PLYPD3) =  -155.700038363     A.U. after   11 cycles
 E2(B2PLYPD3) =    -0.2261606988D+00 E(B2PLYPD3) =    -0.15592619906142D+03

 The electronic state is 1-A.
 Alpha  occ. eigenvalues --  -10.62599 -10.62524 -10.61922 -10.61773  -0.92973
 Alpha  occ. eigenvalues --   -0.84573  -0.70050  -0.64343  -0.54428  -0.53737
 Alpha  occ. eigenvalues --   -0.46695  -0.45444  -0.41321  -0.38037  -0.27521
 Alpha virt. eigenvalues --    0.01545   0.06998   0.07420   0.08035   0.09503
 Alpha virt. eigenvalues --    0.11654   0.12456   0.14625   0.15912   0.16098
 Alpha virt. eigenvalues --    0.18808   0.20507   0.21526   0.22807   0.23641

 Mulliken charges:
               1
     1  C   -0.174282
     2  C   -0.030254
     3  C   -0.032662
     4  C   -0.176452
     5  H    0.082351
     6  H    0.064505
     7  H    0.058770
     8  H    0.056726
     9  H    0.064478
    10  H    0.086819
 Sum of Mulliken charges =   0.00000

 Dipole moment (field-independent basis, Debye):
    X=             -0.0377    Y=             -0.0064    Z=              0.0724  Tot=              0.0819
 Quadrupole moment (field-independent basis, Debye-Ang):
   XX=            -23.4567   YY=            -23.1426   ZZ=            -29.3372
   XY=              0.1724   XZ=              0.0869   YZ=              0.0121

 1\1\GINC-NODE20\SP\RB2PLYPD3-FC\def2QZVP\C4H6\BOITTIER\26-Aug-2020\0\\
 #p B2PLYPD3/Def2QZVP\\butadiene\\0,1\C,0,-3.83425,0.234301,0.037562\C,
 0,-2.721385,-0.517313,0.016772\C,0,-1.393843,0.062826,-0.008994\C,0,-0
 .254296,-0.64435,0.056413\H,0,-4.855135,-0.195423,0.024835\H,0,-3.7789
 65,1.31229,0.062672\H,0,-2.805275,-1.591225,-0.011544\H,0,-1.368263,1.
 135864,-0.08609\H,0,-0.282168,-1.735791,0.117399\H,0,0.721789,-0.17520
 9,-0.018184\\Version=ES64L-G09RevD.01\State=1-A\HF=-155.7000384\MP2=-1
 55.9261991\RMSD=3.374e-09\PG=C01 [X(C4H6)]\\@

 Normal termination of Gaussian 09 at Wed Aug 26 18:37:20 2020.
