 Gaussian 09, Revision D.01,
 Gaussian 09:  ES64L-G09RevD.01 24-Apr-2013

 --------------------
 #p B2PLYPD3/Def2QZVP
 --------------------

 ---------
 butadiene
 ---------
 Symbolic Z-matrix:
 Charge =  0 Multiplicity = 1

                         Standard orientation:
 ---------------------------------------------------------------------
 Center     Atomic      Atomic             Coordinates (Angstroms)
 Number     Number       Type             X           Y           Z
 ---------------------------------------------------------------------
      1          6           0        1.822595    0.127801    0.070685
      2          6           0        0.614240   -0.440078   -0.084343
      3          6           0       -0.563501    0.334994   -0.074284
      4          6           0       -1.832186   -0.079724    0.064986
      5          1           0        2.720635   -0.440890    0.218789
      6          1           0        1.847084    1.318567   -0.060118
      7          1           0        0.427904   -1.497294   -0.070990
      8          1           0       -0.513189    1.384804   -0.149956
      9          1           0       -2.137742   -1.103380   -0.024968
     10          1           0       -2.591584    0.680231    0.224977
 ---------------------------------------------------------------------

 SCF Done:  E(RB2PLYPD3) =  -155.683161889     A.U. after   11 cycles
 E2(B2PLYPD3) =    -0.2269879908D+00 E(B2PLYPD3) =    -0.15591014987942D+03

 The electronic state is 1-A.
 Alpha  occ. eigenvalues --  -10.63059 -10.62438 -10.61631 -10.61232  -0.93692
 Alpha  occ. eigenvalues --   -0.84667  -0.70383  -0.64242  -0.54940  -0.53414
 Alpha  occ. eigenvalues --   -0.46397  -0.44897  -0.41968  -0.37996  -0.27152
 Alpha virt. eigenvalues --    0.01236   0.06843   0.07344   0.08012   0.09674
 Alpha virt. eigenvalues --    0.11669   0.12217   0.14678   0.15599   0.16267
 Alpha virt. eigenvalues --    0.18444   0.19966   0.20954   0.22463   0.25204

 Mulliken charges:
               1
     1  C   -0.164278
     2  C   -0.048284
     3  C   -0.002903
     4  C   -0.192723
     5  H    0.093490
     6  H    0.060010
     7  H    0.059145
     8  H    0.049337
     9  H    0.067584
    10  H    0.078623
 Sum of Mulliken charges =   0.00000

 Dipole moment (field-independent basis, Debye):
    X=              0.0731    Y=             -0.0653    Z=              0.0131  Tot=              0.0989
 Quadrupole moment (field-independent basis, Debye-Ang):
   XX=            -23.9058   YY=            -23.1493   ZZ=            -29.1935
   XY=             -0.1357   XZ=              0.0940   YZ=             -0.0858

 1\1\GINC-NODE11\SP\RB2PLYPD3-FC\def2QZVP\C4H6\BOITTIER\26-Aug-2020\0\\
 #p B2PLYPD3/Def2QZVP\\butadiene\\0,1\C,0,-3.814073,0.248393,-0.056633\
 C,0,-2.730163,-0.526084,0.122158\C,0,-1.429906,0.017832,0.084747\C,0,-
 0.260026,-0.628453,-0.036271\H,0,-4.802235,-0.150325,-0.184618\H,0,-3.
 61819,1.427371,0.02865\H,0,-2.741764,-1.599269,0.149449\H,0,-1.285647,
 1.061042,0.120264\H,0,-0.147731,-1.686733,0.093193\H,0,0.625484,-0.027
 99,-0.223702\\Version=ES64L-G09RevD.01\State=1-A\HF=-155.6831619\MP2=-
 155.9101499\RMSD=7.500e-09\PG=C01 [X(C4H6)]\\@

 Normal termination of Gaussian 09 at Wed Aug 26 11:42:29 2020.
