 Gaussian 09, Revision D.01,
 Gaussian 09:  ES64L-G09RevD.01 24-Apr-2013

 --------------------
 #p B2PLYPD3/Def2QZVP
 --------------------

 ---------
 butadiene
 ---------
 Symbolic Z-matrix:
 Charge =  0 Multiplicity = 1

                         Standard orientation:
 ---------------------------------------------------------------------
 Center     Atomic      Atomic             Coordinates (Angstroms)
 Number     Number       Type             X           Y           Z
 ---------------------------------------------------------------------
      1          6           0       -1.850438   -0.089984    0.047999
      2          6           0       -0.619450    0.326585   -0.090271
      3          6           0        0.621706   -0.434520   -0.044167
      4          6           0        1.850244    0.130871    0.083078
      5          1           0       -2.526863    0.700560    0.214945
      6          1           0       -2.125169   -1.107937    0.020155
      7          1           0       -0.522324    1.410602   -0.030246
      8          1           0        0.474964   -1.424102   -0.162470
      9          1           0        1.925076    1.268934   -0.177552
     10          1           0        2.761946   -0.445766    0.155333
 ---------------------------------------------------------------------

 SCF Done:  E(RB2PLYPD3) =  -155.678707636     A.U. after   12 cycles
 E2(B2PLYPD3) =    -0.2260566634D+00 E(B2PLYPD3) =    -0.15590476429919D+03

 The electronic state is 1-A.
 Alpha  occ. eigenvalues --  -10.62913 -10.62287 -10.61779 -10.60475  -0.93262
 Alpha  occ. eigenvalues --   -0.85343  -0.70406  -0.64369  -0.54647  -0.54402
 Alpha  occ. eigenvalues --   -0.46942  -0.45396  -0.41306  -0.37507  -0.27746
 Alpha virt. eigenvalues --    0.01403   0.06830   0.07585   0.08118   0.09476
 Alpha virt. eigenvalues --    0.11680   0.12306   0.14814   0.15594   0.16299
 Alpha virt. eigenvalues --    0.18568   0.19762   0.21279   0.22598   0.25238

 Mulliken charges:
               1
     1  C   -0.180556
     2  C   -0.003497
     3  C   -0.057522
     4  C   -0.171014
     5  H    0.083755
     6  H    0.071316
     7  H    0.039518
     8  H    0.067268
     9  H    0.063294
    10  H    0.087438
 Sum of Mulliken charges =   0.00000

 Dipole moment (field-independent basis, Debye):
    X=             -0.0143    Y=             -0.1308    Z=             -0.0802  Tot=              0.1541
 Quadrupole moment (field-independent basis, Debye-Ang):
   XX=            -23.8202   YY=            -23.1768   ZZ=            -29.0559
   XY=             -0.0794   XZ=             -0.5844   YZ=              0.0223

 1\1\GINC-NODE37\SP\RB2PLYPD3-FC\def2QZVP\C4H6\BOITTIER\26-Aug-2020\0\\
 #p B2PLYPD3/Def2QZVP\\butadiene\\0,1\C,0,-3.85855,0.196006,-0.036008\C
 ,0,-2.722001,-0.431008,0.115946\C,0,-1.364913,0.095987,0.066311\C,0,-0
 .256386,-0.681143,-0.045045\H,0,-4.664466,-0.46388,-0.195484\H,0,-3.94
 7544,1.246927,-0.024815\H,0,-2.81943,-1.515787,0.072453\H,0,-1.333337,
 1.097599,0.169156\H,0,-0.386489,-1.810137,0.232732\H,0,0.743737,-0.277
 354,-0.120148\\Version=ES64L-G09RevD.01\State=1-A\HF=-155.6787076\MP2=
 -155.9047643\RMSD=3.778e-09\PG=C01 [X(C4H6)]\\@

 Normal termination of Gaussian 09 at Wed Aug 26 15:53:06 2020.
