 Gaussian 09, Revision D.01,
 Gaussian 09:  ES64L-G09RevD.01 24-Apr-2013

 --------------------
 #p B2PLYPD3/Def2QZVP
 --------------------

 ---------
 butadiene
 ---------
 Symbolic Z-matrix:
 Charge =  0 Multiplicity = 1

                         Standard orientation:
 ---------------------------------------------------------------------
 Center     Atomic      Atomic             Coordinates (Angstroms)
 Number     Number       Type             X           Y           Z
 ---------------------------------------------------------------------
      1          6           0       -1.828075   -0.116483    0.024767
      2          6           0       -0.594898    0.417105   -0.017315
      3          6           0        0.598018   -0.387709   -0.023617
      4          6           0        1.832990    0.094265    0.008343
      5          1           0       -2.697619    0.492621   -0.012540
      6          1           0       -2.021654   -1.170468   -0.003097
      7          1           0       -0.460788    1.473344    0.006376
      8          1           0        0.428329   -1.445663   -0.009203
      9          1           0        2.002343    1.164110    0.010030
     10          1           0        2.701187   -0.557019    0.055364
 ---------------------------------------------------------------------

 SCF Done:  E(RB2PLYPD3) =  -155.700416006     A.U. after   11 cycles
 E2(B2PLYPD3) =    -0.2253963283D+00 E(B2PLYPD3) =    -0.15592581233397D+03

 The electronic state is 1-A.
 Alpha  occ. eigenvalues --  -10.62338 -10.61980 -10.61363 -10.61325  -0.93324
 Alpha  occ. eigenvalues --   -0.84897  -0.70543  -0.64566  -0.54862  -0.54021
 Alpha  occ. eigenvalues --   -0.46880  -0.45771  -0.41325  -0.38294  -0.27554
 Alpha virt. eigenvalues --    0.01659   0.07023   0.07477   0.08174   0.09654
 Alpha virt. eigenvalues --    0.11743   0.12509   0.14868   0.15882   0.16147
 Alpha virt. eigenvalues --    0.18774   0.20413   0.21879   0.23053   0.23764

 Mulliken charges:
               1
     1  C   -0.175445
     2  C   -0.035006
     3  C   -0.022527
     4  C   -0.178611
     5  H    0.081792
     6  H    0.065645
     7  H    0.058914
     8  H    0.055230
     9  H    0.063875
    10  H    0.086134
 Sum of Mulliken charges =   0.00000

 Dipole moment (field-independent basis, Debye):
    X=             -0.0365    Y=             -0.0059    Z=              0.0114  Tot=              0.0387
 Quadrupole moment (field-independent basis, Debye-Ang):
   XX=            -23.4582   YY=            -23.0944   ZZ=            -29.1798
   XY=              0.2629   XZ=              0.2386   YZ=             -0.0149

 1\1\GINC-NODE19\SP\RB2PLYPD3-FC\def2QZVP\C4H6\BOITTIER\26-Aug-2020\0\\
 #p B2PLYPD3/Def2QZVP\\butadiene\\0,1\C,0,-3.828103,0.236934,-0.004424\
 C,0,-2.714407,-0.513731,0.053848\C,0,-1.393406,0.056744,0.035723\C,0,-
 0.268832,-0.645759,0.01842\H,0,-4.794922,-0.199708,0.051352\H,0,-3.823
 627,1.308893,-0.008574\H,0,-2.777722,-1.576796,0.062237\H,0,-1.364954,
 1.126928,-0.010806\H,0,-0.299899,-1.728043,0.049216\H,0,0.704396,-0.16
 7723,-0.048346\\Version=ES64L-G09RevD.01\State=1-A\HF=-155.700416\MP2=
 -155.9258123\RMSD=5.581e-09\PG=C01 [X(C4H6)]\\@

 Normal termination of Gaussian 09 at Wed Aug 26 19:25:30 2020.
