 Gaussian 09, Revision D.01,
 Gaussian 09:  ES64L-G09RevD.01 24-Apr-2013

 --------------------
 #p B2PLYPD3/Def2QZVP
 --------------------

 ---------
 butadiene
 ---------
 Symbolic Z-matrix:
 Charge =  0 Multiplicity = 1

                         Standard orientation:
 ---------------------------------------------------------------------
 Center     Atomic      Atomic             Coordinates (Angstroms)
 Number     Number       Type             X           Y           Z
 ---------------------------------------------------------------------
      1          6           0        1.827835    0.053980    0.044845
      2          6           0        0.578263   -0.348736   -0.055724
      3          6           0       -0.582672    0.441389   -0.101645
      4          6           0       -1.796036   -0.138366    0.097864
      5          1           0        2.662964   -0.555602   -0.004752
      6          1           0        1.924199    1.177054    0.271656
      7          1           0        0.431580   -1.446750   -0.183418
      8          1           0       -0.468292    1.595669   -0.070124
      9          1           0       -1.946284   -1.232987    0.174579
     10          1           0       -2.768509    0.413014   -0.099984
 ---------------------------------------------------------------------

 SCF Done:  E(RB2PLYPD3) =  -155.678399300     A.U. after   12 cycles
 E2(B2PLYPD3) =    -0.2278572298D+00 E(B2PLYPD3) =    -0.15590625653023D+03

 The electronic state is 1-A.
 Alpha  occ. eigenvalues --  -10.63648 -10.62941 -10.62017 -10.61317  -0.93723
 Alpha  occ. eigenvalues --   -0.84599  -0.70217  -0.62817  -0.55374  -0.52770
 Alpha  occ. eigenvalues --   -0.47149  -0.43709  -0.40732  -0.38375  -0.27448
 Alpha virt. eigenvalues --    0.00888   0.06908   0.07063   0.07818   0.09667
 Alpha virt. eigenvalues --    0.11628   0.12374   0.14530   0.15458   0.16357
 Alpha virt. eigenvalues --    0.18768   0.19401   0.21283   0.22208   0.23839

 Mulliken charges:
               1
     1  C   -0.182647
     2  C   -0.004365
     3  C   -0.038947
     4  C   -0.154899
     5  H    0.099730
     6  H    0.047646
     7  H    0.041653
     8  H    0.055104
     9  H    0.062783
    10  H    0.073943
 Sum of Mulliken charges =   0.00000

 Dipole moment (field-independent basis, Debye):
    X=             -0.0574    Y=             -0.1213    Z=             -0.0323  Tot=              0.1380
 Quadrupole moment (field-independent basis, Debye-Ang):
   XX=            -23.7223   YY=            -23.4044   ZZ=            -29.2735
   XY=             -0.0335   XZ=              0.3439   YZ=              0.1681

 1\1\GINC-NODE13\SP\RB2PLYPD3-FC\def2QZVP\C4H6\BOITTIER\26-Aug-2020\0\\
 #p B2PLYPD3/Def2QZVP\\butadiene\\0,1\C,0,-3.835813,0.174168,-0.033419\
 C,0,-2.682404,-0.449167,0.088344\C,0,-1.395196,0.113506,0.114218\C,0,-
 0.310286,-0.687402,-0.058088\H,0,-4.769373,-0.268192,0.031956\H,0,-3.7
 22602,1.287119,-0.299029\H,0,-2.741568,-1.550257,0.254343\H,0,-1.29382
 5,1.267211,0.042606\H,0,-0.365406,-1.792908,-0.096469\H,0,0.747568,-0.
 319047,0.126646\\Version=ES64L-G09RevD.01\State=1-A\HF=-155.6783993\MP
 2=-155.9062565\RMSD=3.529e-09\PG=C01 [X(C4H6)]\\@

 Normal termination of Gaussian 09 at Wed Aug 26 14:50:12 2020.
