 Gaussian 09, Revision D.01,
 Gaussian 09:  ES64L-G09RevD.01 24-Apr-2013

 --------------------
 #p B2PLYPD3/Def2QZVP
 --------------------

 ---------
 butadiene
 ---------
 Symbolic Z-matrix:
 Charge =  0 Multiplicity = 1

                         Standard orientation:
 ---------------------------------------------------------------------
 Center     Atomic      Atomic             Coordinates (Angstroms)
 Number     Number       Type             X           Y           Z
 ---------------------------------------------------------------------
      1          6           0        1.839754   -0.096808   -0.027344
      2          6           0        0.594418    0.364234    0.044671
      3          6           0       -0.612676   -0.405040    0.008574
      4          6           0       -1.834427    0.111156   -0.043603
      5          1           0        2.651944    0.560787   -0.059267
      6          1           0        2.088256   -1.139199   -0.056737
      7          1           0        0.532570    1.457173    0.081584
      8          1           0       -0.461943   -1.426769    0.139614
      9          1           0       -1.988315    1.190438   -0.008473
     10          1           0       -2.744923   -0.483679    0.009486
 ---------------------------------------------------------------------

 SCF Done:  E(RB2PLYPD3) =  -155.696716871     A.U. after   11 cycles
 E2(B2PLYPD3) =    -0.2251288842D+00 E(B2PLYPD3) =    -0.15592184575560D+03

 The electronic state is 1-A.
 Alpha  occ. eigenvalues --  -10.62189 -10.61924 -10.61680 -10.60841  -0.93467
 Alpha  occ. eigenvalues --   -0.85261  -0.70836  -0.64377  -0.55108  -0.54273
 Alpha  occ. eigenvalues --   -0.47395  -0.45261  -0.41233  -0.38167  -0.27762
 Alpha virt. eigenvalues --    0.01608   0.07021   0.07599   0.08068   0.09905
 Alpha virt. eigenvalues --    0.11629   0.12534   0.14862   0.15705   0.16417
 Alpha virt. eigenvalues --    0.18902   0.20342   0.21770   0.22342   0.24120

 Mulliken charges:
               1
     1  C   -0.177845
     2  C   -0.019073
     3  C   -0.040141
     4  C   -0.166556
     5  H    0.085041
     6  H    0.060898
     7  H    0.045975
     8  H    0.065216
     9  H    0.064004
    10  H    0.082481
 Sum of Mulliken charges =   0.00000

 Dipole moment (field-independent basis, Debye):
    X=             -0.0040    Y=             -0.0163    Z=              0.1325  Tot=              0.1335
 Quadrupole moment (field-independent basis, Debye-Ang):
   XX=            -23.1913   YY=            -23.2783   ZZ=            -29.0712
   XY=             -0.1291   XZ=             -0.3736   YZ=             -0.0826

 1\1\GINC-NODE30\SP\RB2PLYPD3-FC\def2QZVP\C4H6\BOITTIER\26-Aug-2020\0\\
 #p B2PLYPD3/Def2QZVP\\butadiene\\0,1\C,0,-3.846085,0.21029,-0.010541\C
 ,0,-2.704915,-0.46688,0.077659\C,0,-1.378411,0.070001,0.029623\C,0,-0.
 270379,-0.660004,-0.00519\H,0,-4.76396,-0.289891,-0.031233\H,0,-3.9016
 1,1.279482,-0.064772\H,0,-2.842116,-1.55179,0.139699\H,0,-1.341592,1.1
 04893,0.136701\H,0,-0.314588,-1.748198,0.05518\H,0,0.732797,-0.238843,
 0.038541\\Version=ES64L-G09RevD.01\State=1-A\HF=-155.6967169\MP2=-155.
 9218458\RMSD=4.233e-09\PG=C01 [X(C4H6)]\\@

 Normal termination of Gaussian 09 at Wed Aug 26 09:06:42 2020.
