 Gaussian 09, Revision D.01,
 Gaussian 09:  ES64L-G09RevD.01 24-Apr-2013

 --------------------
 #p B2PLYPD3/Def2QZVP
 --------------------

 ---------
 butadiene
 ---------
 Symbolic Z-matrix:
 Charge =  0 Multiplicity = 1

                         Standard orientation:
 ---------------------------------------------------------------------
 Center     Atomic      Atomic             Coordinates (Angstroms)
 Number     Number       Type             X           Y           Z
 ---------------------------------------------------------------------
      1          6           0        1.873318   -0.083478    0.065215
      2          6           0        0.624829    0.371108   -0.013746
      3          6           0       -0.647294   -0.447316   -0.042632
      4          6           0       -1.873483    0.131477    0.019944
      5          1           0        2.650693    0.524025   -0.023488
      6          1           0        2.215438   -1.099259   -0.075520
      7          1           0        0.443681    1.476826   -0.094191
      8          1           0       -0.490940   -1.506182   -0.104320
      9          1           0       -1.890560    1.219842   -0.059990
     10          1           0       -2.792531   -0.445998    0.184824
 ---------------------------------------------------------------------

 SCF Done:  E(RB2PLYPD3) =  -155.682885597     A.U. after   12 cycles
 E2(B2PLYPD3) =    -0.2264029290D+00 E(B2PLYPD3) =    -0.15590928852623D+03

 The electronic state is 1-A.
 Alpha  occ. eigenvalues --  -10.63565 -10.63340 -10.62458 -10.60409  -0.91981
 Alpha  occ. eigenvalues --   -0.85094  -0.70474  -0.63979  -0.55212  -0.53062
 Alpha  occ. eigenvalues --   -0.47442  -0.45820  -0.40649  -0.36999  -0.27931
 Alpha virt. eigenvalues --    0.01501   0.06967   0.07391   0.08140   0.09062
 Alpha virt. eigenvalues --    0.11454   0.12625   0.14707   0.15832   0.16046
 Alpha virt. eigenvalues --    0.18983   0.19978   0.22114   0.22815   0.24149

 Mulliken charges:
               1
     1  C   -0.159996
     2  C   -0.033700
     3  C   -0.045376
     4  C   -0.170452
     5  H    0.079734
     6  H    0.054056
     7  H    0.047092
     8  H    0.066435
     9  H    0.068373
    10  H    0.093833
 Sum of Mulliken charges =   0.00000

 Dipole moment (field-independent basis, Debye):
    X=             -0.0181    Y=             -0.0365    Z=             -0.1983  Tot=              0.2024
 Quadrupole moment (field-independent basis, Debye-Ang):
   XX=            -23.0774   YY=            -23.3450   ZZ=            -29.3093
   XY=             -0.2611   XZ=             -0.7735   YZ=             -0.1154

 1\1\GINC-NODE26\SP\RB2PLYPD3-FC\def2QZVP\C4H6\BOITTIER\26-Aug-2020\0\\
 #p B2PLYPD3/Def2QZVP\\butadiene\\0,1\C,0,-3.884513,0.198535,0.07028\C,
 0,-2.736233,-0.47219,0.013803\C,0,-1.339117,0.1067,-0.029807\C,0,-0.23
 5083,-0.677989,0.058671\H,0,-4.757095,-0.264053,-0.006226\H,0,-4.04086
 ,1.254139,-0.102695\H,0,-2.753815,-1.594426,-0.032836\H,0,-1.305159,1.
 174166,-0.12368\H,0,-0.411061,-1.754076,0.010837\H,0,0.771454,-0.26773
 7,0.213233\\Version=ES64L-G09RevD.01\State=1-A\HF=-155.6828856\MP2=-15
 5.9092885\RMSD=3.153e-09\PG=C01 [X(C4H6)]\\@

 Normal termination of Gaussian 09 at Wed Aug 26 13:24:49 2020.
