 Gaussian 09, Revision D.01,
 Gaussian 09:  ES64L-G09RevD.01 24-Apr-2013

 --------------------
 #p B2PLYPD3/Def2QZVP
 --------------------

 ---------
 butadiene
 ---------
 Symbolic Z-matrix:
 Charge =  0 Multiplicity = 1

                         Standard orientation:
 ---------------------------------------------------------------------
 Center     Atomic      Atomic             Coordinates (Angstroms)
 Number     Number       Type             X           Y           Z
 ---------------------------------------------------------------------
      1          6           0       -1.833773   -0.119316    0.033532
      2          6           0       -0.610588    0.396665   -0.031386
      3          6           0        0.603641   -0.402447   -0.041410
      4          6           0        1.819428    0.119197    0.051458
      5          1           0       -2.691013    0.557661   -0.011158
      6          1           0       -1.946977   -1.179830    0.106665
      7          1           0       -0.450818    1.511262   -0.133666
      8          1           0        0.519264   -1.495525   -0.062055
      9          1           0        2.030440    1.183908    0.126213
     10          1           0        2.666858   -0.542068   -0.099163
 ---------------------------------------------------------------------

 SCF Done:  E(RB2PLYPD3) =  -155.696936905     A.U. after   11 cycles
 E2(B2PLYPD3) =    -0.2258561702D+00 E(B2PLYPD3) =    -0.15592279307565D+03

 The electronic state is 1-A.
 Alpha  occ. eigenvalues --  -10.62760 -10.62427 -10.61380 -10.61359  -0.93066
 Alpha  occ. eigenvalues --   -0.85126  -0.69749  -0.63503  -0.54387  -0.53936
 Alpha  occ. eigenvalues --   -0.46355  -0.45660  -0.40894  -0.38062  -0.27832
 Alpha virt. eigenvalues --    0.01888   0.07033   0.07229   0.07941   0.09648
 Alpha virt. eigenvalues --    0.11755   0.12259   0.14839   0.15532   0.16177
 Alpha virt. eigenvalues --    0.18767   0.19843   0.21693   0.22472   0.24174

 Mulliken charges:
               1
     1  C   -0.182157
     2  C   -0.024772
     3  C   -0.030610
     4  C   -0.171699
     5  H    0.090005
     6  H    0.071964
     7  H    0.048644
     8  H    0.052958
     9  H    0.066148
    10  H    0.079519
 Sum of Mulliken charges =   0.00000

 Dipole moment (field-independent basis, Debye):
    X=              0.0193    Y=             -0.0073    Z=             -0.1024  Tot=              0.1045
 Quadrupole moment (field-independent basis, Debye-Ang):
   XX=            -23.9000   YY=            -22.9561   ZZ=            -29.2373
   XY=              0.1382   XZ=             -0.1799   YZ=             -0.0130

 1\1\GINC-NODE39\SP\RB2PLYPD3-FC\def2QZVP\C4H6\BOITTIER\26-Aug-2020\0\\
 #p B2PLYPD3/Def2QZVP\\butadiene\\0,1\C,0,-3.833122,0.227152,-0.016234\
 C,0,-2.721317,-0.496206,0.069067\C,0,-1.384086,0.073626,0.057394\C,0,-
 0.280975,-0.659041,-0.014852\H,0,-4.797173,-0.28443,0.047357\H,0,-3.75
 5692,1.287966,-0.123624\H,0,-2.762491,-1.617573,0.207469\H,0,-1.272247
 ,1.164334,0.042782\H,0,-0.26329,-1.746154,-0.054826\H,0,0.671124,-0.15
 4903,0.117238\\Version=ES64L-G09RevD.01\State=1-A\HF=-155.6969369\MP2=
 -155.9227931\RMSD=3.630e-09\PG=C01 [X(C4H6)]\\@

 Normal termination of Gaussian 09 at Wed Aug 26 22:15:14 2020.
