 Gaussian 09, Revision D.01,
 Gaussian 09:  ES64L-G09RevD.01 24-Apr-2013

 --------------------
 #p B2PLYPD3/Def2QZVP
 --------------------

 ---------
 butadiene
 ---------
 Symbolic Z-matrix:
 Charge =  0 Multiplicity = 1

                         Standard orientation:
 ---------------------------------------------------------------------
 Center     Atomic      Atomic             Coordinates (Angstroms)
 Number     Number       Type             X           Y           Z
 ---------------------------------------------------------------------
      1          6           0        1.848969    0.100477    0.019204
      2          6           0        0.606764   -0.396517   -0.028930
      3          6           0       -0.605935    0.420229   -0.016330
      4          6           0       -1.843057   -0.118816    0.010486
      5          1           0        2.719905   -0.551981    0.083426
      6          1           0        2.013271    1.178904    0.004905
      7          1           0        0.473710   -1.463480   -0.074395
      8          1           0       -0.475704    1.502682   -0.034797
      9          1           0       -2.035197   -1.186876    0.062017
     10          1           0       -2.736424    0.488514    0.052265
 ---------------------------------------------------------------------

 SCF Done:  E(RB2PLYPD3) =  -155.699947059     A.U. after   11 cycles
 E2(B2PLYPD3) =    -0.2261718863D+00 E(B2PLYPD3) =    -0.15592611894552D+03

 The electronic state is 1-A.
 Alpha  occ. eigenvalues --  -10.63041 -10.62534 -10.61838 -10.61709  -0.92675
 Alpha  occ. eigenvalues --   -0.84610  -0.70058  -0.64157  -0.54508  -0.53661
 Alpha  occ. eigenvalues --   -0.46683  -0.45493  -0.41276  -0.37847  -0.27551
 Alpha virt. eigenvalues --    0.01596   0.06993   0.07399   0.08053   0.09390
 Alpha virt. eigenvalues --    0.11624   0.12432   0.14620   0.15919   0.16114
 Alpha virt. eigenvalues --    0.18847   0.20593   0.21547   0.22867   0.23579

 Mulliken charges:
               1
     1  C   -0.177096
     2  C   -0.029256
     3  C   -0.038650
     4  C   -0.172164
     5  H    0.086478
     6  H    0.064907
     7  H    0.058864
     8  H    0.058656
     9  H    0.066236
    10  H    0.082025
 Sum of Mulliken charges =   0.00000

 Dipole moment (field-independent basis, Debye):
    X=             -0.0331    Y=             -0.0189    Z=              0.0560  Tot=              0.0678
 Quadrupole moment (field-independent basis, Debye-Ang):
   XX=            -23.4505   YY=            -23.0741   ZZ=            -29.3682
   XY=              0.2094   XZ=             -0.0404   YZ=             -0.0582

 1\1\GINC-NODE20\SP\RB2PLYPD3-FC\def2QZVP\C4H6\BOITTIER\26-Aug-2020\0\\
 #p B2PLYPD3/Def2QZVP\\butadiene\\0,1\C,0,-3.852111,0.216266,-0.000878\
 C,0,-2.719751,-0.495268,0.061358\C,0,-1.379691,0.088785,0.029841\C,0,-
 0.260156,-0.665049,0.0182\H,0,-4.826635,-0.269803,-0.049836\H,0,-3.819
 19,1.306656,-0.013888\H,0,-2.781147,-1.567259,0.133785\H,0,-1.312518,1
 .177093,0.02094\H,0,-0.263947,-1.751196,-0.006234\H,0,0.727949,-0.2300
 44,-0.037647\\Version=ES64L-G09RevD.01\State=1-A\HF=-155.6999471\MP2=-
 155.9261189\RMSD=5.131e-09\PG=C01 [X(C4H6)]\\@

 Normal termination of Gaussian 09 at Wed Aug 26 18:48:54 2020.
