 Gaussian 09, Revision D.01,
 Gaussian 09:  ES64L-G09RevD.01 24-Apr-2013

 --------------------
 #p B2PLYPD3/Def2QZVP
 --------------------

 ---------
 butadiene
 ---------
 Symbolic Z-matrix:
 Charge =  0 Multiplicity = 1

                         Standard orientation:
 ---------------------------------------------------------------------
 Center     Atomic      Atomic             Coordinates (Angstroms)
 Number     Number       Type             X           Y           Z
 ---------------------------------------------------------------------
      1          6           0        1.835350    0.091700    0.002843
      2          6           0        0.603516   -0.389391   -0.003266
      3          6           0       -0.595091    0.413195   -0.024575
      4          6           0       -1.834218   -0.116839    0.014412
      5          1           0        2.733141   -0.505867    0.046512
      6          1           0        1.959472    1.201067    0.026884
      7          1           0        0.461908   -1.467476   -0.033341
      8          1           0       -0.488229    1.482586   -0.019271
      9          1           0       -1.982574   -1.192534   -0.006994
     10          1           0       -2.741057    0.490235    0.049725
 ---------------------------------------------------------------------

 SCF Done:  E(RB2PLYPD3) =  -155.699446667     A.U. after   11 cycles
 E2(B2PLYPD3) =    -0.2259629785D+00 E(B2PLYPD3) =    -0.15592540964593D+03

 The electronic state is 1-A.
 Alpha  occ. eigenvalues --  -10.62618 -10.62290 -10.61896 -10.61629  -0.93195
 Alpha  occ. eigenvalues --   -0.84801  -0.70042  -0.64112  -0.54809  -0.53674
 Alpha  occ. eigenvalues --   -0.46865  -0.44989  -0.41212  -0.38298  -0.27632
 Alpha virt. eigenvalues --    0.01661   0.07020   0.07372   0.08039   0.09635
 Alpha virt. eigenvalues --    0.11630   0.12530   0.14509   0.15852   0.16271
 Alpha virt. eigenvalues --    0.18752   0.20450   0.21602   0.22791   0.23702

 Mulliken charges:
               1
     1  C   -0.171356
     2  C   -0.022837
     3  C   -0.033637
     4  C   -0.174499
     5  H    0.089961
     6  H    0.054865
     7  H    0.051564
     8  H    0.057090
     9  H    0.064531
    10  H    0.084318
 Sum of Mulliken charges =   0.00000

 Dipole moment (field-independent basis, Debye):
    X=             -0.0202    Y=             -0.0202    Z=              0.0397  Tot=              0.0489
 Quadrupole moment (field-independent basis, Debye-Ang):
   XX=            -23.3598   YY=            -23.2263   ZZ=            -29.2901
   XY=             -0.0182   XZ=              0.0380   YZ=              0.0692

 1\1\GINC-NODE18\SP\RB2PLYPD3-FC\def2QZVP\C4H6\BOITTIER\26-Aug-2020\0\\
 #p B2PLYPD3/Def2QZVP\\butadiene\\0,1\C,0,-3.839785,0.206268,0.013497\C
 ,0,-2.714908,-0.488652,0.038766\C,0,-1.391129,0.084809,0.035549\C,0,-0
 .268081,-0.661063,0.017426\H,0,-4.830793,-0.220676,-0.011907\H,0,-3.76
 1879,1.318368,-0.048495\H,0,-2.76995,-1.572951,0.105766\H,0,-1.303383,
 1.155132,-0.00632\H,0,-0.316088,-1.744524,0.075697\H,0,0.733235,-0.229
 077,-0.036408\\Version=ES64L-G09RevD.01\State=1-A\HF=-155.6994467\MP2=
 -155.9254096\RMSD=5.283e-09\PG=C01 [X(C4H6)]\\@

 Normal termination of Gaussian 09 at Wed Aug 26 20:15:55 2020.
