 Gaussian 09, Revision D.01,
 Gaussian 09:  ES64L-G09RevD.01 24-Apr-2013

 --------------------
 #p B2PLYPD3/Def2QZVP
 --------------------

 ---------
 butadiene
 ---------
 Symbolic Z-matrix:
 Charge =  0 Multiplicity = 1

                         Standard orientation:
 ---------------------------------------------------------------------
 Center     Atomic      Atomic             Coordinates (Angstroms)
 Number     Number       Type             X           Y           Z
 ---------------------------------------------------------------------
      1          6           0        1.851440    0.095489    0.021578
      2          6           0        0.606685   -0.365490   -0.058056
      3          6           0       -0.608926    0.400510   -0.039323
      4          6           0       -1.831910   -0.120269    0.040264
      5          1           0        2.660462   -0.604761    0.201113
      6          1           0        2.018007    1.163660    0.026224
      7          1           0        0.412975   -1.431422   -0.097914
      8          1           0       -0.518871    1.519732   -0.036892
      9          1           0       -1.983737   -1.208599    0.040648
     10          1           0       -2.692568    0.499953    0.080045
 ---------------------------------------------------------------------

 SCF Done:  E(RB2PLYPD3) =  -155.697541718     A.U. after   11 cycles
 E2(B2PLYPD3) =    -0.2258509465D+00 E(B2PLYPD3) =    -0.15592339266474D+03

 The electronic state is 1-A.
 Alpha  occ. eigenvalues --  -10.62688 -10.62253 -10.61528 -10.61518  -0.93258
 Alpha  occ. eigenvalues --   -0.85147  -0.70480  -0.63486  -0.54674  -0.53974
 Alpha  occ. eigenvalues --   -0.46847  -0.45652  -0.40887  -0.38227  -0.27728
 Alpha virt. eigenvalues --    0.01577   0.07007   0.07324   0.08019   0.09895
 Alpha virt. eigenvalues --    0.11715   0.12328   0.14752   0.15714   0.16118
 Alpha virt. eigenvalues --    0.18822   0.20118   0.21611   0.22722   0.23884

 Mulliken charges:
               1
     1  C   -0.180277
     2  C   -0.021649
     3  C   -0.023522
     4  C   -0.176956
     5  H    0.090802
     6  H    0.069807
     7  H    0.048791
     8  H    0.041092
     9  H    0.061771
    10  H    0.090142
 Sum of Mulliken charges =   0.00000

 Dipole moment (field-independent basis, Debye):
    X=             -0.0781    Y=             -0.0082    Z=              0.1340  Tot=              0.1553
 Quadrupole moment (field-independent basis, Debye-Ang):
   XX=            -23.6247   YY=            -23.1810   ZZ=            -29.1931
   XY=              0.0473   XZ=              0.3314   YZ=             -0.0618

 1\1\GINC-NODE09\SP\RB2PLYPD3-FC\def2QZVP\C4H6\BOITTIER\26-Aug-2020\0\\
 #p B2PLYPD3/Def2QZVP\\butadiene\\0,1\C,0,-3.854303,0.210985,-0.010744\
 C,0,-2.713082,-0.464819,0.084974\C,0,-1.379268,0.06882,0.053571\C,0,-0
 .270243,-0.665644,-0.008583\H,0,-4.776336,-0.336006,-0.177345\H,0,-3.8
 25518,1.291267,-0.041051\H,0,-2.714766,-1.546956,0.150547\H,0,-1.26601
 9,1.18556,0.024615\H,0,-0.317162,-1.76321,0.017102\H,0,0.688149,-0.211
 863,-0.059146\\Version=ES64L-G09RevD.01\State=1-A\HF=-155.6975417\MP2=
 -155.9233927\RMSD=3.464e-09\PG=C01 [X(C4H6)]\\@

 Normal termination of Gaussian 09 at Wed Aug 26 08:44:01 2020.
