 Gaussian 09, Revision D.01,
 Gaussian 09:  ES64L-G09RevD.01 24-Apr-2013

 --------------------
 #p B2PLYPD3/Def2QZVP
 --------------------

 ---------
 butadiene
 ---------
 Symbolic Z-matrix:
 Charge =  0 Multiplicity = 1

                         Standard orientation:
 ---------------------------------------------------------------------
 Center     Atomic      Atomic             Coordinates (Angstroms)
 Number     Number       Type             X           Y           Z
 ---------------------------------------------------------------------
      1          6           0       -1.814595    0.080761    0.035563
      2          6           0       -0.585089   -0.375326   -0.050827
      3          6           0        0.594027    0.459027   -0.065057
      4          6           0        1.816776   -0.126467   -0.005299
      5          1           0       -2.644132   -0.591204    0.024852
      6          1           0       -2.003850    1.226725    0.141689
      7          1           0       -0.576825   -1.477376    0.059078
      8          1           0        0.449146    1.528595   -0.042368
      9          1           0        1.837687   -1.245017    0.046193
     10          1           0        2.871259    0.330301    0.284283
 ---------------------------------------------------------------------

 SCF Done:  E(RB2PLYPD3) =  -155.676892443     A.U. after   11 cycles
 E2(B2PLYPD3) =    -0.2277486092D+00 E(B2PLYPD3) =    -0.15590464105182D+03

 The electronic state is 1-A.
 Alpha  occ. eigenvalues --  -10.63449 -10.63335 -10.62316 -10.61675  -0.93358
 Alpha  occ. eigenvalues --   -0.84616  -0.68995  -0.63555  -0.54415  -0.53112
 Alpha  occ. eigenvalues --   -0.46613  -0.43229  -0.41177  -0.38280  -0.27597
 Alpha virt. eigenvalues --    0.01534   0.06905   0.07130   0.07704   0.09244
 Alpha virt. eigenvalues --    0.11438   0.12521   0.13907   0.15562   0.16761
 Alpha virt. eigenvalues --    0.18687   0.19372   0.21377   0.22574   0.24202

 Mulliken charges:
               1
     1  C   -0.176177
     2  C   -0.010945
     3  C   -0.045297
     4  C   -0.151572
     5  H    0.087327
     6  H    0.049909
     7  H    0.050096
     8  H    0.067554
     9  H    0.054233
    10  H    0.074872
 Sum of Mulliken charges =   0.00000

 Dipole moment (field-independent basis, Debye):
    X=             -0.0285    Y=             -0.0667    Z=              0.3781  Tot=              0.3850
 Quadrupole moment (field-independent basis, Debye-Ang):
   XX=            -23.9011   YY=            -23.2649   ZZ=            -29.3711
   XY=              0.1716   XZ=              0.5918   YZ=              0.0491

 1\1\GINC-NODE11\SP\RB2PLYPD3-FC\def2QZVP\C4H6\BOITTIER\26-Aug-2020\0\\
 #p B2PLYPD3/Def2QZVP\\butadiene\\0,1\C,0,-3.824922,0.187685,0.055025\C
 ,0,-2.697036,-0.484065,-0.006538\C,0,-1.38748,0.12455,-0.042747\C,0,-0
 .289469,-0.667867,0.046349\H,0,-4.761451,-0.324795,0.062847\H,0,-3.805
 768,1.352119,0.118575\H,0,-2.886435,-1.565005,0.142988\H,0,-1.338341,1
 .202875,-0.059529\H,0,-0.469368,-1.769432,0.138181\H,0,0.829729,-0.397
 035,0.326482\\Version=ES64L-G09RevD.01\State=1-A\HF=-155.6768924\MP2=-
 155.9046411\RMSD=8.924e-09\PG=C01 [X(C4H6)]\\@

 Normal termination of Gaussian 09 at Wed Aug 26 12:50:39 2020.
