 Gaussian 09, Revision D.01,
 Gaussian 09:  ES64L-G09RevD.01 24-Apr-2013

 --------------------
 #p B2PLYPD3/Def2QZVP
 --------------------

 ---------
 butadiene
 ---------
 Symbolic Z-matrix:
 Charge =  0 Multiplicity = 1

                         Standard orientation:
 ---------------------------------------------------------------------
 Center     Atomic      Atomic             Coordinates (Angstroms)
 Number     Number       Type             X           Y           Z
 ---------------------------------------------------------------------
      1          6           0       -1.824474    0.105498   -0.033584
      2          6           0       -0.600307   -0.381728    0.045036
      3          6           0        0.604777    0.421849    0.005526
      4          6           0        1.813416   -0.133168   -0.012175
      5          1           0       -2.692519   -0.576442   -0.035344
      6          1           0       -1.971151    1.166926   -0.104052
      7          1           0       -0.493108   -1.466232    0.141835
      8          1           0        0.506079    1.500472    0.158549
      9          1           0        2.000111   -1.225234   -0.155111
     10          1           0        2.690114    0.525807   -0.034694
 ---------------------------------------------------------------------

 SCF Done:  E(RB2PLYPD3) =  -155.697106922     A.U. after   11 cycles
 E2(B2PLYPD3) =    -0.2257937405D+00 E(B2PLYPD3) =    -0.15592290066225D+03

 The electronic state is 1-A.
 Alpha  occ. eigenvalues --  -10.62555 -10.62101 -10.61932 -10.61206  -0.93246
 Alpha  occ. eigenvalues --   -0.85050  -0.69489  -0.63758  -0.54229  -0.53973
 Alpha  occ. eigenvalues --   -0.46418  -0.45153  -0.41082  -0.38131  -0.27872
 Alpha virt. eigenvalues --    0.02043   0.07055   0.07293   0.07863   0.09497
 Alpha virt. eigenvalues --    0.11725   0.12250   0.14770   0.15550   0.16103
 Alpha virt. eigenvalues --    0.18612   0.20055   0.21543   0.22662   0.24031

 Mulliken charges:
               1
     1  C   -0.178722
     2  C   -0.022259
     3  C   -0.040414
     4  C   -0.172564
     5  H    0.084679
     6  H    0.065699
     7  H    0.053663
     8  H    0.061897
     9  H    0.070085
    10  H    0.077937
 Sum of Mulliken charges =   0.00000

 Dipole moment (field-independent basis, Debye):
    X=              0.0363    Y=              0.0035    Z=             -0.0023  Tot=              0.0366
 Quadrupole moment (field-independent basis, Debye-Ang):
   XX=            -23.9208   YY=            -22.9625   ZZ=            -29.2025
   XY=             -0.0368   XZ=             -0.0719   YZ=              0.1260

 1\1\GINC-NODE18\SP\RB2PLYPD3-FC\def2QZVP\C4H6\BOITTIER\26-Aug-2020\0\\
 #p B2PLYPD3/Def2QZVP\\butadiene\\0,1\C,0,-3.828459,0.211916,-0.011841\
 C,0,-2.710445,-0.484066,0.076525\C,0,-1.381617,0.091209,0.023637\C,0,-
 0.291183,-0.670417,0.016899\H,0,-4.804073,-0.304446,-0.002113\H,0,-3.7
 83934,1.281074,-0.101438\H,0,-2.797865,-1.568429,0.192829\H,0,-1.28628
 9,1.172713,0.157228\H,0,-0.30229,-1.78064,-0.106291\H,0,0.688799,-0.17
 8622,-0.016685\\Version=ES64L-G09RevD.01\State=1-A\HF=-155.6971069\MP2
 =-155.9229007\RMSD=5.433e-09\PG=C01 [X(C4H6)]\\@

 Normal termination of Gaussian 09 at Wed Aug 26 09:18:15 2020.
