 Gaussian 09, Revision D.01,
 Gaussian 09:  ES64L-G09RevD.01 24-Apr-2013

 --------------------
 #p B2PLYPD3/Def2QZVP
 --------------------

 ---------
 butadiene
 ---------
 Symbolic Z-matrix:
 Charge =  0 Multiplicity = 1

                         Standard orientation:
 ---------------------------------------------------------------------
 Center     Atomic      Atomic             Coordinates (Angstroms)
 Number     Number       Type             X           Y           Z
 ---------------------------------------------------------------------
      1          6           0       -1.832537    0.086273   -0.033262
      2          6           0       -0.588579   -0.366647    0.036082
      3          6           0        0.608748    0.408902    0.041802
      4          6           0        1.818008   -0.114126   -0.041972
      5          1           0       -2.676347   -0.537074   -0.001205
      6          1           0       -2.100672    1.139336   -0.080828
      7          1           0       -0.445459   -1.431109    0.016934
      8          1           0        0.508288    1.496873    0.095481
      9          1           0        1.918112   -1.240024    0.022874
     10          1           0        2.762238    0.485584   -0.069160
 ---------------------------------------------------------------------

 SCF Done:  E(RB2PLYPD3) =  -155.695670856     A.U. after   11 cycles
 E2(B2PLYPD3) =    -0.2255935451D+00 E(B2PLYPD3) =    -0.15592126440104D+03

 The electronic state is 1-A.
 Alpha  occ. eigenvalues --  -10.62329 -10.62181 -10.62083 -10.61048  -0.93615
 Alpha  occ. eigenvalues --   -0.85130  -0.70328  -0.63878  -0.55114  -0.53645
 Alpha  occ. eigenvalues --   -0.47167  -0.44704  -0.40849  -0.38584  -0.27811
 Alpha virt. eigenvalues --    0.01729   0.06978   0.07377   0.07981   0.09928
 Alpha virt. eigenvalues --    0.11612   0.12511   0.14659   0.15763   0.16333
 Alpha virt. eigenvalues --    0.18800   0.20161   0.21922   0.22311   0.23891

 Mulliken charges:
               1
     1  C   -0.173059
     2  C   -0.025126
     3  C   -0.027736
     4  C   -0.165011
     5  H    0.084117
     6  H    0.059250
     7  H    0.052340
     8  H    0.053733
     9  H    0.056311
    10  H    0.085180
 Sum of Mulliken charges =   0.00000

 Dipole moment (field-independent basis, Debye):
    X=              0.0015    Y=              0.0324    Z=              0.0422  Tot=              0.0532
 Quadrupole moment (field-independent basis, Debye-Ang):
   XX=            -23.2292   YY=            -23.3516   ZZ=            -29.1617
   XY=             -0.0421   XZ=              0.0497   YZ=             -0.0744

 1\1\GINC-NODE27\SP\RB2PLYPD3-FC\def2QZVP\C4H6\BOITTIER\26-Aug-2020\0\\
 #p B2PLYPD3/Def2QZVP\\butadiene\\0,1\C,0,-3.839468,0.201659,-0.01585\C
 ,0,-2.698741,-0.468207,0.070161\C,0,-1.380079,0.075884,0.056161\C,0,-0
 .286673,-0.66108,-0.0089\H,0,-4.782686,-0.256183,0.032357\H,0,-3.91125
 7,1.284086,-0.095218\H,0,-2.752133,-1.541016,0.082848\H,0,-1.28036,1.1
 6504,0.077409\H,0,-0.393329,-1.783945,0.089444\H,0,0.750986,-0.244632,
 -0.051274\\Version=ES64L-G09RevD.01\State=1-A\HF=-155.6956709\MP2=-155
 .9212644\RMSD=5.057e-09\PG=C01 [X(C4H6)]\\@

 Normal termination of Gaussian 09 at Wed Aug 26 08:57:56 2020.
