 Gaussian 09, Revision D.01,
 Gaussian 09:  ES64L-G09RevD.01 24-Apr-2013

 --------------------
 #p B2PLYPD3/Def2QZVP
 --------------------

 ---------
 butadiene
 ---------
 Symbolic Z-matrix:
 Charge =  0 Multiplicity = 1

                         Standard orientation:
 ---------------------------------------------------------------------
 Center     Atomic      Atomic             Coordinates (Angstroms)
 Number     Number       Type             X           Y           Z
 ---------------------------------------------------------------------
      1          6           0       -1.824535   -0.140278    0.011169
      2          6           0       -0.612363    0.450320   -0.003601
      3          6           0        0.614089   -0.400477   -0.073662
      4          6           0        1.860429    0.117797    0.011310
      5          1           0       -2.759514    0.453266    0.147743
      6          1           0       -1.939487   -1.250989   -0.005068
      7          1           0       -0.546606    1.561914   -0.065837
      8          1           0        0.415588   -1.466995    0.020537
      9          1           0        1.915312    1.138582    0.018738
     10          1           0        2.688990   -0.599950    0.212594
 ---------------------------------------------------------------------

 SCF Done:  E(RB2PLYPD3) =  -155.686744739     A.U. after   11 cycles
 E2(B2PLYPD3) =    -0.2273505226D+00 E(B2PLYPD3) =    -0.15591409526120D+03

 The electronic state is 1-A.
 Alpha  occ. eigenvalues --  -10.63464 -10.63049 -10.62435 -10.61402  -0.92296
 Alpha  occ. eigenvalues --   -0.84525  -0.69061  -0.64023  -0.54274  -0.53128
 Alpha  occ. eigenvalues --   -0.45992  -0.45749  -0.41133  -0.37459  -0.27547
 Alpha virt. eigenvalues --    0.01733   0.06966   0.07240   0.07930   0.08721
 Alpha virt. eigenvalues --    0.11760   0.12322   0.14398   0.15322   0.16240
 Alpha virt. eigenvalues --    0.18671   0.19842   0.21345   0.23613   0.23979

 Mulliken charges:
               1
     1  C   -0.170498
     2  C   -0.045581
     3  C   -0.025136
     4  C   -0.185262
     5  H    0.080016
     6  H    0.062873
     7  H    0.057827
     8  H    0.058567
     9  H    0.077181
    10  H    0.090013
 Sum of Mulliken charges =   0.00000

 Dipole moment (field-independent basis, Debye):
    X=             -0.0982    Y=              0.0031    Z=              0.2539  Tot=              0.2722
 Quadrupole moment (field-independent basis, Debye-Ang):
   XX=            -24.2103   YY=            -22.8347   ZZ=            -29.4763
   XY=              0.0042   XZ=              0.3555   YZ=             -0.1960

 1\1\GINC-NODE37\SP\RB2PLYPD3-FC\def2QZVP\C4H6\BOITTIER\26-Aug-2020\0\\
 #p B2PLYPD3/Def2QZVP\\butadiene\\0,1\C,0,-3.828292,0.242273,0.001844\C
 ,0,-2.73688,-0.548657,0.0423\C,0,-1.380891,0.078439,0.07378\C,0,-0.244
 105,-0.651638,0.011355\H,0,-4.853156,-0.185265,-0.107688\H,0,-3.748671
 ,1.355698,-0.031353\H,0,-2.864456,-1.650971,0.153957\H,0,-1.392125,1.1
 58061,-0.067733\H,0,-0.367208,-1.665772,0.049377\H,0,0.694726,-0.09821
 4,-0.222115\\Version=ES64L-G09RevD.01\State=1-A\HF=-155.6867447\MP2=-1
 55.9140953\RMSD=7.533e-09\PG=C01 [X(C4H6)]\\@

 Normal termination of Gaussian 09 at Wed Aug 26 16:03:00 2020.
