 Gaussian 09, Revision D.01,
 Gaussian 09:  ES64L-G09RevD.01 24-Apr-2013

 --------------------
 #p B2PLYPD3/Def2QZVP
 --------------------

 ---------
 butadiene
 ---------
 Symbolic Z-matrix:
 Charge =  0 Multiplicity = 1

                         Standard orientation:
 ---------------------------------------------------------------------
 Center     Atomic      Atomic             Coordinates (Angstroms)
 Number     Number       Type             X           Y           Z
 ---------------------------------------------------------------------
      1          6           0       -1.832842    0.086602   -0.019148
      2          6           0       -0.613111   -0.383135    0.008823
      3          6           0        0.599860    0.422231    0.054553
      4          6           0        1.823136   -0.124398   -0.041021
      5          1           0       -2.715637   -0.535464   -0.074649
      6          1           0       -1.942735    1.206095    0.022060
      7          1           0       -0.386281   -1.425909    0.050532
      8          1           0        0.528494    1.530498   -0.016588
      9          1           0        1.890544   -1.234091    0.063764
     10          1           0        2.763364    0.451070   -0.064365
 ---------------------------------------------------------------------

 SCF Done:  E(RB2PLYPD3) =  -155.693842449     A.U. after   11 cycles
 E2(B2PLYPD3) =    -0.2261933801D+00 E(B2PLYPD3) =    -0.15592003582935D+03

 The electronic state is 1-A.
 Alpha  occ. eigenvalues --  -10.62893 -10.62239 -10.62045 -10.61582  -0.93265
 Alpha  occ. eigenvalues --   -0.84984  -0.69530  -0.63735  -0.54786  -0.53264
 Alpha  occ. eigenvalues --   -0.47009  -0.44548  -0.40797  -0.38346  -0.27951
 Alpha virt. eigenvalues --    0.01929   0.07044   0.07217   0.08018   0.09486
 Alpha virt. eigenvalues --    0.11680   0.12470   0.14338   0.15552   0.16346
 Alpha virt. eigenvalues --    0.18643   0.19688   0.21646   0.23192   0.23860

 Mulliken charges:
               1
     1  C   -0.171473
     2  C   -0.023673
     3  C   -0.027401
     4  C   -0.172074
     5  H    0.092339
     6  H    0.059841
     7  H    0.051709
     8  H    0.049317
     9  H    0.055234
    10  H    0.086181
 Sum of Mulliken charges =   0.00000

 Dipole moment (field-independent basis, Debye):
    X=              0.0294    Y=             -0.0172    Z=              0.0249  Tot=              0.0421
 Quadrupole moment (field-independent basis, Debye-Ang):
   XX=            -23.4867   YY=            -23.3186   ZZ=            -29.2885
   XY=              0.1746   XZ=              0.0416   YZ=             -0.1450

 1\1\GINC-NODE11\SP\RB2PLYPD3-FC\def2QZVP\C4H6\BOITTIER\26-Aug-2020\0\\
 #p B2PLYPD3/Def2QZVP\\butadiene\\0,1\C,0,-3.837604,0.196355,-0.002603\
 C,0,-2.721117,-0.482064,0.046225\C,0,-1.383753,0.095114,0.064364\C,0,-
 0.278028,-0.66421,-0.007335\H,0,-4.817435,-0.259874,-0.036644\H,0,-3.7
 45861,1.318237,-0.004208\H,0,-2.683755,-1.546242,0.128065\H,0,-1.25659
 ,1.194837,-0.048986\H,0,-0.409194,-1.763358,0.139679\H,0,0.749662,-0.2
 67026,-0.05017\\Version=ES64L-G09RevD.01\State=1-A\HF=-155.6938424\MP2
 =-155.9200358\RMSD=6.619e-09\PG=C01 [X(C4H6)]\\@

 Normal termination of Gaussian 09 at Wed Aug 26 11:15:33 2020.
