 Gaussian 09, Revision D.01,
 Gaussian 09:  ES64L-G09RevD.01 24-Apr-2013

 --------------------
 #p B2PLYPD3/Def2QZVP
 --------------------

 ---------
 butadiene
 ---------
 Symbolic Z-matrix:
 Charge =  0 Multiplicity = 1

                         Standard orientation:
 ---------------------------------------------------------------------
 Center     Atomic      Atomic             Coordinates (Angstroms)
 Number     Number       Type             X           Y           Z
 ---------------------------------------------------------------------
      1          6           0       -1.839438   -0.110873   -0.000104
      2          6           0       -0.607897    0.398879   -0.008211
      3          6           0        0.606534   -0.407707   -0.008809
      4          6           0        1.841069    0.111833    0.011127
      5          1           0       -2.649357    0.562731   -0.026155
      6          1           0       -2.061215   -1.161037    0.105304
      7          1           0       -0.461915    1.477981   -0.008077
      8          1           0        0.458386   -1.493359   -0.062972
      9          1           0        2.003028    1.197714    0.034829
     10          1           0        2.709465   -0.536824   -0.006945
 ---------------------------------------------------------------------

 SCF Done:  E(RB2PLYPD3) =  -155.699866748     A.U. after   11 cycles
 E2(B2PLYPD3) =    -0.2257533819D+00 E(B2PLYPD3) =    -0.15592562012963D+03

 The electronic state is 1-A.
 Alpha  occ. eigenvalues --  -10.62662 -10.62501 -10.61769 -10.61104  -0.92858
 Alpha  occ. eigenvalues --   -0.84926  -0.70193  -0.63835  -0.54505  -0.53965
 Alpha  occ. eigenvalues --   -0.46575  -0.45927  -0.41025  -0.38008  -0.27668
 Alpha virt. eigenvalues --    0.01752   0.07025   0.07347   0.08091   0.09535
 Alpha virt. eigenvalues --    0.11700   0.12319   0.14845   0.15768   0.16113
 Alpha virt. eigenvalues --    0.18746   0.20492   0.21565   0.22840   0.23909

 Mulliken charges:
               1
     1  C   -0.178715
     2  C   -0.029688
     3  C   -0.031257
     4  C   -0.177373
     5  H    0.084458
     6  H    0.071359
     7  H    0.053501
     8  H    0.054301
     9  H    0.066385
    10  H    0.087029
 Sum of Mulliken charges =   0.00000

 Dipole moment (field-independent basis, Debye):
    X=             -0.0167    Y=             -0.0004    Z=              0.0301  Tot=              0.0344
 Quadrupole moment (field-independent basis, Debye-Ang):
   XX=            -23.6393   YY=            -22.9748   ZZ=            -29.2851
   XY=              0.2444   XZ=             -0.1346   YZ=             -0.0334

 1\1\GINC-NODE22\SP\RB2PLYPD3-FC\def2QZVP\C4H6\BOITTIER\26-Aug-2020\0\\
 #p B2PLYPD3/Def2QZVP\\butadiene\\0,1\C,0,-3.840864,0.227943,0.015713\C
 ,0,-2.72265,-0.496956,0.042606\C,0,-1.381706,0.074803,0.022965\C,0,-0.
 262397,-0.661093,0.022126\H,0,-4.759786,-0.28594,0.059268\H,0,-3.86806
 6,1.297335,-0.12141\H,0,-2.775502,-1.584125,0.074863\H,0,-1.32966,1.17
 0407,0.044512\H,0,-0.30083,-1.758532,0.031074\H,0,0.709592,-0.181062,0
 .023589\\Version=ES64L-G09RevD.01\State=1-A\HF=-155.6998667\MP2=-155.9
 256201\RMSD=2.667e-09\PG=C01 [X(C4H6)]\\@

 Normal termination of Gaussian 09 at Wed Aug 26 20:48:22 2020.
