 Gaussian 09, Revision D.01,
 Gaussian 09:  ES64L-G09RevD.01 24-Apr-2013

 --------------------
 #p B2PLYPD3/Def2QZVP
 --------------------

 ---------
 butadiene
 ---------
 Symbolic Z-matrix:
 Charge =  0 Multiplicity = 1

                         Standard orientation:
 ---------------------------------------------------------------------
 Center     Atomic      Atomic             Coordinates (Angstroms)
 Number     Number       Type             X           Y           Z
 ---------------------------------------------------------------------
      1          6           0       -1.872185   -0.088166    0.068130
      2          6           0       -0.607967    0.357630   -0.080434
      3          6           0        0.631030   -0.434547   -0.097874
      4          6           0        1.879844    0.128187    0.091176
      5          1           0       -2.753755    0.601006    0.125898
      6          1           0       -2.148212   -1.105711    0.074594
      7          1           0       -0.472684    1.421544   -0.012184
      8          1           0        0.452689   -1.519425   -0.159908
      9          1           0        1.922591    1.306953   -0.164343
     10          1           0        2.815035   -0.482987    0.249952
 ---------------------------------------------------------------------

 SCF Done:  E(RB2PLYPD3) =  -155.676198405     A.U. after   12 cycles
 E2(B2PLYPD3) =    -0.2288316846D+00 E(B2PLYPD3) =    -0.15590503008954D+03

 The electronic state is 1-A.
 Alpha  occ. eigenvalues --  -10.64392 -10.64030 -10.62961 -10.61986  -0.92131
 Alpha  occ. eigenvalues --   -0.83902  -0.69795  -0.63726  -0.54235  -0.52273
 Alpha  occ. eigenvalues --   -0.46753  -0.44687  -0.40925  -0.37251  -0.27299
 Alpha virt. eigenvalues --    0.00725   0.06660   0.07237   0.07868   0.08971
 Alpha virt. eigenvalues --    0.11467   0.12289   0.14235   0.15639   0.16112
 Alpha virt. eigenvalues --    0.18691   0.19529   0.21369   0.22527   0.24282

 Mulliken charges:
               1
     1  C   -0.172247
     2  C   -0.022483
     3  C   -0.046358
     4  C   -0.175192
     5  H    0.078073
     6  H    0.064987
     7  H    0.055833
     8  H    0.057775
     9  H    0.065825
    10  H    0.093788
 Sum of Mulliken charges =   0.00000

 Dipole moment (field-independent basis, Debye):
    X=             -0.0207    Y=             -0.1191    Z=             -0.0152  Tot=              0.1218
 Quadrupole moment (field-independent basis, Debye-Ang):
   XX=            -23.3648   YY=            -23.4660   ZZ=            -29.5955
   XY=             -0.0095   XZ=             -0.0750   YZ=             -0.2223

 1\1\GINC-NODE25\SP\RB2PLYPD3-FC\def2QZVP\C4H6\BOITTIER\26-Aug-2020\0\\
 #p B2PLYPD3/Def2QZVP\\butadiene\\0,1\C,0,-3.884029,0.197356,-0.053825\
 C,0,-2.718143,-0.460265,0.111392\C,0,-1.358703,0.10088,0.110616\C,0,-0
 .22921,-0.678623,-0.058406\H,0,-4.873541,-0.326692,-0.095081\H,0,-3.97
 6049,1.247054,-0.089832\H,0,-2.772973,-1.532848,0.073557\H,0,-1.342563
 ,1.201516,0.141506\H,0,-0.394844,-1.838712,0.230325\H,0,0.798932,-0.24
 6907,-0.231235\\Version=ES64L-G09RevD.01\State=1-A\HF=-155.6761984\MP2
 =-155.9050301\RMSD=3.751e-09\PG=C01 [X(C4H6)]\\@

 Normal termination of Gaussian 09 at Wed Aug 26 11:51:58 2020.
