 Gaussian 09, Revision D.01,
 Gaussian 09:  ES64L-G09RevD.01 24-Apr-2013

 --------------------
 #p B2PLYPD3/Def2QZVP
 --------------------

 ---------
 butadiene
 ---------
 Symbolic Z-matrix:
 Charge =  0 Multiplicity = 1

                         Standard orientation:
 ---------------------------------------------------------------------
 Center     Atomic      Atomic             Coordinates (Angstroms)
 Number     Number       Type             X           Y           Z
 ---------------------------------------------------------------------
      1          6           0        1.835668    0.095929   -0.020645
      2          6           0        0.598417   -0.384572    0.031767
      3          6           0       -0.598392    0.415942    0.014125
      4          6           0       -1.825588   -0.117932   -0.026016
      5          1           0        2.696353   -0.547391   -0.042417
      6          1           0        1.993494    1.152576   -0.027389
      7          1           0        0.430976   -1.470436    0.025584
      8          1           0       -0.464179    1.483294    0.072301
      9          1           0       -2.021062   -1.172334    0.010814
     10          1           0       -2.696216    0.498094   -0.034281
 ---------------------------------------------------------------------

 SCF Done:  E(RB2PLYPD3) =  -155.700615333     A.U. after   11 cycles
 E2(B2PLYPD3) =    -0.2254357088D+00 E(B2PLYPD3) =    -0.15592605104176D+03

 The electronic state is 1-A.
 Alpha  occ. eigenvalues --  -10.62432 -10.62279 -10.61337 -10.61114  -0.93260
 Alpha  occ. eigenvalues --   -0.84988  -0.70563  -0.64181  -0.54898  -0.54053
 Alpha  occ. eigenvalues --   -0.46962  -0.45662  -0.41214  -0.38256  -0.27602
 Alpha virt. eigenvalues --    0.01703   0.07044   0.07420   0.08123   0.09679
 Alpha virt. eigenvalues --    0.11719   0.12512   0.14873   0.15777   0.16238
 Alpha virt. eigenvalues --    0.18749   0.20447   0.21887   0.22985   0.23747

 Mulliken charges:
               1
     1  C   -0.179948
     2  C   -0.020106
     3  C   -0.033378
     4  C   -0.175502
     5  H    0.088476
     6  H    0.064354
     7  H    0.049525
     8  H    0.056738
     9  H    0.067608
    10  H    0.082233
 Sum of Mulliken charges =   0.00000

 Dipole moment (field-independent basis, Debye):
    X=             -0.0430    Y=              0.0052    Z=              0.0378  Tot=              0.0575
 Quadrupole moment (field-independent basis, Debye-Ang):
   XX=            -23.4221   YY=            -23.1171   ZZ=            -29.1850
   XY=              0.2554   XZ=             -0.1463   YZ=              0.0317

 1\1\GINC-NODE14\SP\RB2PLYPD3-FC\def2QZVP\C4H6\BOITTIER\26-Aug-2020\0\\
 #p B2PLYPD3/Def2QZVP\\butadiene\\0,1\C,0,-3.837977,0.216224,0.040562\C
 ,0,-2.710337,-0.484915,0.005199\C,0,-1.386775,0.082182,-0.003119\C,0,-
 0.27832,-0.666482,0.055801\H,0,-4.802051,-0.256905,0.08325\H,0,-3.7989
 95,1.283515,0.011767\H,0,-2.745164,-1.582248,0.0479\H,0,-1.322969,1.15
 3503,-0.097138\H,0,-0.280046,-1.73948,0.054479\H,0,0.690678,-0.221,0.0
 44055\\Version=ES64L-G09RevD.01\State=1-A\HF=-155.7006153\MP2=-155.926
 051\RMSD=5.458e-09\PG=C01 [X(C4H6)]\\@

 Normal termination of Gaussian 09 at Wed Aug 26 20:22:32 2020.
