 Gaussian 09, Revision D.01,
 Gaussian 09:  ES64L-G09RevD.01 24-Apr-2013

 --------------------
 #p B2PLYPD3/Def2QZVP
 --------------------

 ---------
 butadiene
 ---------
 Symbolic Z-matrix:
 Charge =  0 Multiplicity = 1

                         Standard orientation:
 ---------------------------------------------------------------------
 Center     Atomic      Atomic             Coordinates (Angstroms)
 Number     Number       Type             X           Y           Z
 ---------------------------------------------------------------------
      1          6           0       -1.836792    0.101016    0.024951
      2          6           0       -0.627466   -0.420390   -0.080038
      3          6           0        0.588800    0.351587   -0.070687
      4          6           0        1.864636   -0.090343    0.058879
      5          1           0       -2.859402   -0.385293    0.253695
      6          1           0       -1.861572    1.316217    0.081447
      7          1           0       -0.550335   -1.482665   -0.002303
      8          1           0        0.466873    1.420599   -0.114729
      9          1           0        2.181239   -1.117797   -0.002684
     10          1           0        2.688134    0.597719    0.185943
 ---------------------------------------------------------------------

 SCF Done:  E(RB2PLYPD3) =  -155.679882932     A.U. after   12 cycles
 E2(B2PLYPD3) =    -0.2273653002D+00 E(B2PLYPD3) =    -0.15590724823192D+03

 The electronic state is 1-A.
 Alpha  occ. eigenvalues --  -10.63718 -10.62975 -10.62503 -10.61881  -0.93165
 Alpha  occ. eigenvalues --   -0.84653  -0.69896  -0.63864  -0.54687  -0.53239
 Alpha  occ. eigenvalues --   -0.47249  -0.43929  -0.40243  -0.38300  -0.27700
 Alpha virt. eigenvalues --    0.01253   0.06756   0.07352   0.07862   0.09565
 Alpha virt. eigenvalues --    0.11355   0.12446   0.14097   0.15718   0.16555
 Alpha virt. eigenvalues --    0.18789   0.20118   0.21220   0.22451   0.23589

 Mulliken charges:
               1
     1  C   -0.146798
     2  C   -0.033396
     3  C   -0.030595
     4  C   -0.178433
     5  H    0.090143
     6  H    0.032162
     7  H    0.060439
     8  H    0.056082
     9  H    0.069372
    10  H    0.081024
 Sum of Mulliken charges =   0.00000

 Dipole moment (field-independent basis, Debye):
    X=             -0.0122    Y=             -0.1077    Z=              0.2511  Tot=              0.2735
 Quadrupole moment (field-independent basis, Debye-Ang):
   XX=            -23.0747   YY=            -23.6583   ZZ=            -29.3295
   XY=              0.1323   XZ=             -0.4940   YZ=             -0.0266

 1\1\GINC-NODE20\SP\RB2PLYPD3-FC\def2QZVP\C4H6\BOITTIER\26-Aug-2020\0\\
 #p B2PLYPD3/Def2QZVP\\butadiene\\0,1\C,0,-3.838602,0.218417,0.058581\C
 ,0,-2.742239,-0.512357,-0.037925\C,0,-1.407779,0.030296,-0.046957\C,0,
 -0.230484,-0.629452,0.089264\H,0,-4.930238,-0.072979,0.299353\H,0,-3.6
 45981,1.419431,0.089907\H,0,-2.855326,-1.569576,0.061677\H,0,-1.337379
 ,1.10281,-0.112925\H,0,-0.102514,-1.697929,0.048409\H,0,0.703207,-0.09
 6923,0.200425\\Version=ES64L-G09RevD.01\State=1-A\HF=-155.6798829\MP2=
 -155.9072482\RMSD=5.155e-09\PG=C01 [X(C4H6)]\\@

 Normal termination of Gaussian 09 at Wed Aug 26 14:34:29 2020.
