 Gaussian 09, Revision D.01,
 Gaussian 09:  ES64L-G09RevD.01 24-Apr-2013

 --------------------
 #p B2PLYPD3/Def2QZVP
 --------------------

 ---------
 butadiene
 ---------
 Symbolic Z-matrix:
 Charge =  0 Multiplicity = 1

                         Standard orientation:
 ---------------------------------------------------------------------
 Center     Atomic      Atomic             Coordinates (Angstroms)
 Number     Number       Type             X           Y           Z
 ---------------------------------------------------------------------
      1          6           0       -1.835992    0.105677    0.015488
      2          6           0       -0.614600   -0.392549   -0.037881
      3          6           0        0.610190    0.426451   -0.053710
      4          6           0        1.836008   -0.117661    0.029052
      5          1           0       -2.681919   -0.575000    0.048849
      6          1           0       -1.995425    1.176084    0.125385
      7          1           0       -0.466184   -1.426805    0.035817
      8          1           0        0.505875    1.503601   -0.044390
      9          1           0        1.894154   -1.224386   -0.005465
     10          1           0        2.769866    0.415000    0.122113
 ---------------------------------------------------------------------

 SCF Done:  E(RB2PLYPD3) =  -155.697232364     A.U. after   11 cycles
 E2(B2PLYPD3) =    -0.2256442751D+00 E(B2PLYPD3) =    -0.15592287663871D+03

 The electronic state is 1-A.
 Alpha  occ. eigenvalues --  -10.62753 -10.62035 -10.61894 -10.61319  -0.92933
 Alpha  occ. eigenvalues --   -0.84984  -0.69640  -0.64479  -0.54565  -0.53893
 Alpha  occ. eigenvalues --   -0.46974  -0.45259  -0.41223  -0.37908  -0.27817
 Alpha virt. eigenvalues --    0.01949   0.07022   0.07439   0.08130   0.09346
 Alpha virt. eigenvalues --    0.11683   0.12535   0.14444   0.15757   0.16297
 Alpha virt. eigenvalues --    0.18756   0.20273   0.21433   0.23018   0.24166

 Mulliken charges:
               1
     1  C   -0.174543
     2  C   -0.031057
     3  C   -0.035644
     4  C   -0.172008
     5  H    0.083648
     6  H    0.068744
     7  H    0.060470
     8  H    0.055915
     9  H    0.055461
    10  H    0.089013
 Sum of Mulliken charges =   0.00000

 Dipole moment (field-independent basis, Debye):
    X=              0.0336    Y=             -0.0019    Z=              0.2014  Tot=              0.2042
 Quadrupole moment (field-independent basis, Debye-Ang):
   XX=            -23.5614   YY=            -23.1248   ZZ=            -29.2371
   XY=              0.0629   XZ=             -0.0519   YZ=              0.1086

 1\1\GINC-NODE18\SP\RB2PLYPD3-FC\def2QZVP\C4H6\BOITTIER\26-Aug-2020\0\\
 #p B2PLYPD3/Def2QZVP\\butadiene\\0,1\C,0,-3.840308,0.211887,0.040976\C
 ,0,-2.726372,-0.495604,0.002492\C,0,-1.376222,0.093326,-0.034617\C,0,-
 0.265507,-0.656392,0.064242\H,0,-4.793051,-0.307423,0.092184\H,0,-3.80
 7686,1.296208,0.121296\H,0,-2.762736,-1.537417,0.104695\H,0,-1.28855,1
 .171807,-0.054968\H,0,-0.403945,-1.756497,0.060172\H,0,0.748125,-0.294
 814,0.143558\\Version=ES64L-G09RevD.01\State=1-A\HF=-155.6972324\MP2=-
 155.9228766\RMSD=5.148e-09\PG=C01 [X(C4H6)]\\@

 Normal termination of Gaussian 09 at Wed Aug 26 09:24:08 2020.
