 Gaussian 09, Revision D.01,
 Gaussian 09:  ES64L-G09RevD.01 24-Apr-2013

 --------------------
 #p B2PLYPD3/Def2QZVP
 --------------------

 ---------
 butadiene
 ---------
 Symbolic Z-matrix:
 Charge =  0 Multiplicity = 1

                         Standard orientation:
 ---------------------------------------------------------------------
 Center     Atomic      Atomic             Coordinates (Angstroms)
 Number     Number       Type             X           Y           Z
 ---------------------------------------------------------------------
      1          6           0       -1.868955    0.092501   -0.075004
      2          6           0       -0.600406   -0.380750    0.149288
      3          6           0        0.638614    0.424030    0.069902
      4          6           0        1.845380   -0.128039   -0.075922
      5          1           0       -2.724432   -0.571824   -0.177288
      6          1           0       -2.179111    1.092443   -0.067122
      7          1           0       -0.446238   -1.377918   -0.045122
      8          1           0        0.555677    1.506110    0.042453
      9          1           0        2.076586   -1.189245   -0.043142
     10          1           0        2.629718    0.493977   -0.119366
 ---------------------------------------------------------------------

 SCF Done:  E(RB2PLYPD3) =  -155.682893239     A.U. after   12 cycles
 E2(B2PLYPD3) =    -0.2261854222D+00 E(B2PLYPD3) =    -0.15590907866117D+03

 The electronic state is 1-A.
 Alpha  occ. eigenvalues --  -10.62832 -10.62645 -10.61962 -10.60645  -0.92478
 Alpha  occ. eigenvalues --   -0.84883  -0.71159  -0.64792  -0.55217  -0.53693
 Alpha  occ. eigenvalues --   -0.46845  -0.46241  -0.41238  -0.37475  -0.27536
 Alpha virt. eigenvalues --    0.01201   0.07032   0.07667   0.08257   0.08919
 Alpha virt. eigenvalues --    0.11568   0.12609   0.14927   0.15512   0.16462
 Alpha virt. eigenvalues --    0.19214   0.19634   0.22149   0.23448   0.23720

 Mulliken charges:
               1
     1  C   -0.166962
     2  C   -0.048749
     3  C   -0.040127
     4  C   -0.172486
     5  H    0.073160
     6  H    0.069707
     7  H    0.075759
     8  H    0.057956
     9  H    0.067536
    10  H    0.084207
 Sum of Mulliken charges =   0.00000

 Dipole moment (field-independent basis, Debye):
    X=              0.0046    Y=              0.0659    Z=             -0.2179  Tot=              0.2277
 Quadrupole moment (field-independent basis, Debye-Ang):
   XX=            -23.0566   YY=            -23.1686   ZZ=            -29.1974
   XY=             -0.4910   XZ=              0.3510   YZ=              0.1644

 1\1\GINC-NODE17\SP\RB2PLYPD3-FC\def2QZVP\C4H6\BOITTIER\26-Aug-2020\0\\
 #p B2PLYPD3/Def2QZVP\\butadiene\\0,1\C,0,-3.875256,0.213231,-0.06777\C
 ,0,-2.714119,-0.479792,0.166684\C,0,-1.349584,0.086535,0.086297\C,0,-0
 .262315,-0.676276,-0.048962\H,0,-4.836581,-0.286124,-0.168417\H,0,-3.9
 99194,1.252835,-0.070012\H,0,-2.742497,-1.490167,-0.018365\H,0,-1.2350
 73,1.165438,0.049106\H,0,-0.227246,-1.761452,-0.00591\H,0,0.621845,-0.
 207011,-0.094013\\Version=ES64L-G09RevD.01\State=1-A\HF=-155.6828932\M
 P2=-155.9090787\RMSD=3.338e-09\PG=C01 [X(C4H6)]\\@

 Normal termination of Gaussian 09 at Wed Aug 26 15:27:38 2020.
