 Gaussian 09, Revision D.01,
 Gaussian 09:  ES64L-G09RevD.01 24-Apr-2013

 --------------------
 #p B2PLYPD3/Def2QZVP
 --------------------

 ---------
 butadiene
 ---------
 Symbolic Z-matrix:
 Charge =  0 Multiplicity = 1

                         Standard orientation:
 ---------------------------------------------------------------------
 Center     Atomic      Atomic             Coordinates (Angstroms)
 Number     Number       Type             X           Y           Z
 ---------------------------------------------------------------------
      1          6           0        1.835139    0.105850    0.022163
      2          6           0        0.606220   -0.391932   -0.024600
      3          6           0       -0.604011    0.409992   -0.022839
      4          6           0       -1.823770   -0.121519    0.005135
      5          1           0        2.697323   -0.566160   -0.026412
      6          1           0        1.987590    1.182280    0.076290
      7          1           0        0.447831   -1.444909   -0.007588
      8          1           0       -0.509907    1.508753   -0.044234
      9          1           0       -1.984453   -1.194747    0.072454
     10          1           0       -2.719850    0.500434    0.050332
 ---------------------------------------------------------------------

 SCF Done:  E(RB2PLYPD3) =  -155.700158253     A.U. after   11 cycles
 E2(B2PLYPD3) =    -0.2255849302D+00 E(B2PLYPD3) =    -0.15592574318344D+03

 The electronic state is 1-A.
 Alpha  occ. eigenvalues --  -10.62576 -10.62104 -10.61562 -10.61527  -0.93165
 Alpha  occ. eigenvalues --   -0.85003  -0.69831  -0.64085  -0.54441  -0.53939
 Alpha  occ. eigenvalues --   -0.46563  -0.45524  -0.41082  -0.38239  -0.27779
 Alpha virt. eigenvalues --    0.01907   0.06998   0.07373   0.08014   0.09634
 Alpha virt. eigenvalues --    0.11739   0.12352   0.14709   0.15771   0.16159
 Alpha virt. eigenvalues --    0.18738   0.20287   0.21585   0.22858   0.23925

 Mulliken charges:
               1
     1  C   -0.176616
     2  C   -0.030903
     3  C   -0.027603
     4  C   -0.174058
     5  H    0.086314
     6  H    0.068128
     7  H    0.057654
     8  H    0.051701
     9  H    0.063050
    10  H    0.082335
 Sum of Mulliken charges =   0.00000

 Dipole moment (field-independent basis, Debye):
    X=             -0.0343    Y=             -0.0180    Z=              0.0808  Tot=              0.0896
 Quadrupole moment (field-independent basis, Debye-Ang):
   XX=            -23.6695   YY=            -23.0377   ZZ=            -29.2433
   XY=              0.0803   XZ=             -0.2113   YZ=              0.0110

 1\1\GINC-NODE39\SP\RB2PLYPD3-FC\def2QZVP\C4H6\BOITTIER\26-Aug-2020\0\\
 #p B2PLYPD3/Def2QZVP\\butadiene\\0,1\C,0,-3.837272,0.216822,-0.002523\
 C,0,-2.717119,-0.491568,0.057953\C,0,-1.382893,0.080299,0.034437\C,0,-
 0.278148,-0.661631,0.021123\H,0,-4.805596,-0.288355,0.064282\H,0,-3.79
 4799,1.301301,-0.086034\H,0,-2.749891,-1.555958,0.069712\H,0,-1.278658
 ,1.178319,0.025817\H,0,-0.312529,-1.7477,-0.016853\H,0,0.714578,-0.211
 663,-0.040934\\Version=ES64L-G09RevD.01\State=1-A\HF=-155.7001583\MP2=
 -155.9257432\RMSD=2.602e-09\PG=C01 [X(C4H6)]\\@

 Normal termination of Gaussian 09 at Wed Aug 26 16:06:20 2020.
