 Gaussian 09, Revision D.01,
 Gaussian 09:  ES64L-G09RevD.01 24-Apr-2013

 --------------------
 #p B2PLYPD3/Def2QZVP
 --------------------

 ---------
 butadiene
 ---------
 Symbolic Z-matrix:
 Charge =  0 Multiplicity = 1

                         Standard orientation:
 ---------------------------------------------------------------------
 Center     Atomic      Atomic             Coordinates (Angstroms)
 Number     Number       Type             X           Y           Z
 ---------------------------------------------------------------------
      1          6           0        1.837080    0.069870   -0.014385
      2          6           0        0.600899   -0.391788    0.021267
      3          6           0       -0.578821    0.454987    0.005012
      4          6           0       -1.841676   -0.137406   -0.044415
      5          1           0        2.677756   -0.540628    0.106758
      6          1           0        1.896550    1.229553   -0.139510
      7          1           0        0.393415   -1.407556    0.079672
      8          1           0       -0.428578    1.467468    0.034178
      9          1           0       -1.916370   -1.194304   -0.145993
     10          1           0       -2.727661    0.471497    0.260024
 ---------------------------------------------------------------------

 SCF Done:  E(RB2PLYPD3) =  -155.679815602     A.U. after   12 cycles
 E2(B2PLYPD3) =    -0.2272238628D+00 E(B2PLYPD3) =    -0.15590703946488D+03

 The electronic state is 1-A.
 Alpha  occ. eigenvalues --  -10.62769 -10.62546 -10.61782 -10.61580  -0.93173
 Alpha  occ. eigenvalues --   -0.84218  -0.70095  -0.65347  -0.54938  -0.53162
 Alpha  occ. eigenvalues --   -0.47034  -0.45335  -0.41905  -0.37558  -0.27083
 Alpha virt. eigenvalues --    0.00995   0.06992   0.07374   0.08208   0.09161
 Alpha virt. eigenvalues --    0.11797   0.12457   0.14470   0.15677   0.16006
 Alpha virt. eigenvalues --    0.18528   0.20136   0.21059   0.23238   0.24229

 Mulliken charges:
               1
     1  C   -0.178262
     2  C   -0.020473
     3  C   -0.044281
     4  C   -0.185003
     5  H    0.096493
     6  H    0.051444
     7  H    0.056245
     8  H    0.069415
     9  H    0.071932
    10  H    0.082490
 Sum of Mulliken charges =   0.00000

 Dipole moment (field-independent basis, Debye):
    X=              0.0508    Y=             -0.0878    Z=              0.2209  Tot=              0.2431
 Quadrupole moment (field-independent basis, Debye-Ang):
   XX=            -24.1989   YY=            -23.0453   ZZ=            -29.2572
   XY=             -0.0404   XZ=             -0.4188   YZ=              0.0822

 1\1\GINC-NODE18\SP\RB2PLYPD3-FC\def2QZVP\C4H6\BOITTIER\26-Aug-2020\0\\
 #p B2PLYPD3/Def2QZVP\\butadiene\\0,1\C,0,-3.842475,0.194543,0.035797\C
 ,0,-2.713225,-0.488662,0.011968\C,0,-1.397226,0.12538,0.000547\C,0,-0.
 265306,-0.688679,0.065666\H,0,-4.782374,-0.253203,-0.06536\H,0,-3.6856
 44,1.348382,0.125894\H,0,-2.697508,-1.52655,-0.016051\H,0,-1.357938,1.
 146877,-0.058965\H,0,-0.386521,-1.737703,0.199032\H,0,0.715715,-0.2633
 92,-0.258595\\Version=ES64L-G09RevD.01\State=1-A\HF=-155.6798156\MP2=-
 155.9070395\RMSD=5.596e-09\PG=C01 [X(C4H6)]\\@

 Normal termination of Gaussian 09 at Wed Aug 26 15:36:42 2020.
