 Gaussian 09, Revision D.01,
 Gaussian 09:  ES64L-G09RevD.01 24-Apr-2013

 --------------------
 #p B2PLYPD3/Def2QZVP
 --------------------

 ---------
 butadiene
 ---------
 Symbolic Z-matrix:
 Charge =  0 Multiplicity = 1

                         Standard orientation:
 ---------------------------------------------------------------------
 Center     Atomic      Atomic             Coordinates (Angstroms)
 Number     Number       Type             X           Y           Z
 ---------------------------------------------------------------------
      1          6           0       -1.827814    0.116407    0.029572
      2          6           0       -0.605598   -0.420447   -0.019092
      3          6           0        0.595029    0.397340   -0.025552
      4          6           0        1.831806   -0.104950    0.021658
      5          1           0       -2.715040   -0.513181   -0.054808
      6          1           0       -1.931806    1.204348    0.075034
      7          1           0       -0.462961   -1.489521   -0.041232
      8          1           0        0.431478    1.463236   -0.075303
      9          1           0        2.064815   -1.146935    0.056115
     10          1           0        2.652983    0.551954    0.000681
 ---------------------------------------------------------------------

 SCF Done:  E(RB2PLYPD3) =  -155.699810572     A.U. after   11 cycles
 E2(B2PLYPD3) =    -0.2255733256D+00 E(B2PLYPD3) =    -0.15592538389757D+03

 The electronic state is 1-A.
 Alpha  occ. eigenvalues --  -10.62392 -10.62297 -10.61676 -10.60962  -0.93080
 Alpha  occ. eigenvalues --   -0.84896  -0.70207  -0.64299  -0.54646  -0.53975
 Alpha  occ. eigenvalues --   -0.46639  -0.45957  -0.41281  -0.38055  -0.27599
 Alpha virt. eigenvalues --    0.01802   0.07040   0.07398   0.08135   0.09522
 Alpha virt. eigenvalues --    0.11765   0.12415   0.14851   0.15828   0.16075
 Alpha virt. eigenvalues --    0.18739   0.20446   0.21630   0.22853   0.24055

 Mulliken charges:
               1
     1  C   -0.176236
     2  C   -0.030670
     3  C   -0.030071
     4  C   -0.180183
     5  H    0.086604
     6  H    0.064603
     7  H    0.057838
     8  H    0.055459
     9  H    0.069341
    10  H    0.083314
 Sum of Mulliken charges =   0.00000

 Dipole moment (field-independent basis, Debye):
    X=              0.0254    Y=             -0.0255    Z=             -0.0660  Tot=              0.0752
 Quadrupole moment (field-independent basis, Debye-Ang):
   XX=            -23.6843   YY=            -22.9664   ZZ=            -29.2293
   XY=             -0.2383   XZ=              0.1418   YZ=              0.0232

 1\1\GINC-NODE24\SP\RB2PLYPD3-FC\def2QZVP\C4H6\BOITTIER\26-Aug-2020\0\\
 #p B2PLYPD3/Def2QZVP\\butadiene\\0,1\C,0,-3.826535,0.236005,0.044474\C
 ,0,-2.723465,-0.516799,0.014227\C,0,-1.393353,0.066708,-0.011144\C,0,-
 0.269433,-0.652153,0.053539\H,0,-4.814264,-0.222479,-0.025203\H,0,-3.7
 29355,1.325418,0.059695\H,0,-2.779148,-1.594108,0.021915\H,0,-1.358963
 ,1.142743,-0.09067\H,0,-0.231192,-1.717837,0.117327\H,0,0.658147,-0.15
 7632,0.016952\\Version=ES64L-G09RevD.01\State=1-A\HF=-155.6998106\MP2=
 -155.9253839\RMSD=3.935e-09\PG=C01 [X(C4H6)]\\@

 Normal termination of Gaussian 09 at Wed Aug 26 13:40:25 2020.
