 Gaussian 09, Revision D.01,
 Gaussian 09:  ES64L-G09RevD.01 24-Apr-2013

 --------------------
 #p B2PLYPD3/Def2QZVP
 --------------------

 ---------
 butadiene
 ---------
 Symbolic Z-matrix:
 Charge =  0 Multiplicity = 1

                         Standard orientation:
 ---------------------------------------------------------------------
 Center     Atomic      Atomic             Coordinates (Angstroms)
 Number     Number       Type             X           Y           Z
 ---------------------------------------------------------------------
      1          6           0        1.834511    0.097662   -0.004342
      2          6           0        0.590082   -0.384299   -0.002633
      3          6           0       -0.606896    0.414937    0.016997
      4          6           0       -1.829091   -0.120235   -0.014294
      5          1           0        2.677694   -0.558515   -0.011039
      6          1           0        2.031985    1.148170   -0.069716
      7          1           0        0.465856   -1.439002    0.099498
      8          1           0       -0.428598    1.477828    0.064686
      9          1           0       -1.960898   -1.184290   -0.055941
     10          1           0       -2.717673    0.507416   -0.001853
 ---------------------------------------------------------------------

 SCF Done:  E(RB2PLYPD3) =  -155.700465445     A.U. after   11 cycles
 E2(B2PLYPD3) =    -0.2254191388D+00 E(B2PLYPD3) =    -0.15592588458333D+03

 The electronic state is 1-A.
 Alpha  occ. eigenvalues --  -10.62335 -10.61975 -10.61553 -10.61102  -0.93325
 Alpha  occ. eigenvalues --   -0.84954  -0.70456  -0.64464  -0.54671  -0.54178
 Alpha  occ. eigenvalues --   -0.46846  -0.45852  -0.41338  -0.38201  -0.27597
 Alpha virt. eigenvalues --    0.01692   0.07050   0.07483   0.08127   0.09638
 Alpha virt. eigenvalues --    0.11759   0.12462   0.14883   0.15729   0.16124
 Alpha virt. eigenvalues --    0.18701   0.20286   0.21888   0.22833   0.24050

 Mulliken charges:
               1
     1  C   -0.183908
     2  C   -0.021325
     3  C   -0.035324
     4  C   -0.175306
     5  H    0.084688
     6  H    0.063960
     7  H    0.055325
     8  H    0.056447
     9  H    0.069745
    10  H    0.085699
 Sum of Mulliken charges =   0.00000

 Dipole moment (field-independent basis, Debye):
    X=             -0.0171    Y=             -0.0046    Z=              0.0258  Tot=              0.0313
 Quadrupole moment (field-independent basis, Debye-Ang):
   XX=            -23.5365   YY=            -23.0928   ZZ=            -29.1665
   XY=              0.2028   XZ=             -0.0274   YZ=             -0.0554

 1\1\GINC-NODE39\SP\RB2PLYPD3-FC\def2QZVP\C4H6\BOITTIER\26-Aug-2020\0\\
 #p B2PLYPD3/Def2QZVP\\butadiene\\0,1\C,0,-3.839378,0.216232,0.023028\C
 ,0,-2.704153,-0.485197,0.035504\C,0,-1.381218,0.080738,-0.002971\C,0,-
 0.277478,-0.668073,0.043832\H,0,-4.78836,-0.274179,0.0454\H,0,-3.84109
 1,1.286459,0.061064\H,0,-2.77534,-1.547082,-0.039274\H,0,-1.362186,1.1
 56736,-0.078251\H,0,-0.342449,-1.736862,0.113035\H,0,0.710898,-0.21415
 1,0.016516\\Version=ES64L-G09RevD.01\State=1-A\HF=-155.7004654\MP2=-15
 5.9258846\RMSD=4.328e-09\PG=C01 [X(C4H6)]\\@

 Normal termination of Gaussian 09 at Wed Aug 26 18:42:38 2020.
