 Gaussian 09, Revision D.01,
 Gaussian 09:  ES64L-G09RevD.01 24-Apr-2013

 --------------------
 #p B2PLYPD3/Def2QZVP
 --------------------

 ---------
 butadiene
 ---------
 Symbolic Z-matrix:
 Charge =  0 Multiplicity = 1

                         Standard orientation:
 ---------------------------------------------------------------------
 Center     Atomic      Atomic             Coordinates (Angstroms)
 Number     Number       Type             X           Y           Z
 ---------------------------------------------------------------------
      1          6           0        1.842441    0.120722   -0.031519
      2          6           0        0.619846   -0.404318    0.011038
      3          6           0       -0.597839    0.382635    0.057639
      4          6           0       -1.857530   -0.111282   -0.027621
      5          1           0        2.734677   -0.542764   -0.006914
      6          1           0        1.998196    1.202652    0.020715
      7          1           0        0.477083   -1.516399    0.030991
      8          1           0       -0.494505    1.478951   -0.044580
      9          1           0       -2.105815   -1.133386   -0.009700
     10          1           0       -2.651139    0.584404   -0.047732
 ---------------------------------------------------------------------

 SCF Done:  E(RB2PLYPD3) =  -155.695463372     A.U. after   11 cycles
 E2(B2PLYPD3) =    -0.2264598144D+00 E(B2PLYPD3) =    -0.15592192318645D+03

 The electronic state is 1-A.
 Alpha  occ. eigenvalues --  -10.62979 -10.62898 -10.62007 -10.61246  -0.92740
 Alpha  occ. eigenvalues --   -0.84827  -0.70346  -0.63501  -0.54168  -0.54129
 Alpha  occ. eigenvalues --   -0.46343  -0.45772  -0.40912  -0.38039  -0.27576
 Alpha virt. eigenvalues --    0.01411   0.06981   0.07335   0.07940   0.09508
 Alpha virt. eigenvalues --    0.11643   0.12323   0.14864   0.15583   0.16143
 Alpha virt. eigenvalues --    0.18762   0.19951   0.21897   0.22702   0.24022

 Mulliken charges:
               1
     1  C   -0.171186
     2  C   -0.029698
     3  C   -0.029856
     4  C   -0.180322
     5  H    0.084533
     6  H    0.068679
     7  H    0.050462
     8  H    0.051550
     9  H    0.072037
    10  H    0.083802
 Sum of Mulliken charges =   0.00000

 Dipole moment (field-independent basis, Debye):
    X=             -0.0178    Y=             -0.0185    Z=              0.0017  Tot=              0.0257
 Quadrupole moment (field-independent basis, Debye-Ang):
   XX=            -23.5531   YY=            -23.0461   ZZ=            -29.3747
   XY=              0.2265   XZ=              0.2712   YZ=             -0.1120

 1\1\GINC-NODE12\SP\RB2PLYPD3-FC\def2QZVP\C4H6\BOITTIER\26-Aug-2020\0\\
 #p B2PLYPD3/Def2QZVP\\butadiene\\0,1\C,0,-3.841936,0.235509,0.048308\C
 ,0,-2.73318,-0.50076,0.020304\C,0,-1.394199,0.054292,-0.03689\C,0,-0.2
 43394,-0.655515,0.062439\H,0,-4.838601,-0.25778,0.03314\H,0,-3.801325,
 1.326612,-0.025211\H,0,-2.791962,-1.620601,0.02218\H,0,-1.299466,1.153
 168,0.043931\H,0,-0.182242,-1.705714,0.06501\H,0,0.662008,-0.112974,0.
 072134\\Version=ES64L-G09RevD.01\State=1-A\HF=-155.6954634\MP2=-155.92
 19232\RMSD=7.804e-09\PG=C01 [X(C4H6)]\\@

 Normal termination of Gaussian 09 at Wed Aug 26 08:37:23 2020.
