 Gaussian 09, Revision D.01,
 Gaussian 09:  ES64L-G09RevD.01 24-Apr-2013

 --------------------
 #p B2PLYPD3/Def2QZVP
 --------------------

 ---------
 butadiene
 ---------
 Symbolic Z-matrix:
 Charge =  0 Multiplicity = 1

                         Standard orientation:
 ---------------------------------------------------------------------
 Center     Atomic      Atomic             Coordinates (Angstroms)
 Number     Number       Type             X           Y           Z
 ---------------------------------------------------------------------
      1          6           0        1.843916    0.098181    0.019861
      2          6           0        0.616030   -0.368970   -0.028849
      3          6           0       -0.618094    0.416028   -0.061326
      4          6           0       -1.826044   -0.146018    0.012378
      5          1           0        2.664071   -0.565177    0.083016
      6          1           0        1.985513    1.153548    0.049981
      7          1           0        0.489965   -1.434743   -0.019284
      8          1           0       -0.538078    1.527570    0.034022
      9          1           0       -1.980746   -1.192527    0.061547
     10          1           0       -2.715573    0.516011    0.138332
 ---------------------------------------------------------------------

 SCF Done:  E(RB2PLYPD3) =  -155.696861087     A.U. after   11 cycles
 E2(B2PLYPD3) =    -0.2252705212D+00 E(B2PLYPD3) =    -0.15592213160806D+03

 The electronic state is 1-A.
 Alpha  occ. eigenvalues --  -10.62947 -10.61958 -10.61705 -10.60589  -0.93063
 Alpha  occ. eigenvalues --   -0.85405  -0.69924  -0.63949  -0.55006  -0.53887
 Alpha  occ. eigenvalues --   -0.46837  -0.45513  -0.40888  -0.38174  -0.27980
 Alpha virt. eigenvalues --    0.01997   0.06989   0.07416   0.07999   0.09676
 Alpha virt. eigenvalues --    0.11771   0.12368   0.14786   0.15698   0.16177
 Alpha virt. eigenvalues --    0.18775   0.20175   0.21649   0.22986   0.24112

 Mulliken charges:
               1
     1  C   -0.179988
     2  C   -0.021327
     3  C   -0.033152
     4  C   -0.172747
     5  H    0.090223
     6  H    0.065165
     7  H    0.048916
     8  H    0.051631
     9  H    0.072655
    10  H    0.078622
 Sum of Mulliken charges =   0.00000

 Dipole moment (field-independent basis, Debye):
    X=             -0.0368    Y=             -0.0494    Z=              0.2557  Tot=              0.2630
 Quadrupole moment (field-independent basis, Debye-Ang):
   XX=            -23.7262   YY=            -23.0101   ZZ=            -29.1572
   XY=              0.0136   XZ=             -0.2401   YZ=              0.0927

 1\1\GINC-NODE13\SP\RB2PLYPD3-FC\def2QZVP\C4H6\BOITTIER\26-Aug-2020\0\\
 #p B2PLYPD3/Def2QZVP\\butadiene\\0,1\C,0,-3.849332,0.202104,-0.004727\
 C,0,-2.721224,-0.469878,0.059446\C,0,-1.369136,0.088836,0.06531\C,0,-0
 .277912,-0.677114,0.01033\H,0,-4.772791,-0.310004,-0.04541\H,0,-3.8052
 61,1.264422,-0.070276\H,0,-2.78264,-1.541043,0.085685\H,0,-1.25504,1.1
 93557,-0.067329\H,0,-0.308014,-1.735617,-0.003665\H,0,0.712491,-0.1846
 48,-0.137955\\Version=ES64L-G09RevD.01\State=1-A\HF=-155.6968611\MP2=-
 155.9221316\RMSD=5.669e-09\PG=C01 [X(C4H6)]\\@

 Normal termination of Gaussian 09 at Wed Aug 26 09:02:41 2020.
