 Gaussian 09, Revision D.01,
 Gaussian 09:  ES64L-G09RevD.01 24-Apr-2013

 --------------------
 #p B2PLYPD3/Def2QZVP
 --------------------

 ---------
 butadiene
 ---------
 Symbolic Z-matrix:
 Charge =  0 Multiplicity = 1

                         Standard orientation:
 ---------------------------------------------------------------------
 Center     Atomic      Atomic             Coordinates (Angstroms)
 Number     Number       Type             X           Y           Z
 ---------------------------------------------------------------------
      1          6           0        1.834691   -0.109227   -0.001895
      2          6           0        0.602970    0.385284   -0.022085
      3          6           0       -0.605707   -0.380717   -0.021230
      4          6           0       -1.854696    0.097014    0.027012
      5          1           0        2.715307    0.536372    0.172221
      6          1           0        2.025412   -1.189042    0.019398
      7          1           0        0.523416    1.513091   -0.104586
      8          1           0       -0.421662   -1.451203   -0.038978
      9          1           0       -2.032123    1.176151    0.029696
     10          1           0       -2.673898   -0.539493    0.031439
 ---------------------------------------------------------------------

 SCF Done:  E(RB2PLYPD3) =  -155.695341834     A.U. after   11 cycles
 E2(B2PLYPD3) =    -0.2260727770D+00 E(B2PLYPD3) =    -0.15592141461146D+03

 The electronic state is 1-A.
 Alpha  occ. eigenvalues --  -10.62740 -10.62496 -10.61874 -10.61368  -0.93254
 Alpha  occ. eigenvalues --   -0.85072  -0.70680  -0.63340  -0.55040  -0.53677
 Alpha  occ. eigenvalues --   -0.46949  -0.45346  -0.40858  -0.38204  -0.27698
 Alpha virt. eigenvalues --    0.01403   0.06988   0.07313   0.07967   0.09891
 Alpha virt. eigenvalues --    0.11633   0.12406   0.14714   0.15622   0.16255
 Alpha virt. eigenvalues --    0.18838   0.19956   0.21959   0.22591   0.23663

 Mulliken charges:
               1
     1  C   -0.171425
     2  C   -0.015563
     3  C   -0.033920
     4  C   -0.176692
     5  H    0.083659
     6  H    0.058712
     7  H    0.045174
     8  H    0.049137
     9  H    0.067462
    10  H    0.093456
 Sum of Mulliken charges =   0.00000

 Dipole moment (field-independent basis, Debye):
    X=             -0.0087    Y=             -0.0316    Z=              0.0731  Tot=              0.0801
 Quadrupole moment (field-independent basis, Debye-Ang):
   XX=            -23.3918   YY=            -23.2923   ZZ=            -29.2228
   XY=             -0.1073   XZ=              0.3710   YZ=              0.0241

 1\1\GINC-NODE34\SP\RB2PLYPD3-FC\def2QZVP\C4H6\BOITTIER\26-Aug-2020\0\\
 #p B2PLYPD3/Def2QZVP\\butadiene\\0,1\C,0,-3.839172,0.225112,0.023633\C
 ,0,-2.717866,-0.485308,0.015798\C,0,-1.390208,0.048096,-0.005728\C,0,-
 0.248461,-0.647125,0.054362\H,0,-4.82131,-0.244829,0.216401\H,0,-3.830
 516,1.321782,0.015347\H,0,-2.844922,-1.610604,-0.035662\H,0,-1.376917,
 1.133331,-0.05279\H,0,-0.269921,-1.740067,0.086611\H,0,0.672712,-0.170
 157,0.040384\\Version=ES64L-G09RevD.01\State=1-A\HF=-155.6953418\MP2=-
 155.9214146\RMSD=5.647e-09\PG=C01 [X(C4H6)]\\@

 Normal termination of Gaussian 09 at Wed Aug 26 09:24:10 2020.
