 Gaussian 09, Revision D.01,
 Gaussian 09:  ES64L-G09RevD.01 24-Apr-2013

 --------------------
 #p B2PLYPD3/Def2QZVP
 --------------------

 ---------
 butadiene
 ---------
 Symbolic Z-matrix:
 Charge =  0 Multiplicity = 1

                         Standard orientation:
 ---------------------------------------------------------------------
 Center     Atomic      Atomic             Coordinates (Angstroms)
 Number     Number       Type             X           Y           Z
 ---------------------------------------------------------------------
      1          6           0       -1.864880   -0.127601   -0.073037
      2          6           0       -0.648063    0.435731    0.028111
      3          6           0        0.614043   -0.369083    0.111216
      4          6           0        1.893605    0.079223   -0.044133
      5          1           0       -2.691047    0.448653   -0.095734
      6          1           0       -1.920486   -1.197694    0.032500
      7          1           0       -0.506962    1.495021    0.177899
      8          1           0        0.284874   -1.406943    0.039534
      9          1           0        2.108082    1.121480   -0.091229
     10          1           0        2.757312   -0.570138   -0.195921
 ---------------------------------------------------------------------

 SCF Done:  E(RB2PLYPD3) =  -155.684629500     A.U. after   11 cycles
 E2(B2PLYPD3) =    -0.2268138057D+00 E(B2PLYPD3) =    -0.15591144330571D+03

 The electronic state is 1-A.
 Alpha  occ. eigenvalues --  -10.63484 -10.62989 -10.62309 -10.61055  -0.92226
 Alpha  occ. eigenvalues --   -0.84739  -0.70940  -0.64130  -0.55618  -0.52817
 Alpha  occ. eigenvalues --   -0.47746  -0.46472  -0.40348  -0.37135  -0.27718
 Alpha virt. eigenvalues --    0.01209   0.07034   0.07486   0.08284   0.08986
 Alpha virt. eigenvalues --    0.11600   0.12567   0.14617   0.15314   0.16463
 Alpha virt. eigenvalues --    0.19044   0.19621   0.21753   0.23119   0.23978

 Mulliken charges:
               1
     1  C   -0.182695
     2  C   -0.028206
     3  C   -0.042215
     4  C   -0.171161
     5  H    0.094442
     6  H    0.064782
     7  H    0.055437
     8  H    0.051937
     9  H    0.069590
    10  H    0.088089
 Sum of Mulliken charges =   0.00000

 Dipole moment (field-independent basis, Debye):
    X=             -0.0555    Y=              0.0905    Z=             -0.0312  Tot=              0.1106
 Quadrupole moment (field-independent basis, Debye-Ang):
   XX=            -23.1046   YY=            -23.4708   ZZ=            -29.3062
   XY=              0.3610   XZ=             -0.7257   YZ=              0.1243

 1\1\GINC-NODE22\SP\RB2PLYPD3-FC\def2QZVP\C4H6\BOITTIER\26-Aug-2020\0\\
 #p B2PLYPD3/Def2QZVP\\butadiene\\0,1\C,0,-3.862575,0.24905,0.084707\C,
 0,-2.76677,-0.525444,-0.002406\C,0,-1.379726,0.037722,-0.082994\C,0,-0
 .202953,-0.632418,0.085848\H,0,-4.779257,-0.168524,0.106187\H,0,-3.723
 618,1.310532,-0.030515\H,0,-2.818199,-1.594241,-0.141942\H,0,-1.516687
 ,1.118583,-0.022786\H,0,-0.180285,-1.695748,0.143586\H,0,0.762824,-0.1
 47985,0.23849\\Version=ES64L-G09RevD.01\State=1-A\HF=-155.6846295\MP2=
 -155.9114433\RMSD=7.383e-09\PG=C01 [X(C4H6)]\\@

 Normal termination of Gaussian 09 at Wed Aug 26 16:08:18 2020.
