 Gaussian 09, Revision D.01,
 Gaussian 09:  ES64L-G09RevD.01 24-Apr-2013

 --------------------
 #p B2PLYPD3/Def2QZVP
 --------------------

 ---------
 butadiene
 ---------
 Symbolic Z-matrix:
 Charge =  0 Multiplicity = 1

                         Standard orientation:
 ---------------------------------------------------------------------
 Center     Atomic      Atomic             Coordinates (Angstroms)
 Number     Number       Type             X           Y           Z
 ---------------------------------------------------------------------
      1          6           0        1.841252    0.089417    0.038918
      2          6           0        0.589026   -0.393296   -0.034383
      3          6           0       -0.599034    0.432852   -0.011384
      4          6           0       -1.825320   -0.127779    0.014713
      5          1           0        2.669164   -0.534327    0.028678
      6          1           0        2.049734    1.160218   -0.023688
      7          1           0        0.356185   -1.480560   -0.045617
      8          1           0       -0.508809    1.513580   -0.098814
      9          1           0       -1.945363   -1.216966   -0.007262
     10          1           0       -2.656460    0.550892    0.099517
 ---------------------------------------------------------------------

 SCF Done:  E(RB2PLYPD3) =  -155.695277541     A.U. after   11 cycles
 E2(B2PLYPD3) =    -0.2264901856D+00 E(B2PLYPD3) =    -0.15592176772690D+03

 The electronic state is 1-A.
 Alpha  occ. eigenvalues --  -10.62883 -10.62537 -10.61754 -10.61199  -0.92943
 Alpha  occ. eigenvalues --   -0.84651  -0.70309  -0.63832  -0.54709  -0.53689
 Alpha  occ. eigenvalues --   -0.46228  -0.45890  -0.41558  -0.37893  -0.27354
 Alpha virt. eigenvalues --    0.01549   0.07085   0.07204   0.08115   0.09329
 Alpha virt. eigenvalues --    0.11734   0.12363   0.14800   0.15578   0.16236
 Alpha virt. eigenvalues --    0.18704   0.20031   0.21807   0.23160   0.23882

 Mulliken charges:
               1
     1  C   -0.176321
     2  C   -0.031130
     3  C   -0.024936
     4  C   -0.183880
     5  H    0.087165
     6  H    0.064805
     7  H    0.049018
     8  H    0.058123
     9  H    0.070808
    10  H    0.086348
 Sum of Mulliken charges =   0.00000

 Dipole moment (field-independent basis, Debye):
    X=             -0.0238    Y=              0.0347    Z=             -0.0789  Tot=              0.0894
 Quadrupole moment (field-independent basis, Debye-Ang):
   XX=            -23.8491   YY=            -22.9108   ZZ=            -29.3424
   XY=              0.2057   XZ=             -0.2027   YZ=             -0.0520

 1\1\GINC-NODE38\SP\RB2PLYPD3-FC\def2QZVP\C4H6\BOITTIER\26-Aug-2020\0\\
 #p B2PLYPD3/Def2QZVP\\butadiene\\0,1\C,0,-3.844523,0.213767,-0.015429\
 C,0,-2.70337,-0.491306,0.068816\C,0,-1.38272,0.099249,0.02802\C,0,-0.2
 81895,-0.679704,0.014594\H,0,-4.773768,-0.245081,0.00827\H,0,-3.850412
 ,1.305757,0.023585\H,0,-2.67632,-1.602393,0.103993\H,0,-1.270471,1.179
 576,0.091668\H,0,-0.365998,-1.77151,0.060519\H,0,0.660434,-0.16911,-0.
 084856\\Version=ES64L-G09RevD.01\State=1-A\HF=-155.6952775\MP2=-155.92
 17677\RMSD=6.015e-09\PG=C01 [X(C4H6)]\\@

 Normal termination of Gaussian 09 at Wed Aug 26 09:19:12 2020.
