 Gaussian 09, Revision D.01,
 Gaussian 09:  ES64L-G09RevD.01 24-Apr-2013

 --------------------
 #p B2PLYPD3/Def2QZVP
 --------------------

 ---------
 butadiene
 ---------
 Symbolic Z-matrix:
 Charge =  0 Multiplicity = 1

                         Standard orientation:
 ---------------------------------------------------------------------
 Center     Atomic      Atomic             Coordinates (Angstroms)
 Number     Number       Type             X           Y           Z
 ---------------------------------------------------------------------
      1          6           0        1.850415    0.086315    0.053339
      2          6           0        0.604863   -0.389557   -0.049512
      3          6           0       -0.606681    0.447823   -0.056248
      4          6           0       -1.827510   -0.127562    0.035511
      5          1           0        2.708909   -0.538366   -0.025399
      6          1           0        2.003328    1.135682    0.068914
      7          1           0        0.439277   -1.432167   -0.007623
      8          1           0       -0.503230    1.509719   -0.057526
      9          1           0       -2.028563   -1.219002    0.021345
     10          1           0       -2.746241    0.442017    0.101750
 ---------------------------------------------------------------------

 SCF Done:  E(RB2PLYPD3) =  -155.696293830     A.U. after   11 cycles
 E2(B2PLYPD3) =    -0.2259510285D+00 E(B2PLYPD3) =    -0.15592224485852D+03

 The electronic state is 1-A.
 Alpha  occ. eigenvalues --  -10.62993 -10.62311 -10.62195 -10.60927  -0.92678
 Alpha  occ. eigenvalues --   -0.84652  -0.70132  -0.64798  -0.54777  -0.53727
 Alpha  occ. eigenvalues --   -0.47066  -0.45367  -0.41402  -0.37722  -0.27542
 Alpha virt. eigenvalues --    0.01630   0.07013   0.07472   0.08204   0.09184
 Alpha virt. eigenvalues --    0.11663   0.12584   0.14603   0.15776   0.16383
 Alpha virt. eigenvalues --    0.18948   0.20025   0.21914   0.23249   0.23583

 Mulliken charges:
               1
     1  C   -0.176317
     2  C   -0.029277
     3  C   -0.047379
     4  C   -0.167160
     5  H    0.085924
     6  H    0.061734
     7  H    0.064181
     8  H    0.066514
     9  H    0.063908
    10  H    0.077873
 Sum of Mulliken charges =   0.00000

 Dipole moment (field-independent basis, Debye):
    X=             -0.0956    Y=              0.0020    Z=              0.0103  Tot=              0.0961
 Quadrupole moment (field-independent basis, Debye-Ang):
   XX=            -23.3861   YY=            -23.0634   ZZ=            -29.3014
   XY=              0.2919   XZ=             -0.2825   YZ=              0.0624

 1\1\GINC-NODE24\SP\RB2PLYPD3-FC\def2QZVP\C4H6\BOITTIER\26-Aug-2020\0\\
 #p B2PLYPD3/Def2QZVP\\butadiene\\0,1\C,0,-3.854552,0.202966,-0.032133\
 C,0,-2.715693,-0.488591,0.082681\C,0,-1.372171,0.114582,0.067837\C,0,-
 0.276632,-0.675195,-0.009349\H,0,-4.811854,-0.253129,0.06267\H,0,-3.81
 4366,1.261921,-0.074512\H,0,-2.742464,-1.54465,0.067441\H,0,-1.28099,1
 .177288,0.041977\H,0,-0.277129,-1.784292,0.032692\H,0,0.729955,-0.2839
 ,-0.090256\\Version=ES64L-G09RevD.01\State=1-A\HF=-155.6962938\MP2=-15
 5.9222449\RMSD=6.220e-09\PG=C01 [X(C4H6)]\\@

 Normal termination of Gaussian 09 at Wed Aug 26 10:59:18 2020.
