 Gaussian 09, Revision D.01,
 Gaussian 09:  ES64L-G09RevD.01 24-Apr-2013

 --------------------
 #p B2PLYPD3/Def2QZVP
 --------------------

 ---------
 butadiene
 ---------
 Symbolic Z-matrix:
 Charge =  0 Multiplicity = 1

                         Standard orientation:
 ---------------------------------------------------------------------
 Center     Atomic      Atomic             Coordinates (Angstroms)
 Number     Number       Type             X           Y           Z
 ---------------------------------------------------------------------
      1          6           0        1.848412    0.102677   -0.001858
      2          6           0        0.607746   -0.390226   -0.015293
      3          6           0       -0.604979    0.412266    0.004987
      4          6           0       -1.842805   -0.114468    0.000108
      5          1           0        2.715572   -0.553390    0.000830
      6          1           0        2.053174    1.149137    0.068645
      7          1           0        0.442400   -1.450056   -0.004323
      8          1           0       -0.492226    1.503640   -0.031873
      9          1           0       -1.998149   -1.202873    0.060715
     10          1           0       -2.771015    0.492044   -0.021657
 ---------------------------------------------------------------------

 SCF Done:  E(RB2PLYPD3) =  -155.699437952     A.U. after   11 cycles
 E2(B2PLYPD3) =    -0.2261159397D+00 E(B2PLYPD3) =    -0.15592555389224D+03

 The electronic state is 1-A.
 Alpha  occ. eigenvalues --  -10.62889 -10.62502 -10.62224 -10.61481  -0.92859
 Alpha  occ. eigenvalues --   -0.84675  -0.70104  -0.64107  -0.54457  -0.53726
 Alpha  occ. eigenvalues --   -0.46774  -0.45384  -0.41009  -0.38067  -0.27631
 Alpha virt. eigenvalues --    0.01565   0.06963   0.07409   0.08017   0.09527
 Alpha virt. eigenvalues --    0.11618   0.12428   0.14649   0.15843   0.16177
 Alpha virt. eigenvalues --    0.18835   0.20495   0.21649   0.22799   0.23517

 Mulliken charges:
               1
     1  C   -0.174577
     2  C   -0.030936
     3  C   -0.032289
     4  C   -0.172287
     5  H    0.083409
     6  H    0.068748
     7  H    0.057737
     8  H    0.055201
     9  H    0.061155
    10  H    0.083838
 Sum of Mulliken charges =   0.00000

 Dipole moment (field-independent basis, Debye):
    X=             -0.0062    Y=              0.0023    Z=              0.0646  Tot=              0.0649
 Quadrupole moment (field-independent basis, Debye-Ang):
   XX=            -23.3348   YY=            -23.1914   ZZ=            -29.3462
   XY=              0.2281   XZ=              0.1275   YZ=             -0.0493

 1\1\GINC-NODE28\SP\RB2PLYPD3-FC\def2QZVP\C4H6\BOITTIER\26-Aug-2020\0\\
 #p B2PLYPD3/Def2QZVP\\butadiene\\0,1\C,0,-3.851046,0.218084,0.017939\C
 ,0,-2.719521,-0.489864,0.047041\C,0,-1.382053,0.080144,0.009949\C,0,-0
 .259435,-0.660773,0.031337\H,0,-4.82226,-0.270804,0.029336\H,0,-3.8639
 66,1.282207,-0.079278\H,0,-2.747934,-1.562075,0.06304\H,0,-1.296174,1.
 174543,0.019184\H,0,-0.302929,-1.760525,-0.001597\H,0,0.762933,-0.2311
 38,0.040415\\Version=ES64L-G09RevD.01\State=1-A\HF=-155.699438\MP2=-15
 5.9255539\RMSD=2.757e-09\PG=C01 [X(C4H6)]\\@

 Normal termination of Gaussian 09 at Wed Aug 26 21:25:26 2020.
