 Gaussian 09, Revision D.01,
 Gaussian 09:  ES64L-G09RevD.01 24-Apr-2013

 --------------------
 #p B2PLYPD3/Def2QZVP
 --------------------

 ---------
 butadiene
 ---------
 Symbolic Z-matrix:
 Charge =  0 Multiplicity = 1

                         Standard orientation:
 ---------------------------------------------------------------------
 Center     Atomic      Atomic             Coordinates (Angstroms)
 Number     Number       Type             X           Y           Z
 ---------------------------------------------------------------------
      1          6           0        1.845176    0.092720    0.024852
      2          6           0        0.609123   -0.394897   -0.022911
      3          6           0       -0.607746    0.442548   -0.009345
      4          6           0       -1.829158   -0.137524   -0.003363
      5          1           0        2.687194   -0.540577   -0.034976
      6          1           0        1.951639    1.183302    0.100196
      7          1           0        0.433777   -1.476586   -0.061628
      8          1           0       -0.469365    1.495897   -0.113044
      9          1           0       -2.001737   -1.179523    0.114610
     10          1           0       -2.705880    0.500411    0.059445
 ---------------------------------------------------------------------

 SCF Done:  E(RB2PLYPD3) =  -155.697042329     A.U. after   11 cycles
 E2(B2PLYPD3) =    -0.2259561952D+00 E(B2PLYPD3) =    -0.15592299852413D+03

 The electronic state is 1-A.
 Alpha  occ. eigenvalues --  -10.62883 -10.62499 -10.61636 -10.61164  -0.92667
 Alpha  occ. eigenvalues --   -0.84811  -0.69977  -0.64257  -0.54752  -0.53605
 Alpha  occ. eigenvalues --   -0.47348  -0.45311  -0.41130  -0.37744  -0.27669
 Alpha virt. eigenvalues --    0.01809   0.07070   0.07373   0.08137   0.09173
 Alpha virt. eigenvalues --    0.11763   0.12429   0.14720   0.15616   0.16207
 Alpha virt. eigenvalues --    0.18667   0.20001   0.21841   0.23330   0.23851

 Mulliken charges:
               1
     1  C   -0.181936
     2  C   -0.023508
     3  C   -0.045061
     4  C   -0.173240
     5  H    0.093293
     6  H    0.061885
     7  H    0.051862
     8  H    0.066033
     9  H    0.073377
    10  H    0.077296
 Sum of Mulliken charges =   0.00000

 Dipole moment (field-independent basis, Debye):
    X=             -0.0433    Y=             -0.0177    Z=              0.0427  Tot=              0.0634
 Quadrupole moment (field-independent basis, Debye-Ang):
   XX=            -23.7983   YY=            -22.9341   ZZ=            -29.2865
   XY=              0.1808   XZ=             -0.3109   YZ=             -0.0437

 1\1\GINC-NODE28\SP\RB2PLYPD3-FC\def2QZVP\C4H6\BOITTIER\26-Aug-2020\0\\
 #p B2PLYPD3/Def2QZVP\\butadiene\\0,1\C,0,-3.848726,0.208167,-0.001742\
 C,0,-2.72066,-0.493199,0.056827\C,0,-1.372796,0.110421,0.022572\C,0,-0
 .276069,-0.680468,0.029621\H,0,-4.790846,-0.261261,0.073667\H,0,-3.757
 131,1.298006,-0.102944\H,0,-2.743078,-1.587574,0.121156\H,0,-1.318431,
 1.173576,0.10127\H,0,-0.29482,-1.738964,-0.063638\H,0,0.701007,-0.2128
 09,-0.0489\\Version=ES64L-G09RevD.01\State=1-A\HF=-155.6970423\MP2=-15
 5.9229985\RMSD=6.564e-09\PG=C01 [X(C4H6)]\\@

 Normal termination of Gaussian 09 at Wed Aug 26 09:32:07 2020.
