 Gaussian 09, Revision D.01,
 Gaussian 09:  ES64L-G09RevD.01 24-Apr-2013

 --------------------
 #p B2PLYPD3/Def2QZVP
 --------------------

 ---------
 butadiene
 ---------
 Symbolic Z-matrix:
 Charge =  0 Multiplicity = 1

                         Standard orientation:
 ---------------------------------------------------------------------
 Center     Atomic      Atomic             Coordinates (Angstroms)
 Number     Number       Type             X           Y           Z
 ---------------------------------------------------------------------
      1          6           0        1.842709    0.085873    0.030963
      2          6           0        0.609523   -0.362380   -0.069778
      3          6           0       -0.607167    0.409462   -0.029281
      4          6           0       -1.846235   -0.114049    0.015475
      5          1           0        2.643197   -0.596391    0.118713
      6          1           0        2.134925    1.139069    0.069978
      7          1           0        0.491844   -1.408949   -0.025393
      8          1           0       -0.450805    1.481133   -0.050069
      9          1           0       -2.018954   -1.194586    0.090373
     10          1           0       -2.793189    0.466288    0.112129
 ---------------------------------------------------------------------

 SCF Done:  E(RB2PLYPD3) =  -155.696045541     A.U. after   11 cycles
 E2(B2PLYPD3) =    -0.2255910298D+00 E(B2PLYPD3) =    -0.15592163657092D+03

 The electronic state is 1-A.
 Alpha  occ. eigenvalues --  -10.62783 -10.62352 -10.61779 -10.61118  -0.93264
 Alpha  occ. eigenvalues --   -0.85011  -0.70576  -0.64279  -0.55073  -0.53664
 Alpha  occ. eigenvalues --   -0.47344  -0.45118  -0.40657  -0.38366  -0.27802
 Alpha virt. eigenvalues --    0.01535   0.06944   0.07497   0.08108   0.09834
 Alpha virt. eigenvalues --    0.11521   0.12467   0.14777   0.15770   0.16364
 Alpha virt. eigenvalues --    0.18963   0.20269   0.22001   0.22368   0.23632

 Mulliken charges:
               1
     1  C   -0.171062
     2  C   -0.021736
     3  C   -0.040867
     4  C   -0.165395
     5  H    0.081583
     6  H    0.062147
     7  H    0.056101
     8  H    0.057872
     9  H    0.060695
    10  H    0.080663
 Sum of Mulliken charges =   0.00000

 Dipole moment (field-independent basis, Debye):
    X=              0.0304    Y=             -0.0287    Z=              0.2179  Tot=              0.2219
 Quadrupole moment (field-independent basis, Debye-Ang):
   XX=            -23.1384   YY=            -23.3443   ZZ=            -29.1633
   XY=              0.3153   XZ=              0.0028   YZ=             -0.1121

 1\1\GINC-NODE40\SP\RB2PLYPD3-FC\def2QZVP\C4H6\BOITTIER\26-Aug-2020\0\\
 #p B2PLYPD3/Def2QZVP\\butadiene\\0,1\C,0,-3.848604,0.204461,-0.01605\C
 ,0,-2.718116,-0.460145,0.094057\C,0,-1.380786,0.075182,0.042209\C,0,-0
 .258536,-0.666942,0.008127\H,0,-4.760585,-0.321162,-0.093354\H,0,-3.94
 3197,1.292533,-0.07336\H,0,-2.794041,-1.511174,0.067616\H,0,-1.338337,
 1.157565,0.044575\H,0,-0.286619,-1.761951,-0.048167\H,0,0.77847,-0.271
 442,-0.097006\\Version=ES64L-G09RevD.01\State=1-A\HF=-155.6960455\MP2=
 -155.9216366\RMSD=6.007e-09\PG=C01 [X(C4H6)]\\@

 Normal termination of Gaussian 09 at Wed Aug 26 09:32:29 2020.
