 Gaussian 09, Revision D.01,
 Gaussian 09:  ES64L-G09RevD.01 24-Apr-2013

 --------------------
 #p B2PLYPD3/Def2QZVP
 --------------------

 ---------
 butadiene
 ---------
 Symbolic Z-matrix:
 Charge =  0 Multiplicity = 1

                         Standard orientation:
 ---------------------------------------------------------------------
 Center     Atomic      Atomic             Coordinates (Angstroms)
 Number     Number       Type             X           Y           Z
 ---------------------------------------------------------------------
      1          6           0       -1.828320   -0.107220   -0.009647
      2          6           0       -0.591501    0.386103    0.002224
      3          6           0        0.607617   -0.417762    0.022733
      4          6           0        1.821321    0.120503   -0.020954
      5          1           0       -2.681797    0.537327    0.036282
      6          1           0       -2.042246   -1.132752   -0.049001
      7          1           0       -0.492405    1.491773    0.027342
      8          1           0        0.488197   -1.485037    0.005393
      9          1           0        1.951008    1.186500   -0.024049
     10          1           0        2.722542   -0.487559    0.037891
 ---------------------------------------------------------------------

 SCF Done:  E(RB2PLYPD3) =  -155.699773153     A.U. after   11 cycles
 E2(B2PLYPD3) =    -0.2253073848D+00 E(B2PLYPD3) =    -0.15592508053819D+03

 The electronic state is 1-A.
 Alpha  occ. eigenvalues --  -10.62535 -10.62256 -10.61368 -10.60798  -0.93257
 Alpha  occ. eigenvalues --   -0.85108  -0.70282  -0.64247  -0.54776  -0.54273
 Alpha  occ. eigenvalues --   -0.46575  -0.45600  -0.41325  -0.38297  -0.27665
 Alpha virt. eigenvalues --    0.01852   0.07029   0.07450   0.08036   0.09650
 Alpha virt. eigenvalues --    0.11719   0.12531   0.14843   0.15833   0.16253
 Alpha virt. eigenvalues --    0.18740   0.20427   0.21906   0.22726   0.24004

 Mulliken charges:
               1
     1  C   -0.180318
     2  C   -0.021185
     3  C   -0.036381
     4  C   -0.169301
     5  H    0.082058
     6  H    0.066120
     7  H    0.049916
     8  H    0.060256
     9  H    0.066355
    10  H    0.082480
 Sum of Mulliken charges =   0.00000

 Dipole moment (field-independent basis, Debye):
    X=              0.0124    Y=             -0.0328    Z=              0.0460  Tot=              0.0578
 Quadrupole moment (field-independent basis, Debye-Ang):
   XX=            -23.4834   YY=            -23.0492   ZZ=            -29.1701
   XY=              0.1749   XZ=              0.0414   YZ=              0.0675

 1\1\GINC-NODE14\SP\RB2PLYPD3-FC\def2QZVP\C4H6\BOITTIER\26-Aug-2020\0\\
 #p B2PLYPD3/Def2QZVP\\butadiene\\0,1\C,0,-3.832825,0.217997,0.028712\C
 ,0,-2.705032,-0.490034,0.030651\C,0,-1.380893,0.084106,-0.008376\C,0,-
 0.283744,-0.662585,0.050194\H,0,-4.788512,-0.263332,-0.002216\H,0,-3.8
 5856,1.26594,0.042267\H,0,-2.806627,-1.595759,0.033181\H,0,-1.306225,1
 .155542,-0.017751\H,0,-0.348016,-1.734108,0.079978\H,0,0.711999,-0.228
 316,-0.022652\\Version=ES64L-G09RevD.01\State=1-A\HF=-155.6997732\MP2=
 -155.9250805\RMSD=3.492e-09\PG=C01 [X(C4H6)]\\@

 Normal termination of Gaussian 09 at Wed Aug 26 21:28:36 2020.
