 Gaussian 09, Revision D.01,
 Gaussian 09:  ES64L-G09RevD.01 24-Apr-2013

 --------------------
 #p B2PLYPD3/Def2QZVP
 --------------------

 ---------
 butadiene
 ---------
 Symbolic Z-matrix:
 Charge =  0 Multiplicity = 1

                         Standard orientation:
 ---------------------------------------------------------------------
 Center     Atomic      Atomic             Coordinates (Angstroms)
 Number     Number       Type             X           Y           Z
 ---------------------------------------------------------------------
      1          6           0       -1.882593   -0.112591   -0.039002
      2          6           0       -0.601952    0.354939    0.055124
      3          6           0        0.644064   -0.407503    0.047924
      4          6           0        1.867456    0.117305   -0.052816
      5          1           0       -2.694761    0.649126   -0.026822
      6          1           0       -2.129003   -1.098771   -0.283278
      7          1           0       -0.437817    1.436210    0.168666
      8          1           0        0.479127   -1.453623    0.321254
      9          1           0        1.858762    1.192702   -0.102317
     10          1           0        2.761847   -0.438544   -0.144882
 ---------------------------------------------------------------------

 SCF Done:  E(RB2PLYPD3) =  -155.689113834     A.U. after   11 cycles
 E2(B2PLYPD3) =    -0.2267984887D+00 E(B2PLYPD3) =    -0.15591591232283D+03

 The electronic state is 1-A.
 Alpha  occ. eigenvalues --  -10.63262 -10.62734 -10.62070 -10.61581  -0.92660
 Alpha  occ. eigenvalues --   -0.84773  -0.70782  -0.63759  -0.55164  -0.53339
 Alpha  occ. eigenvalues --   -0.47250  -0.46023  -0.41084  -0.36937  -0.27660
 Alpha virt. eigenvalues --    0.01072   0.06989   0.07615   0.07911   0.09340
 Alpha virt. eigenvalues --    0.11592   0.12458   0.14724   0.15167   0.16192
 Alpha virt. eigenvalues --    0.18777   0.19877   0.21732   0.22043   0.23701

 Mulliken charges:
               1
     1  C   -0.187594
     2  C   -0.034774
     3  C   -0.031515
     4  C   -0.178051
     5  H    0.082940
     6  H    0.081420
     7  H    0.047193
     8  H    0.060566
     9  H    0.060582
    10  H    0.099232
 Sum of Mulliken charges =   0.00000

 Dipole moment (field-independent basis, Debye):
    X=              0.1052    Y=             -0.0157    Z=             -0.0402  Tot=              0.1137
 Quadrupole moment (field-independent basis, Debye-Ang):
   XX=            -23.3612   YY=            -23.5251   ZZ=            -29.1739
   XY=              0.0492   XZ=              0.1897   YZ=              0.1364

 1\1\GINC-NODE26\SP\RB2PLYPD3-FC\def2QZVP\C4H6\BOITTIER\26-Aug-2020\0\\
 #p B2PLYPD3/Def2QZVP\\butadiene\\0,1\C,0,-3.889714,0.222392,0.060644\C
 ,0,-2.711367,-0.465293,-0.017285\C,0,-1.351089,0.06682,-0.037876\C,0,-
 0.237829,-0.660352,0.081007\H,0,-4.822761,-0.385196,0.076041\H,0,-3.95
 8017,1.244445,0.269644\H,0,-2.739839,-1.561904,-0.092202\H,0,-1.33215,
 1.11541,-0.348329\H,0,-0.434337,-1.715182,0.168897\H,0,0.740661,-0.266
 922,0.152764\\Version=ES64L-G09RevD.01\State=1-A\HF=-155.6891138\MP2=-
 155.9159123\RMSD=8.044e-09\PG=C01 [X(C4H6)]\\@

 Normal termination of Gaussian 09 at Wed Aug 26 13:08:14 2020.
