 Gaussian 09, Revision D.01,
 Gaussian 09:  ES64L-G09RevD.01 24-Apr-2013

 --------------------
 #p B2PLYPD3/Def2QZVP
 --------------------

 ---------
 butadiene
 ---------
 Symbolic Z-matrix:
 Charge =  0 Multiplicity = 1

                         Standard orientation:
 ---------------------------------------------------------------------
 Center     Atomic      Atomic             Coordinates (Angstroms)
 Number     Number       Type             X           Y           Z
 ---------------------------------------------------------------------
      1          6           0        1.818500   -0.164682   -0.006313
      2          6           0        0.608660    0.430093   -0.017867
      3          6           0       -0.620984   -0.340047   -0.031524
      4          6           0       -1.833585    0.090307    0.048847
      5          1           0        2.720366    0.496336    0.135258
      6          1           0        2.094025   -1.200777    0.162390
      7          1           0        0.637646    1.519838   -0.196638
      8          1           0       -0.544896   -1.375882   -0.130274
      9          1           0       -2.064118    1.053866    0.144961
     10          1           0       -2.678568   -0.587407   -0.074552
 ---------------------------------------------------------------------

 SCF Done:  E(RB2PLYPD3) =  -155.682536371     A.U. after   11 cycles
 E2(B2PLYPD3) =    -0.2250745073D+00 E(B2PLYPD3) =    -0.15590761087840D+03

 The electronic state is 1-A.
 Alpha  occ. eigenvalues --  -10.63197 -10.62196 -10.61200 -10.59694  -0.93461
 Alpha  occ. eigenvalues --   -0.85594  -0.70261  -0.64723  -0.55384  -0.54242
 Alpha  occ. eigenvalues --   -0.46724  -0.44984  -0.40875  -0.38166  -0.28093
 Alpha virt. eigenvalues --    0.01813   0.06941   0.07709   0.07773   0.09728
 Alpha virt. eigenvalues --    0.11564   0.12528   0.14965   0.15540   0.16657
 Alpha virt. eigenvalues --    0.18814   0.19488   0.22355   0.22779   0.23892

 Mulliken charges:
               1
     1  C   -0.162828
     2  C   -0.058527
     3  C   -0.016316
     4  C   -0.169765
     5  H    0.061546
     6  H    0.070429
     7  H    0.071126
     8  H    0.062711
     9  H    0.066730
    10  H    0.074893
 Sum of Mulliken charges =   0.00000

 Dipole moment (field-independent basis, Debye):
    X=             -0.0018    Y=             -0.0019    Z=              0.0199  Tot=              0.0201
 Quadrupole moment (field-independent basis, Debye-Ang):
   XX=            -23.5134   YY=            -23.1371   ZZ=            -28.9200
   XY=             -0.2289   XZ=              0.6023   YZ=             -0.0256

 1\1\GINC-NODE21\SP\RB2PLYPD3-FC\def2QZVP\C4H6\BOITTIER\26-Aug-2020\0\\
 #p B2PLYPD3/Def2QZVP\\butadiene\\0,1\C,0,-3.81731,0.262392,0.021328\C,
 0,-2.728382,-0.532478,0.0167\C,0,-1.384384,0.01339,-0.015306\C,0,-0.26
 3762,-0.618412,0.068929\H,0,-4.818791,-0.23036,0.17811\H,0,-3.908774,1
 .333309,0.17179\H,0,-2.946178,-1.603824,-0.141815\H,0,-1.281191,1.0449
 01,-0.132914\H,0,-0.202374,-1.605461,0.182048\H,0,0.684691,-0.099075,-
 0.069802\\Version=ES64L-G09RevD.01\State=1-A\HF=-155.6825364\MP2=-155.
 9076109\RMSD=8.548e-09\PG=C01 [X(C4H6)]\\@

 Normal termination of Gaussian 09 at Wed Aug 26 14:21:35 2020.
