 Gaussian 09, Revision D.01,
 Gaussian 09:  ES64L-G09RevD.01 24-Apr-2013

 --------------------
 #p B2PLYPD3/Def2QZVP
 --------------------

 ---------
 butadiene
 ---------
 Symbolic Z-matrix:
 Charge =  0 Multiplicity = 1

                         Standard orientation:
 ---------------------------------------------------------------------
 Center     Atomic      Atomic             Coordinates (Angstroms)
 Number     Number       Type             X           Y           Z
 ---------------------------------------------------------------------
      1          6           0       -1.855529   -0.148689   -0.046316
      2          6           0       -0.642582    0.452584    0.024463
      3          6           0        0.603092   -0.370995    0.072722
      4          6           0        1.868743    0.065200   -0.070663
      5          1           0       -2.618513    0.512890   -0.081517
      6          1           0       -2.017640   -1.228897    0.008876
      7          1           0       -0.421679    1.575628    0.041616
      8          1           0        0.412411   -1.432575    0.156859
      9          1           0        2.060477    1.147769    0.169267
     10          1           0        2.742605   -0.563416   -0.176338
 ---------------------------------------------------------------------

 SCF Done:  E(RB2PLYPD3) =  -155.680757294     A.U. after   12 cycles
 E2(B2PLYPD3) =    -0.2273234930D+00 E(B2PLYPD3) =    -0.15590808078729D+03

 The electronic state is 1-A.
 Alpha  occ. eigenvalues --  -10.64050 -10.62838 -10.62025 -10.61561  -0.92131
 Alpha  occ. eigenvalues --   -0.84746  -0.70211  -0.63242  -0.54688  -0.53329
 Alpha  occ. eigenvalues --   -0.47186  -0.45551  -0.40858  -0.36864  -0.27544
 Alpha virt. eigenvalues --    0.01371   0.07008   0.07109   0.08195   0.08888
 Alpha virt. eigenvalues --    0.11593   0.12276   0.14628   0.15748   0.16067
 Alpha virt. eigenvalues --    0.18824   0.20239   0.21134   0.23375   0.23537

 Mulliken charges:
               1
     1  C   -0.176832
     2  C   -0.041853
     3  C   -0.027073
     4  C   -0.179194
     5  H    0.092085
     6  H    0.082624
     7  H    0.053544
     8  H    0.051895
     9  H    0.057478
    10  H    0.087325
 Sum of Mulliken charges =   0.00000

 Dipole moment (field-independent basis, Debye):
    X=             -0.1103    Y=             -0.0608    Z=              0.1774  Tot=              0.2176
 Quadrupole moment (field-independent basis, Debye-Ang):
   XX=            -23.6625   YY=            -23.1206   ZZ=            -29.4124
   XY=              0.2749   XZ=              0.0542   YZ=              0.1730

 1\1\GINC-NODE32\SP\RB2PLYPD3-FC\def2QZVP\C4H6\BOITTIER\26-Aug-2020\0\\
 #p B2PLYPD3/Def2QZVP\\butadiene\\0,1\C,0,-3.845875,0.269105,0.064683\C
 ,0,-2.763062,-0.5442,0.002787\C,0,-1.388104,0.037632,-0.054436\C,0,-0.
 223097,-0.620308,0.095801\H,0,-4.716706,-0.241682,0.107346\H,0,-3.8082
 65,1.359981,-0.004238\H,0,-2.750769,-1.688823,-0.000029\H,0,-1.382018,
 1.115044,-0.152097\H,0,-0.232368,-1.72261,-0.130314\H,0,0.750908,-0.16
 039,0.194539\\Version=ES64L-G09RevD.01\State=1-A\HF=-155.6807573\MP2=-
 155.9080808\RMSD=3.908e-09\PG=C01 [X(C4H6)]\\@

 Normal termination of Gaussian 09 at Wed Aug 26 15:21:56 2020.
