 Gaussian 09, Revision D.01,
 Gaussian 09:  ES64L-G09RevD.01 24-Apr-2013

 --------------------
 #p B2PLYPD3/Def2QZVP
 --------------------

 ---------
 butadiene
 ---------
 Symbolic Z-matrix:
 Charge =  0 Multiplicity = 1

                         Standard orientation:
 ---------------------------------------------------------------------
 Center     Atomic      Atomic             Coordinates (Angstroms)
 Number     Number       Type             X           Y           Z
 ---------------------------------------------------------------------
      1          6           0        1.847302   -0.117871    0.013516
      2          6           0        0.609011    0.399250   -0.019022
      3          6           0       -0.615481   -0.391068   -0.022548
      4          6           0       -1.847915    0.109319    0.012635
      5          1           0        2.715756    0.505456    0.017084
      6          1           0        1.980317   -1.178726    0.008520
      7          1           0        0.500362    1.503223    0.041669
      8          1           0       -0.459819   -1.450889   -0.006301
      9          1           0       -1.984932    1.168052   -0.034593
     10          1           0       -2.709188   -0.544901    0.066129
 ---------------------------------------------------------------------

 SCF Done:  E(RB2PLYPD3) =  -155.700200699     A.U. after   11 cycles
 E2(B2PLYPD3) =    -0.2256336487D+00 E(B2PLYPD3) =    -0.15592583434743D+03

 The electronic state is 1-A.
 Alpha  occ. eigenvalues --  -10.62850 -10.62328 -10.61372 -10.61366  -0.92913
 Alpha  occ. eigenvalues --   -0.85056  -0.70293  -0.64013  -0.54561  -0.54189
 Alpha  occ. eigenvalues --   -0.46776  -0.45876  -0.41119  -0.38036  -0.27719
 Alpha virt. eigenvalues --    0.01677   0.07020   0.07458   0.08066   0.09635
 Alpha virt. eigenvalues --    0.11714   0.12453   0.14708   0.15790   0.16128
 Alpha virt. eigenvalues --    0.18797   0.20321   0.21638   0.23056   0.23926

 Mulliken charges:
               1
     1  C   -0.180453
     2  C   -0.027071
     3  C   -0.029136
     4  C   -0.178110
     5  H    0.089906
     6  H    0.065178
     7  H    0.047299
     8  H    0.053434
     9  H    0.069955
    10  H    0.088997
 Sum of Mulliken charges =   0.00000

 Dipole moment (field-independent basis, Debye):
    X=              0.0089    Y=             -0.0208    Z=              0.0522  Tot=              0.0569
 Quadrupole moment (field-independent basis, Debye-Ang):
   XX=            -23.4416   YY=            -23.1286   ZZ=            -29.2585
   XY=             -0.0323   XZ=             -0.0381   YZ=             -0.0311

 1\1\GINC-NODE37\SP\RB2PLYPD3-FC\def2QZVP\C4H6\BOITTIER\26-Aug-2020\0\\
 #p B2PLYPD3/Def2QZVP\\butadiene\\0,1\C,0,-3.850154,0.228452,0.033256\C
 ,0,-2.723125,-0.500524,0.017907\C,0,-1.378044,0.06,-0.005862\C,0,-0.25
 3601,-0.649547,0.045992\H,0,-4.815254,-0.230848,0.052977\H,0,-3.793211
 ,1.295514,-0.002335\H,0,-2.811509,-1.604103,0.110356\H,0,-1.343504,1.1
 30662,-0.020233\H,0,-0.306395,-1.716718,0.029327\H,0,0.710083,-0.15695
 7,0.082412\\Version=ES64L-G09RevD.01\State=1-A\HF=-155.7002007\MP2=-15
 5.9258343\RMSD=4.013e-09\PG=C01 [X(C4H6)]\\@

 Normal termination of Gaussian 09 at Wed Aug 26 19:06:27 2020.
