 Gaussian 09, Revision D.01,
 Gaussian 09:  ES64L-G09RevD.01 24-Apr-2013

 --------------------
 #p B2PLYPD3/Def2QZVP
 --------------------

 ---------
 butadiene
 ---------
 Symbolic Z-matrix:
 Charge =  0 Multiplicity = 1

                         Standard orientation:
 ---------------------------------------------------------------------
 Center     Atomic      Atomic             Coordinates (Angstroms)
 Number     Number       Type             X           Y           Z
 ---------------------------------------------------------------------
      1          6           0       -1.831569   -0.106173    0.004686
      2          6           0       -0.601516    0.390731   -0.028603
      3          6           0        0.594621   -0.424527   -0.005117
      4          6           0        1.832770    0.122484    0.016825
      5          1           0       -2.654908    0.572680    0.001917
      6          1           0       -2.006492   -1.148597    0.121152
      7          1           0       -0.456286    1.482736   -0.019168
      8          1           0        0.464497   -1.496502   -0.070611
      9          1           0        1.973315    1.196970    0.073868
     10          1           0        2.714039   -0.502376   -0.033905
 ---------------------------------------------------------------------

 SCF Done:  E(RB2PLYPD3) =  -155.699436811     A.U. after   11 cycles
 E2(B2PLYPD3) =    -0.2259093978D+00 E(B2PLYPD3) =    -0.15592534620883D+03

 The electronic state is 1-A.
 Alpha  occ. eigenvalues --  -10.62678 -10.62367 -10.61794 -10.60900  -0.93039
 Alpha  occ. eigenvalues --   -0.84801  -0.70184  -0.64080  -0.54392  -0.54220
 Alpha  occ. eigenvalues --   -0.46309  -0.45965  -0.41454  -0.38073  -0.27465
 Alpha virt. eigenvalues --    0.01659   0.07045   0.07372   0.08074   0.09459
 Alpha virt. eigenvalues --    0.11765   0.12388   0.14863   0.15738   0.16172
 Alpha virt. eigenvalues --    0.18686   0.20403   0.21592   0.22969   0.23995

 Mulliken charges:
               1
     1  C   -0.181261
     2  C   -0.019915
     3  C   -0.037858
     4  C   -0.179245
     5  H    0.085576
     6  H    0.069593
     7  H    0.050447
     8  H    0.058677
     9  H    0.068585
    10  H    0.085402
 Sum of Mulliken charges =   0.00000

 Dipole moment (field-independent basis, Debye):
    X=              0.0105    Y=             -0.0053    Z=              0.0531  Tot=              0.0544
 Quadrupole moment (field-independent basis, Debye-Ang):
   XX=            -23.7647   YY=            -22.9356   ZZ=            -29.2684
   XY=              0.1592   XZ=             -0.2699   YZ=              0.0476

 1\1\GINC-NODE12\SP\RB2PLYPD3-FC\def2QZVP\C4H6\BOITTIER\26-Aug-2020\0\\
 #p B2PLYPD3/Def2QZVP\\butadiene\\0,1\C,0,-3.833657,0.22045,0.009566\C,
 0,-2.714431,-0.490801,0.059617\C,0,-1.390018,0.092612,0.020884\C,0,-0.
 271978,-0.670727,0.01697\H,0,-4.766699,-0.297149,0.025696\H,0,-3.81621
 1,1.274119,-0.132873\H,0,-2.770174,-1.590909,0.077285\H,0,-1.323025,1.
 171662,0.059802\H,0,-0.329175,-1.753932,-0.0134\H,0,0.708247,-0.215419
 ,0.055857\\Version=ES64L-G09RevD.01\State=1-A\HF=-155.6994368\MP2=-155
 .9253462\RMSD=6.425e-09\PG=C01 [X(C4H6)]\\@

 Normal termination of Gaussian 09 at Wed Aug 26 21:35:06 2020.
