 Gaussian 09, Revision D.01,
 Gaussian 09:  ES64L-G09RevD.01 24-Apr-2013

 --------------------
 #p B2PLYPD3/Def2QZVP
 --------------------

 ---------
 butadiene
 ---------
 Symbolic Z-matrix:
 Charge =  0 Multiplicity = 1

                         Standard orientation:
 ---------------------------------------------------------------------
 Center     Atomic      Atomic             Coordinates (Angstroms)
 Number     Number       Type             X           Y           Z
 ---------------------------------------------------------------------
      1          6           0       -1.820428   -0.134697   -0.016847
      2          6           0       -0.600116    0.431679   -0.015832
      3          6           0        0.599330   -0.376964    0.018007
      4          6           0        1.813111    0.097456   -0.002304
      5          1           0       -2.746967    0.469166    0.112522
      6          1           0       -1.911873   -1.214502   -0.010541
      7          1           0       -0.465887    1.509559    0.044595
      8          1           0        0.514310   -1.445291   -0.047788
      9          1           0        2.019923    1.177032   -0.073503
     10          1           0        2.639108   -0.600815    0.076562
 ---------------------------------------------------------------------

 SCF Done:  E(RB2PLYPD3) =  -155.696497037     A.U. after   11 cycles
 E2(B2PLYPD3) =    -0.2256302818D+00 E(B2PLYPD3) =    -0.15592212731892D+03

 The electronic state is 1-A.
 Alpha  occ. eigenvalues --  -10.62672 -10.61991 -10.61621 -10.61018  -0.93427
 Alpha  occ. eigenvalues --   -0.85083  -0.69544  -0.64097  -0.54387  -0.53981
 Alpha  occ. eigenvalues --   -0.46396  -0.45328  -0.41277  -0.38279  -0.27767
 Alpha virt. eigenvalues --    0.01997   0.07014   0.07351   0.07984   0.09565
 Alpha virt. eigenvalues --    0.11777   0.12356   0.14699   0.15507   0.16266
 Alpha virt. eigenvalues --    0.18649   0.20045   0.21682   0.22603   0.24470

 Mulliken charges:
               1
     1  C   -0.171712
     2  C   -0.041220
     3  C   -0.016731
     4  C   -0.177009
     5  H    0.081836
     6  H    0.067363
     7  H    0.059264
     8  H    0.053300
     9  H    0.063220
    10  H    0.081688
 Sum of Mulliken charges =   0.00000

 Dipole moment (field-independent basis, Debye):
    X=              0.0113    Y=             -0.0209    Z=              0.0929  Tot=              0.0958
 Quadrupole moment (field-independent basis, Debye-Ang):
   XX=            -23.9198   YY=            -22.9567   ZZ=            -29.1928
   XY=              0.0250   XZ=             -0.3410   YZ=              0.0673

 1\1\GINC-NODE24\SP\RB2PLYPD3-FC\def2QZVP\C4H6\BOITTIER\26-Aug-2020\0\\
 #p B2PLYPD3/Def2QZVP\\butadiene\\0,1\C,0,-3.817637,0.24514,0.028048\C,
 0,-2.718544,-0.530495,0.046151\C,0,-1.393623,0.049168,-0.001779\C,0,-0
 .284482,-0.634334,0.035399\H,0,-4.837361,-0.185995,-0.09089\H,0,-3.714
 141,1.323379,-0.004679\H,0,-2.779596,-1.616138,0.012311\H,0,-1.28587,1
 .116734,0.037879\H,0,-0.274443,-1.73142,0.133512\H,0,0.653261,-0.09744
 1,-0.05656\\Version=ES64L-G09RevD.01\State=1-A\HF=-155.696497\MP2=-155
 .9221273\RMSD=6.304e-09\PG=C01 [X(C4H6)]\\@

 Normal termination of Gaussian 09 at Wed Aug 26 09:11:38 2020.
