 Gaussian 09, Revision D.01,
 Gaussian 09:  ES64L-G09RevD.01 24-Apr-2013

 --------------------
 #p B2PLYPD3/Def2QZVP
 --------------------

 ---------
 butadiene
 ---------
 Symbolic Z-matrix:
 Charge =  0 Multiplicity = 1

                         Standard orientation:
 ---------------------------------------------------------------------
 Center     Atomic      Atomic             Coordinates (Angstroms)
 Number     Number       Type             X           Y           Z
 ---------------------------------------------------------------------
      1          6           0        1.816922   -0.115436    0.034536
      2          6           0        0.583331    0.401477   -0.037840
      3          6           0       -0.597337   -0.387039   -0.049284
      4          6           0       -1.828128    0.099804    0.027333
      5          1           0        2.715989    0.516953    0.122585
      6          1           0        1.931009   -1.204448    0.028683
      7          1           0        0.506491    1.478623   -0.112932
      8          1           0       -0.417415   -1.409421   -0.088882
      9          1           0       -1.955720    1.172832    0.062643
     10          1           0       -2.629088   -0.547378    0.139440
 ---------------------------------------------------------------------

 SCF Done:  E(RB2PLYPD3) =  -155.695850902     A.U. after   11 cycles
 E2(B2PLYPD3) =    -0.2254461180D+00 E(B2PLYPD3) =    -0.15592129701984D+03

 The electronic state is 1-A.
 Alpha  occ. eigenvalues --  -10.62062 -10.61806 -10.61488 -10.60795  -0.93802
 Alpha  occ. eigenvalues --   -0.85054  -0.70511  -0.64590  -0.55047  -0.54121
 Alpha  occ. eigenvalues --   -0.46537  -0.45817  -0.41877  -0.38324  -0.27462
 Alpha virt. eigenvalues --    0.01669   0.07051   0.07486   0.08118   0.09801
 Alpha virt. eigenvalues --    0.11777   0.12505   0.14759   0.15844   0.16079
 Alpha virt. eigenvalues --    0.18569   0.20590   0.21435   0.22934   0.24154

 Mulliken charges:
               1
     1  C   -0.182676
     2  C   -0.020382
     3  C   -0.029596
     4  C   -0.179932
     5  H    0.086043
     6  H    0.060382
     7  H    0.051664
     8  H    0.056484
     9  H    0.067866
    10  H    0.090146
 Sum of Mulliken charges =   0.00000

 Dipole moment (field-independent basis, Debye):
    X=              0.0093    Y=             -0.0164    Z=              0.0846  Tot=              0.0866
 Quadrupole moment (field-independent basis, Debye-Ang):
   XX=            -23.7790   YY=            -23.0628   ZZ=            -29.0783
   XY=              0.1006   XZ=             -0.1541   YZ=             -0.0124

 1\1\GINC-NODE12\SP\RB2PLYPD3-FC\def2QZVP\C4H6\BOITTIER\26-Aug-2020\0\\
 #p B2PLYPD3/Def2QZVP\\butadiene\\0,1\C,0,-3.820242,0.231206,0.053481\C
 ,0,-2.701936,-0.503997,-0.001775\C,0,-1.39715,0.055087,-0.030467\C,0,-
 0.275815,-0.646135,0.062422\H,0,-4.819502,-0.223839,0.155473\H,0,-3.73
 3548,1.322204,0.018777\H,0,-2.823241,-1.578658,-0.048406\H,0,-1.387418
 ,1.091734,-0.097349\H,0,-0.346254,-1.723116,0.126194\H,0,0.63008,-0.15
 3376,0.159847\\Version=ES64L-G09RevD.01\State=1-A\HF=-155.6958509\MP2=
 -155.921297\RMSD=4.018e-09\PG=C01 [X(C4H6)]\\@

 Normal termination of Gaussian 09 at Wed Aug 26 09:19:54 2020.
