 Gaussian 09, Revision D.01,
 Gaussian 09:  ES64L-G09RevD.01 24-Apr-2013

 --------------------
 #p B2PLYPD3/Def2QZVP
 --------------------

 ---------
 butadiene
 ---------
 Symbolic Z-matrix:
 Charge =  0 Multiplicity = 1

                         Standard orientation:
 ---------------------------------------------------------------------
 Center     Atomic      Atomic             Coordinates (Angstroms)
 Number     Number       Type             X           Y           Z
 ---------------------------------------------------------------------
      1          6           0       -1.851017    0.096702   -0.028014
      2          6           0       -0.593011   -0.377145    0.011001
      3          6           0        0.599980    0.433980    0.071920
      4          6           0        1.831472   -0.123499   -0.056420
      5          1           0       -2.521584   -0.701929   -0.021113
      6          1           0       -2.216536    1.189714   -0.250137
      7          1           0       -0.431326   -1.428295    0.323157
      8          1           0        0.551925    1.481301    0.201700
      9          1           0        1.946220   -1.175217   -0.226271
     10          1           0        2.746759    0.454198   -0.018255
 ---------------------------------------------------------------------

 SCF Done:  E(RB2PLYPD3) =  -155.682781333     A.U. after   11 cycles
 E2(B2PLYPD3) =    -0.2271727947D+00 E(B2PLYPD3) =    -0.15590995412763D+03

 The electronic state is 1-A.
 Alpha  occ. eigenvalues --  -10.62824 -10.62310 -10.62109 -10.61629  -0.92866
 Alpha  occ. eigenvalues --   -0.84642  -0.70272  -0.63708  -0.54079  -0.53780
 Alpha  occ. eigenvalues --   -0.46024  -0.45749  -0.41412  -0.37305  -0.27462
 Alpha virt. eigenvalues --    0.01346   0.07180   0.07336   0.07724   0.09162
 Alpha virt. eigenvalues --    0.11254   0.12298   0.14977   0.15044   0.16451
 Alpha virt. eigenvalues --    0.18583   0.19712   0.21277   0.22463   0.24026

 Mulliken charges:
               1
     1  C   -0.183431
     2  C   -0.040114
     3  C   -0.042795
     4  C   -0.173825
     5  H    0.079952
     6  H    0.079714
     7  H    0.066469
     8  H    0.066830
     9  H    0.064734
    10  H    0.082467
 Sum of Mulliken charges =   0.00000

 Dipole moment (field-independent basis, Debye):
    X=              0.0525    Y=              0.0337    Z=              0.0439  Tot=              0.0763
 Quadrupole moment (field-independent basis, Debye-Ang):
   XX=            -23.8979   YY=            -23.0152   ZZ=            -29.1888
   XY=             -0.3192   XZ=              0.0934   YZ=             -0.1953

 1\1\GINC-NODE40\SP\RB2PLYPD3-FC\def2QZVP\C4H6\BOITTIER\26-Aug-2020\0\\
 #p B2PLYPD3/Def2QZVP\\butadiene\\0,1\C,0,-3.852346,0.218661,-0.011841\
 C,0,-2.703709,-0.478036,0.050436\C,0,-1.380927,0.0999,0.083638\C,0,-0.
 274457,-0.680611,-0.018103\H,0,-4.659176,-0.441074,0.024136\H,0,-4.009
 963,1.350823,-0.278269\H,0,-2.73831,-1.527793,0.404431\H,0,-1.233723,1
 .142297,0.171797\H,0,-0.357086,-1.741258,-0.145885\H,0,0.732114,-0.281
 354,0.000564\\Version=ES64L-G09RevD.01\State=1-A\HF=-155.6827813\MP2=-
 155.9099541\RMSD=9.421e-09\PG=C01 [X(C4H6)]\\@

 Normal termination of Gaussian 09 at Wed Aug 26 16:07:07 2020.
