 Gaussian 09, Revision D.01,
 Gaussian 09:  ES64L-G09RevD.01 24-Apr-2013

 --------------------
 #p B2PLYPD3/Def2QZVP
 --------------------

 ---------
 butadiene
 ---------
 Symbolic Z-matrix:
 Charge =  0 Multiplicity = 1

                         Standard orientation:
 ---------------------------------------------------------------------
 Center     Atomic      Atomic             Coordinates (Angstroms)
 Number     Number       Type             X           Y           Z
 ---------------------------------------------------------------------
      1          6           0        1.873646    0.088112   -0.048357
      2          6           0        0.632052   -0.350136    0.028105
      3          6           0       -0.618159    0.419181    0.050652
      4          6           0       -1.844977   -0.131500   -0.086381
      5          1           0        2.790681   -0.543312   -0.025263
      6          1           0        2.040820    1.119084   -0.098809
      7          1           0        0.393719   -1.460767    0.268928
      8          1           0       -0.635964    1.521725    0.191484
      9          1           0       -1.999189   -1.226875   -0.052651
     10          1           0       -2.845436    0.436199    0.052199
 ---------------------------------------------------------------------

 SCF Done:  E(RB2PLYPD3) =  -155.682210884     A.U. after   12 cycles
 E2(B2PLYPD3) =    -0.2272977779D+00 E(B2PLYPD3) =    -0.15590950866180D+03

 The electronic state is 1-A.
 Alpha  occ. eigenvalues --  -10.63598 -10.63538 -10.62938 -10.61615  -0.92583
 Alpha  occ. eigenvalues --   -0.84921  -0.69749  -0.63128  -0.54108  -0.53572
 Alpha  occ. eigenvalues --   -0.47151  -0.44204  -0.40509  -0.37133  -0.28220
 Alpha virt. eigenvalues --    0.01374   0.06913   0.07199   0.07605   0.09577
 Alpha virt. eigenvalues --    0.11358   0.12439   0.14234   0.15453   0.16542
 Alpha virt. eigenvalues --    0.19121   0.19662   0.21351   0.22287   0.23046

 Mulliken charges:
               1
     1  C   -0.172454
     2  C   -0.021191
     3  C   -0.044365
     4  C   -0.154364
     5  H    0.090656
     6  H    0.070098
     7  H    0.047889
     8  H    0.056210
     9  H    0.055240
    10  H    0.072281
 Sum of Mulliken charges =   0.00000

 Dipole moment (field-independent basis, Debye):
    X=              0.0338    Y=              0.0639    Z=              0.3361  Tot=              0.3438
 Quadrupole moment (field-independent basis, Debye-Ang):
   XX=            -22.9119   YY=            -23.7224   ZZ=            -29.3758
   XY=              0.2068   XZ=             -0.3758   YZ=             -0.0873

 1\1\GINC-NODE09\SP\RB2PLYPD3-FC\def2QZVP\C4H6\BOITTIER\26-Aug-2020\0\\
 #p B2PLYPD3/Def2QZVP\\butadiene\\0,1\C,0,-3.878248,0.192391,0.066834\C
 ,0,-2.731054,-0.454841,-0.000257\C,0,-1.367339,0.086984,-0.045989\C,0,
 -0.252632,-0.662831,0.103393\H,0,-4.890344,-0.272179,0.062569\H,0,-3.8
 65287,1.237713,0.089835\H,0,-2.688871,-1.595838,-0.211556\H,0,-1.16111
 ,1.165942,-0.216496\H,0,-0.289327,-1.768905,0.098868\H,0,0.829619,-0.2
 79604,-0.052405\\Version=ES64L-G09RevD.01\State=1-A\HF=-155.6822109\MP
 2=-155.9095087\RMSD=3.714e-09\PG=C01 [X(C4H6)]\\@

 Normal termination of Gaussian 09 at Wed Aug 26 12:17:41 2020.
