 Gaussian 09, Revision D.01,
 Gaussian 09:  ES64L-G09RevD.01 24-Apr-2013

 --------------------
 #p B2PLYPD3/Def2QZVP
 --------------------

 ---------
 butadiene
 ---------
 Symbolic Z-matrix:
 Charge =  0 Multiplicity = 1

                         Standard orientation:
 ---------------------------------------------------------------------
 Center     Atomic      Atomic             Coordinates (Angstroms)
 Number     Number       Type             X           Y           Z
 ---------------------------------------------------------------------
      1          6           0        1.836822    0.086417    0.037348
      2          6           0        0.580959   -0.385795   -0.056572
      3          6           0       -0.586065    0.478895   -0.036401
      4          6           0       -1.811391   -0.146704    0.070681
      5          1           0        2.738354   -0.539570    0.216830
      6          1           0        2.047212    1.063750   -0.088307
      7          1           0        0.324916   -1.464131   -0.172209
      8          1           0       -0.595459    1.551911   -0.022650
      9          1           0       -1.898844   -1.230982   -0.012443
     10          1           0       -2.738130    0.422140   -0.011554
 ---------------------------------------------------------------------

 SCF Done:  E(RB2PLYPD3) =  -155.683240841     A.U. after   12 cycles
 E2(B2PLYPD3) =    -0.2275953979D+00 E(B2PLYPD3) =    -0.15591083623863D+03

 The electronic state is 1-A.
 Alpha  occ. eigenvalues --  -10.63291 -10.63177 -10.62127 -10.61103  -0.92805
 Alpha  occ. eigenvalues --   -0.84190  -0.70088  -0.64742  -0.54794  -0.53351
 Alpha  occ. eigenvalues --   -0.45899  -0.45660  -0.42222  -0.37440  -0.26882
 Alpha virt. eigenvalues --    0.01151   0.07008   0.07359   0.07981   0.08761
 Alpha virt. eigenvalues --    0.11686   0.12660   0.14585   0.15683   0.16695
 Alpha virt. eigenvalues --    0.18792   0.19422   0.21892   0.23460   0.23637

 Mulliken charges:
               1
     1  C   -0.181550
     2  C   -0.024401
     3  C   -0.044539
     4  C   -0.170321
     5  H    0.077104
     6  H    0.076779
     7  H    0.062245
     8  H    0.069914
     9  H    0.059415
    10  H    0.075353
 Sum of Mulliken charges =   0.00000

 Dipole moment (field-independent basis, Debye):
    X=             -0.0235    Y=              0.0988    Z=             -0.1634  Tot=              0.1923
 Quadrupole moment (field-independent basis, Debye-Ang):
   XX=            -23.7633   YY=            -23.0271   ZZ=            -29.3709
   XY=              0.2987   XZ=              0.5015   YZ=             -0.0573

 1\1\GINC-NODE21\SP\RB2PLYPD3-FC\def2QZVP\C4H6\BOITTIER\26-Aug-2020\0\\
 #p B2PLYPD3/Def2QZVP\\butadiene\\0,1\C,0,-3.84083,0.201658,-0.023892\C
 ,0,-2.692717,-0.489798,0.088898\C,0,-1.387172,0.146202,0.055768\C,0,-0
 .296767,-0.695285,-0.028983\H,0,-4.841327,-0.253099,-0.194289\H,0,-3.8
 69119,1.203729,0.077524\H,0,-2.63847,-1.593656,0.231354\H,0,-1.181624,
 1.198762,0.01695\H,0,-0.409291,-1.774944,0.080056\H,0,0.718239,-0.3036
 49,0.045691\\Version=ES64L-G09RevD.01\State=1-A\HF=-155.6832408\MP2=-1
 55.9108362\RMSD=3.611e-09\PG=C01 [X(C4H6)]\\@

 Normal termination of Gaussian 09 at Wed Aug 26 15:13:12 2020.
