 Gaussian 09, Revision D.01,
 Gaussian 09:  ES64L-G09RevD.01 24-Apr-2013

 --------------------
 #p B2PLYPD3/Def2QZVP
 --------------------

 ---------
 butadiene
 ---------
 Symbolic Z-matrix:
 Charge =  0 Multiplicity = 1

                         Standard orientation:
 ---------------------------------------------------------------------
 Center     Atomic      Atomic             Coordinates (Angstroms)
 Number     Number       Type             X           Y           Z
 ---------------------------------------------------------------------
      1          6           0       -1.882088    0.087359   -0.016154
      2          6           0       -0.631388   -0.384983   -0.040417
      3          6           0        0.625948    0.475411   -0.024969
      4          6           0        1.838110   -0.146806    0.016806
      5          1           0       -2.704451   -0.661630    0.287190
      6          1           0       -2.036086    1.171987   -0.012839
      7          1           0       -0.304138   -1.378669   -0.044003
      8          1           0        0.602872    1.500595    0.060753
      9          1           0        2.007849   -1.201997   -0.010731
     10          1           0        2.730464    0.383826    0.108033
 ---------------------------------------------------------------------

 SCF Done:  E(RB2PLYPD3) =  -155.680596423     A.U. after   11 cycles
 E2(B2PLYPD3) =    -0.2266601458D+00 E(B2PLYPD3) =    -0.15590725656901D+03

 The electronic state is 1-A.
 Alpha  occ. eigenvalues --  -10.62909 -10.62839 -10.62406 -10.61445  -0.92105
 Alpha  occ. eigenvalues --   -0.84639  -0.69923  -0.65415  -0.53873  -0.53404
 Alpha  occ. eigenvalues --   -0.47109  -0.46333  -0.40629  -0.37036  -0.27756
 Alpha virt. eigenvalues --    0.01651   0.06910   0.07472   0.08299   0.08689
 Alpha virt. eigenvalues --    0.11740   0.12290   0.14506   0.15604   0.16100
 Alpha virt. eigenvalues --    0.18880   0.19830   0.21784   0.23417   0.23983

 Mulliken charges:
               1
     1  C   -0.169072
     2  C   -0.038239
     3  C   -0.052050
     4  C   -0.174830
     5  H    0.080555
     6  H    0.073331
     7  H    0.070154
     8  H    0.070479
     9  H    0.061835
    10  H    0.077836
 Sum of Mulliken charges =   0.00000

 Dipole moment (field-independent basis, Debye):
    X=              0.2662    Y=              0.0153    Z=              0.3167  Tot=              0.4140
 Quadrupole moment (field-independent basis, Debye-Ang):
   XX=            -23.9290   YY=            -22.9509   ZZ=            -29.3237
   XY=             -0.4480   XZ=             -0.4717   YZ=             -0.0578

 1\1\GINC-NODE13\SP\RB2PLYPD3-FC\def2QZVP\C4H6\BOITTIER\26-Aug-2020\0\\
 #p B2PLYPD3/Def2QZVP\\butadiene\\0,1\C,0,-3.883753,0.20223,0.016767\C,
 0,-2.737242,-0.485787,0.007203\C,0,-1.346845,0.13702,-0.010649\C,0,-0.
 264368,-0.689206,0.051246\H,0,-4.82369,-0.377277,0.34839\H,0,-3.842361
 ,1.296385,-0.018667\H,0,-2.591978,-1.521364,0.038772\H,0,-1.186517,1.1
 523,0.038167\H,0,-0.285235,-1.758065,0.061385\H,0,0.708853,-0.32305,0.
 121666\\Version=ES64L-G09RevD.01\State=1-A\HF=-155.6805964\MP2=-155.90
 72566\RMSD=8.204e-09\PG=C01 [X(C4H6)]\\@

 Normal termination of Gaussian 09 at Wed Aug 26 16:01:31 2020.
