 Gaussian 09, Revision D.01,
 Gaussian 09:  ES64L-G09RevD.01 24-Apr-2013

 --------------------
 #p B2PLYPD3/Def2QZVP
 --------------------

 ---------
 butadiene
 ---------
 Symbolic Z-matrix:
 Charge =  0 Multiplicity = 1

                         Standard orientation:
 ---------------------------------------------------------------------
 Center     Atomic      Atomic             Coordinates (Angstroms)
 Number     Number       Type             X           Y           Z
 ---------------------------------------------------------------------
      1          6           0        1.827997   -0.109994    0.011115
      2          6           0        0.591990    0.413212   -0.016794
      3          6           0       -0.593858   -0.389689   -0.029025
      4          6           0       -1.830627    0.097888    0.019147
      5          1           0        2.751654    0.485020   -0.015579
      6          1           0        1.966186   -1.196288    0.119392
      7          1           0        0.472790    1.502430   -0.021533
      8          1           0       -0.439929   -1.460373   -0.064266
      9          1           0       -2.064424    1.155819    0.058774
     10          1           0       -2.659289   -0.555109    0.016550
 ---------------------------------------------------------------------

 SCF Done:  E(RB2PLYPD3) =  -155.699420390     A.U. after   11 cycles
 E2(B2PLYPD3) =    -0.2258863054D+00 E(B2PLYPD3) =    -0.15592530669565D+03

 The electronic state is 1-A.
 Alpha  occ. eigenvalues --  -10.62564 -10.62262 -10.61975 -10.61139  -0.93297
 Alpha  occ. eigenvalues --   -0.84778  -0.70365  -0.64020  -0.54823  -0.53838
 Alpha  occ. eigenvalues --   -0.46660  -0.45341  -0.41288  -0.38338  -0.27491
 Alpha virt. eigenvalues --    0.01583   0.07030   0.07362   0.08049   0.09668
 Alpha virt. eigenvalues --    0.11653   0.12454   0.14778   0.15911   0.16196
 Alpha virt. eigenvalues --    0.18757   0.20560   0.21718   0.22592   0.23714

 Mulliken charges:
               1
     1  C   -0.174019
     2  C   -0.028491
     3  C   -0.027016
     4  C   -0.176905
     5  H    0.084668
     6  H    0.060337
     7  H    0.055016
     8  H    0.055055
     9  H    0.066877
    10  H    0.084477
 Sum of Mulliken charges =   0.00000

 Dipole moment (field-independent basis, Debye):
    X=             -0.0144    Y=              0.0062    Z=              0.0566  Tot=              0.0587
 Quadrupole moment (field-independent basis, Debye-Ang):
   XX=            -23.4279   YY=            -23.1471   ZZ=            -29.2448
   XY=             -0.2055   XZ=              0.0247   YZ=             -0.0506

 1\1\GINC-NODE28\SP\RB2PLYPD3-FC\def2QZVP\C4H6\BOITTIER\26-Aug-2020\0\\
 #p B2PLYPD3/Def2QZVP\\butadiene\\0,1\C,0,-3.828631,0.231894,0.031672\C
 ,0,-2.710536,-0.511034,0.019036\C,0,-1.396906,0.058574,-0.011889\C,0,-
 0.271242,-0.647558,0.050622\H,0,-4.846329,-0.18286,0.018774\H,0,-3.763
 58,1.327421,0.111945\H,0,-2.794457,-1.603299,0.042313\H,0,-1.350667,1.
 138026,-0.074712\H,0,-0.236617,-1.729113,0.117626\H,0,0.663703,-0.1590
 43,0.032611\\Version=ES64L-G09RevD.01\State=1-A\HF=-155.6994204\MP2=-1
 55.9253067\RMSD=3.496e-09\PG=C01 [X(C4H6)]\\@

 Normal termination of Gaussian 09 at Wed Aug 26 16:35:42 2020.
