 Gaussian 09, Revision D.01,
 Gaussian 09:  ES64L-G09RevD.01 24-Apr-2013

 --------------------
 #p B2PLYPD3/Def2QZVP
 --------------------

 ---------
 butadiene
 ---------
 Symbolic Z-matrix:
 Charge =  0 Multiplicity = 1

                         Standard orientation:
 ---------------------------------------------------------------------
 Center     Atomic      Atomic             Coordinates (Angstroms)
 Number     Number       Type             X           Y           Z
 ---------------------------------------------------------------------
      1          6           0       -1.821724    0.078375   -0.044238
      2          6           0       -0.568084   -0.344149    0.106336
      3          6           0        0.603529    0.412550    0.029301
      4          6           0        1.772601   -0.131703   -0.047877
      5          1           0       -2.769370   -0.527432   -0.088434
      6          1           0       -2.005166    1.073917   -0.027785
      7          1           0       -0.346755   -1.426768   -0.133718
      8          1           0        0.579484    1.584438    0.000162
      9          1           0        1.903655   -1.263534    0.041851
     10          1           0        2.720216    0.468941   -0.053212
 ---------------------------------------------------------------------

 SCF Done:  E(RB2PLYPD3) =  -155.673640471     A.U. after   11 cycles
 E2(B2PLYPD3) =    -0.2267472420D+00 E(B2PLYPD3) =    -0.15590038771330D+03

 The electronic state is 1-A.
 Alpha  occ. eigenvalues --  -10.62512 -10.62411 -10.61931 -10.61316  -0.94421
 Alpha  occ. eigenvalues --   -0.85363  -0.70417  -0.62777  -0.55036  -0.53607
 Alpha  occ. eigenvalues --   -0.46695  -0.43871  -0.40477  -0.38917  -0.27931
 Alpha virt. eigenvalues --    0.01623   0.06893   0.07064   0.07760   0.09646
 Alpha virt. eigenvalues --    0.11732   0.12611   0.14487   0.15111   0.16452
 Alpha virt. eigenvalues --    0.18616   0.19258   0.21937   0.23301   0.23556

 Mulliken charges:
               1
     1  C   -0.170087
     2  C   -0.021575
     3  C   -0.018423
     4  C   -0.159732
     5  H    0.081660
     6  H    0.064663
     7  H    0.049361
     8  H    0.038420
     9  H    0.054912
    10  H    0.080802
 Sum of Mulliken charges =   0.00000

 Dipole moment (field-independent basis, Debye):
    X=              0.0188    Y=              0.1158    Z=             -0.1232  Tot=              0.1701
 Quadrupole moment (field-independent basis, Debye-Ang):
   XX=            -23.1645   YY=            -23.6631   ZZ=            -29.1047
   XY=             -0.1214   XZ=              0.3592   YZ=              0.1351

 1\1\GINC-NODE34\SP\RB2PLYPD3-FC\def2QZVP\C4H6\BOITTIER\26-Aug-2020\0\\
 #p B2PLYPD3/Def2QZVP\\butadiene\\0,1\C,0,-3.828456,0.19082,-0.034407\C
 ,0,-2.672857,-0.450651,0.126587\C,0,-1.383071,0.07982,0.047484\C,0,-0.
 33208,-0.668492,-0.01842\H,0,-4.870241,-0.233278,-0.076987\H,0,-3.8280
 7,1.203241,-0.029066\H,0,-2.651151,-1.558031,-0.101263\H,0,-1.193777,1
 .236199,0.006201\H,0,-0.409046,-1.804249,0.083557\H,0,0.708881,-0.2500
 09,-0.025315\\Version=ES64L-G09RevD.01\State=1-A\HF=-155.6736405\MP2=-
 155.9003877\RMSD=8.529e-09\PG=C01 [X(C4H6)]\\@

 Normal termination of Gaussian 09 at Wed Aug 26 14:28:17 2020.
