 Gaussian 09, Revision D.01,
 Gaussian 09:  ES64L-G09RevD.01 24-Apr-2013

 --------------------
 #p B2PLYPD3/Def2QZVP
 --------------------

 ---------
 butadiene
 ---------
 Symbolic Z-matrix:
 Charge =  0 Multiplicity = 1

                         Standard orientation:
 ---------------------------------------------------------------------
 Center     Atomic      Atomic             Coordinates (Angstroms)
 Number     Number       Type             X           Y           Z
 ---------------------------------------------------------------------
      1          6           0        1.837562   -0.118657   -0.013731
      2          6           0        0.602159    0.408996    0.005282
      3          6           0       -0.607350   -0.370289    0.008560
      4          6           0       -1.837215    0.092591   -0.015842
      5          1           0        2.718834    0.492241    0.039504
      6          1           0        2.014617   -1.192794   -0.048567
      7          1           0        0.482055    1.496574    0.030536
      8          1           0       -0.457067   -1.461928    0.073816
      9          1           0       -2.031278    1.153167   -0.006170
     10          1           0       -2.698096   -0.563107    0.005268
 ---------------------------------------------------------------------

 SCF Done:  E(RB2PLYPD3) =  -155.700349771     A.U. after   11 cycles
 E2(B2PLYPD3) =    -0.2255366991D+00 E(B2PLYPD3) =    -0.15592588647044D+03

 The electronic state is 1-A.
 Alpha  occ. eigenvalues --  -10.62705 -10.62214 -10.61728 -10.61160  -0.93237
 Alpha  occ. eigenvalues --   -0.85087  -0.70449  -0.63734  -0.54851  -0.53936
 Alpha  occ. eigenvalues --   -0.46985  -0.45398  -0.40811  -0.38352  -0.27781
 Alpha virt. eigenvalues --    0.01677   0.07008   0.07380   0.08018   0.09882
 Alpha virt. eigenvalues --    0.11650   0.12435   0.14780   0.15825   0.16185
 Alpha virt. eigenvalues --    0.18824   0.20497   0.21750   0.22586   0.23698

 Mulliken charges:
               1
     1  C   -0.173861
     2  C   -0.034948
     3  C   -0.016331
     4  C   -0.175654
     5  H    0.086135
     6  H    0.065311
     7  H    0.052198
     8  H    0.047078
     9  H    0.062984
    10  H    0.087089
 Sum of Mulliken charges =   0.00000

 Dipole moment (field-independent basis, Debye):
    X=              0.0209    Y=              0.0070    Z=              0.0923  Tot=              0.0949
 Quadrupole moment (field-independent basis, Debye-Ang):
   XX=            -23.2991   YY=            -23.2302   ZZ=            -29.2098
   XY=             -0.1804   XZ=             -0.0017   YZ=              0.0287

 1\1\GINC-NODE21\SP\RB2PLYPD3-FC\def2QZVP\C4H6\BOITTIER\26-Aug-2020\0\\
 #p B2PLYPD3/Def2QZVP\\butadiene\\0,1\C,0,-3.837936,0.235653,0.005945\C
 ,0,-2.718647,-0.506489,0.0436\C,0,-1.387865,0.040217,0.025166\C,0,-0.2
 62437,-0.638585,0.017419\H,0,-4.815179,-0.203341,0.076302\H,0,-3.81738
 5,1.322505,-0.062347\H,0,-2.797677,-1.596516,0.102619\H,0,-1.337442,1.
 142487,0.056431\H,0,-0.263895,-1.715964,0.060173\H,0,0.703154,-0.14957
 6,0.01995\\Version=ES64L-G09RevD.01\State=1-A\HF=-155.7003498\MP2=-155
 .9258865\RMSD=5.609e-09\PG=C01 [X(C4H6)]\\@

 Normal termination of Gaussian 09 at Wed Aug 26 20:47:02 2020.
