 Gaussian 09, Revision D.01,
 Gaussian 09:  ES64L-G09RevD.01 24-Apr-2013

 --------------------
 #p B2PLYPD3/Def2QZVP
 --------------------

 ---------
 butadiene
 ---------
 Symbolic Z-matrix:
 Charge =  0 Multiplicity = 1

                         Standard orientation:
 ---------------------------------------------------------------------
 Center     Atomic      Atomic             Coordinates (Angstroms)
 Number     Number       Type             X           Y           Z
 ---------------------------------------------------------------------
      1          6           0        1.829257   -0.118462   -0.028761
      2          6           0        0.602955    0.415386    0.016141
      3          6           0       -0.602892   -0.401216    0.024183
      4          6           0       -1.842295    0.103505   -0.015841
      5          1           0        2.720810    0.495120    0.026988
      6          1           0        1.947086   -1.204531   -0.047331
      7          1           0        0.502102    1.508635    0.051374
      8          1           0       -0.447875   -1.460539    0.079298
      9          1           0       -1.955331    1.182798   -0.040261
     10          1           0       -2.688940   -0.516764   -0.044396
 ---------------------------------------------------------------------

 SCF Done:  E(RB2PLYPD3) =  -155.699975170     A.U. after   11 cycles
 E2(B2PLYPD3) =    -0.2258099184D+00 E(B2PLYPD3) =    -0.15592578508848D+03

 The electronic state is 1-A.
 Alpha  occ. eigenvalues --  -10.62674 -10.62404 -10.61631 -10.61200  -0.92967
 Alpha  occ. eigenvalues --   -0.84884  -0.70047  -0.64103  -0.54752  -0.53932
 Alpha  occ. eigenvalues --   -0.46542  -0.45629  -0.41506  -0.37998  -0.27604
 Alpha virt. eigenvalues --    0.01768   0.07067   0.07365   0.08097   0.09482
 Alpha virt. eigenvalues --    0.11718   0.12500   0.14600   0.15861   0.16178
 Alpha virt. eigenvalues --    0.18718   0.20395   0.21496   0.23004   0.24004

 Mulliken charges:
               1
     1  C   -0.176047
     2  C   -0.028234
     3  C   -0.030810
     4  C   -0.179736
     5  H    0.086550
     6  H    0.062884
     7  H    0.052610
     8  H    0.055513
     9  H    0.065652
    10  H    0.091618
 Sum of Mulliken charges =   0.00000

 Dipole moment (field-independent basis, Debye):
    X=              0.0124    Y=             -0.0140    Z=              0.0503  Tot=              0.0537
 Quadrupole moment (field-independent basis, Debye-Ang):
   XX=            -23.6138   YY=            -23.0314   ZZ=            -29.2846
   XY=              0.0364   XZ=              0.2100   YZ=              0.0261

 1\1\GINC-NODE38\SP\RB2PLYPD3-FC\def2QZVP\C4H6\BOITTIER\26-Aug-2020\0\\
 #p B2PLYPD3/Def2QZVP\\butadiene\\0,1\C,0,-3.832121,0.228507,-0.006985\
 C,0,-2.721093,-0.514921,0.054317\C,0,-1.388423,0.072181,0.03777\C,0,-0
 .259735,-0.647492,0.013304\H,0,-4.818876,-0.213384,0.067214\H,0,-3.753
 55,1.317057,-0.058542\H,0,-2.817564,-1.606991,0.122745\H,0,-1.350841,1
 .1433,0.060669\H,0,-0.342035,-1.729806,0.021685\H,0,0.684181,-0.190163
 ,-0.033925\\Version=ES64L-G09RevD.01\State=1-A\HF=-155.6999752\MP2=-15
 5.9257851\RMSD=3.070e-09\PG=C01 [X(C4H6)]\\@

 Normal termination of Gaussian 09 at Wed Aug 26 21:22:36 2020.
