 Gaussian 09, Revision D.01,
 Gaussian 09:  ES64L-G09RevD.01 24-Apr-2013

 --------------------
 #p B2PLYPD3/Def2QZVP
 --------------------

 ---------
 butadiene
 ---------
 Symbolic Z-matrix:
 Charge =  0 Multiplicity = 1

                         Standard orientation:
 ---------------------------------------------------------------------
 Center     Atomic      Atomic             Coordinates (Angstroms)
 Number     Number       Type             X           Y           Z
 ---------------------------------------------------------------------
      1          6           0       -1.841005   -0.123359    0.008015
      2          6           0       -0.603536    0.408695   -0.017358
      3          6           0        0.603520   -0.375375   -0.011906
      4          6           0        1.845223    0.094525    0.021255
      5          1           0       -2.726413    0.512250    0.064010
      6          1           0       -2.031402   -1.165039   -0.027312
      7          1           0       -0.480309    1.489079   -0.008980
      8          1           0        0.464302   -1.458444   -0.000653
      9          1           0        2.051127    1.165349   -0.033427
     10          1           0        2.697479   -0.570111    0.006325
 ---------------------------------------------------------------------

 SCF Done:  E(RB2PLYPD3) =  -155.700183452     A.U. after   11 cycles
 E2(B2PLYPD3) =    -0.2258190762D+00 E(B2PLYPD3) =    -0.15592600252808D+03

 The electronic state is 1-A.
 Alpha  occ. eigenvalues --  -10.62717 -10.62325 -10.61674 -10.61476  -0.93092
 Alpha  occ. eigenvalues --   -0.84872  -0.70508  -0.64009  -0.54648  -0.53987
 Alpha  occ. eigenvalues --   -0.46786  -0.45579  -0.41042  -0.38248  -0.27594
 Alpha virt. eigenvalues --    0.01492   0.06974   0.07454   0.08017   0.09755
 Alpha virt. eigenvalues --    0.11658   0.12409   0.14839   0.15893   0.16118
 Alpha virt. eigenvalues --    0.18833   0.20470   0.21700   0.22754   0.23691

 Mulliken charges:
               1
     1  C   -0.175752
     2  C   -0.033374
     3  C   -0.023170
     4  C   -0.175580
     5  H    0.082242
     6  H    0.070643
     7  H    0.055744
     8  H    0.050218
     9  H    0.063010
    10  H    0.086020
 Sum of Mulliken charges =   0.00000

 Dipole moment (field-independent basis, Debye):
    X=             -0.0359    Y=             -0.0205    Z=             -0.0274  Tot=              0.0496
 Quadrupole moment (field-independent basis, Debye-Ang):
   XX=            -23.3778   YY=            -23.1540   ZZ=            -29.2667
   XY=              0.2256   XZ=             -0.1948   YZ=              0.0209

 1\1\GINC-NODE02\SP\RB2PLYPD3-FC\def2QZVP\C4H6\BOITTIER\26-Aug-2020\0\\
 #p B2PLYPD3/Def2QZVP\\butadiene\\0,1\C,0,-3.840615,0.239923,0.006903\C
 ,0,-2.720019,-0.506578,0.052238\C,0,-1.390863,0.045243,0.027441\C,0,-0
 .254962,-0.64268,0.012431\H,0,-4.826676,-0.226091,-0.033073\H,0,-3.838
 988,1.299442,0.010539\H,0,-2.794661,-1.591164,0.076469\H,0,-1.331502,1
 .134779,-0.016545\H,0,-0.24643,-1.730965,0.099683\H,0,0.703668,-0.1433
 53,0.010385\\Version=ES64L-G09RevD.01\State=1-A\HF=-155.7001835\MP2=-1
 55.9260025\RMSD=5.575e-09\PG=C01 [X(C4H6)]\\@

 Normal termination of Gaussian 09 at Wed Aug 26 21:28:38 2020.
