 Gaussian 09, Revision D.01,
 Gaussian 09:  ES64L-G09RevD.01 24-Apr-2013

 --------------------
 #p B2PLYPD3/Def2QZVP
 --------------------

 ---------
 butadiene
 ---------
 Symbolic Z-matrix:
 Charge =  0 Multiplicity = 1

                         Standard orientation:
 ---------------------------------------------------------------------
 Center     Atomic      Atomic             Coordinates (Angstroms)
 Number     Number       Type             X           Y           Z
 ---------------------------------------------------------------------
      1          6           0       -1.838415   -0.103987    0.012187
      2          6           0       -0.597387    0.397541   -0.017839
      3          6           0        0.605400   -0.430241   -0.001041
      4          6           0        1.836387    0.116229   -0.004068
      5          1           0       -2.670165    0.567070   -0.016286
      6          1           0       -2.012921   -1.174272    0.048715
      7          1           0       -0.468861    1.483343   -0.011503
      8          1           0        0.440530   -1.481826   -0.043952
      9          1           0        1.950287    1.195427    0.065918
     10          1           0        2.725222   -0.466994    0.021677
 ---------------------------------------------------------------------

 SCF Done:  E(RB2PLYPD3) =  -155.699910896     A.U. after   11 cycles
 E2(B2PLYPD3) =    -0.2259059672D+00 E(B2PLYPD3) =    -0.15592581686355D+03

 The electronic state is 1-A.
 Alpha  occ. eigenvalues --  -10.62609 -10.62529 -10.61569 -10.61326  -0.92849
 Alpha  occ. eigenvalues --   -0.84736  -0.70166  -0.64276  -0.54608  -0.53943
 Alpha  occ. eigenvalues --   -0.46587  -0.45799  -0.41469  -0.37933  -0.27513
 Alpha virt. eigenvalues --    0.01703   0.07047   0.07383   0.08157   0.09345
 Alpha virt. eigenvalues --    0.11728   0.12466   0.14704   0.15789   0.16221
 Alpha virt. eigenvalues --    0.18715   0.20328   0.21707   0.22999   0.24045

 Mulliken charges:
               1
     1  C   -0.183638
     2  C   -0.022973
     3  C   -0.039459
     4  C   -0.172895
     5  H    0.087209
     6  H    0.066696
     7  H    0.052616
     8  H    0.061063
     9  H    0.065130
    10  H    0.086252
 Sum of Mulliken charges =   0.00000

 Dipole moment (field-independent basis, Debye):
    X=              0.0254    Y=             -0.0116    Z=              0.0496  Tot=              0.0569
 Quadrupole moment (field-independent basis, Debye-Ang):
   XX=            -23.6499   YY=            -22.9673   ZZ=            -29.3083
   XY=              0.1440   XZ=              0.1222   YZ=              0.0485

 1\1\GINC-NODE26\SP\RB2PLYPD3-FC\def2QZVP\C4H6\BOITTIER\26-Aug-2020\0\\
 #p B2PLYPD3/Def2QZVP\\butadiene\\0,1\C,0,-3.842132,0.2195,0.007729\C,0
 ,-2.71296,-0.498615,0.050927\C,0,-1.379714,0.09582,0.014826\C,0,-0.268
 693,-0.665298,0.032122\H,0,-4.781979,-0.28811,0.051954\H,0,-3.819135,1
 .302471,-0.055054\H,0,-2.784152,-1.589507,0.071203\H,0,-1.35035,1.1605
 73,0.031922\H,0,-0.3533,-1.748574,-0.011405\H,0,0.711316,-0.254352,-0.
 007188\\Version=ES64L-G09RevD.01\State=1-A\HF=-155.6999109\MP2=-155.92
 58169\RMSD=5.150e-09\PG=C01 [X(C4H6)]\\@

 Normal termination of Gaussian 09 at Wed Aug 26 09:18:03 2020.
