 Gaussian 09, Revision D.01,
 Gaussian 09:  ES64L-G09RevD.01 24-Apr-2013

 --------------------
 #p B2PLYPD3/Def2QZVP
 --------------------

 ---------
 butadiene
 ---------
 Symbolic Z-matrix:
 Charge =  0 Multiplicity = 1

                         Standard orientation:
 ---------------------------------------------------------------------
 Center     Atomic      Atomic             Coordinates (Angstroms)
 Number     Number       Type             X           Y           Z
 ---------------------------------------------------------------------
      1          6           0       -1.828735    0.109880    0.001452
      2          6           0       -0.605743   -0.393401   -0.016046
      3          6           0        0.604623    0.409027   -0.025947
      4          6           0        1.830668   -0.114408    0.015052
      5          1           0       -2.681597   -0.552545    0.043536
      6          1           0       -2.004863    1.181005    0.042321
      7          1           0       -0.444129   -1.482840    0.016757
      8          1           0        0.479925    1.493303    0.017078
      9          1           0        1.907618   -1.193520    0.004532
     10          1           0        2.738164    0.488011    0.028706
 ---------------------------------------------------------------------

 SCF Done:  E(RB2PLYPD3) =  -155.700412412     A.U. after   11 cycles
 E2(B2PLYPD3) =    -0.2256370981D+00 E(B2PLYPD3) =    -0.15592604951029D+03

 The electronic state is 1-A.
 Alpha  occ. eigenvalues --  -10.62493 -10.62420 -10.61533 -10.61344  -0.93171
 Alpha  occ. eigenvalues --   -0.85070  -0.69879  -0.63850  -0.54551  -0.53935
 Alpha  occ. eigenvalues --   -0.46724  -0.45424  -0.41032  -0.38266  -0.27814
 Alpha virt. eigenvalues --    0.01934   0.07035   0.07304   0.08051   0.09630
 Alpha virt. eigenvalues --    0.11735   0.12442   0.14663   0.15830   0.16055
 Alpha virt. eigenvalues --    0.18678   0.20404   0.21541   0.22938   0.23999

 Mulliken charges:
               1
     1  C   -0.176726
     2  C   -0.026109
     3  C   -0.025197
     4  C   -0.176986
     5  H    0.085883
     6  H    0.068112
     7  H    0.048643
     8  H    0.051090
     9  H    0.061754
    10  H    0.089536
 Sum of Mulliken charges =   0.00000

 Dipole moment (field-independent basis, Debye):
    X=              0.0022    Y=              0.0162    Z=              0.1111  Tot=              0.1123
 Quadrupole moment (field-independent basis, Debye-Ang):
   XX=            -23.5969   YY=            -23.1053   ZZ=            -29.2502
   XY=             -0.0339   XZ=             -0.1155   YZ=              0.0423

 1\1\GINC-NODE30\SP\RB2PLYPD3-FC\def2QZVP\C4H6\BOITTIER\26-Aug-2020\0\\
 #p B2PLYPD3/Def2QZVP\\butadiene\\0,1\C,0,-3.831793,0.21985,0.024983\C,
 0,-2.718851,-0.494753,0.021844\C,0,-1.384347,0.077212,-0.008631\C,0,-0
 .271773,-0.656211,0.047248\H,0,-4.789366,-0.27765,0.084146\H,0,-3.8129
 83,1.305898,0.037061\H,0,-2.754922,-1.594262,0.083891\H,0,-1.312573,1.
 167033,0.005288\H,0,-0.389464,-1.731536,0.065649\H,0,0.729024,-0.22604
 2,0.045447\\Version=ES64L-G09RevD.01\State=1-A\HF=-155.7004124\MP2=-15
 5.9260495\RMSD=4.150e-09\PG=C01 [X(C4H6)]\\@

 Normal termination of Gaussian 09 at Wed Aug 26 14:28:58 2020.
