 Gaussian 09, Revision D.01,
 Gaussian 09:  ES64L-G09RevD.01 24-Apr-2013

 --------------------
 #p B2PLYPD3/Def2QZVP
 --------------------

 ---------
 butadiene
 ---------
 Symbolic Z-matrix:
 Charge =  0 Multiplicity = 1

                         Standard orientation:
 ---------------------------------------------------------------------
 Center     Atomic      Atomic             Coordinates (Angstroms)
 Number     Number       Type             X           Y           Z
 ---------------------------------------------------------------------
      1          6           0        1.850574    0.116888    0.007746
      2          6           0        0.613892   -0.404646   -0.006523
      3          6           0       -0.609236    0.377454   -0.029423
      4          6           0       -1.844952   -0.104591    0.010815
      5          1           0        2.743485   -0.498254   -0.017432
      6          1           0        1.970996    1.217531    0.107703
      7          1           0        0.474720   -1.499554   -0.053037
      8          1           0       -0.514167    1.475452   -0.034959
      9          1           0       -2.023439   -1.147334    0.101176
     10          1           0       -2.713264    0.541529    0.000864
 ---------------------------------------------------------------------

 SCF Done:  E(RB2PLYPD3) =  -155.699032456     A.U. after   11 cycles
 E2(B2PLYPD3) =    -0.2259674647D+00 E(B2PLYPD3) =    -0.15592499992020D+03

 The electronic state is 1-A.
 Alpha  occ. eigenvalues --  -10.62962 -10.62534 -10.62108 -10.61181  -0.92910
 Alpha  occ. eigenvalues --   -0.84987  -0.70149  -0.63625  -0.54607  -0.53859
 Alpha  occ. eigenvalues --   -0.46816  -0.45306  -0.40880  -0.38140  -0.27767
 Alpha virt. eigenvalues --    0.01611   0.06992   0.07373   0.07955   0.09710
 Alpha virt. eigenvalues --    0.11631   0.12400   0.14647   0.15821   0.16177
 Alpha virt. eigenvalues --    0.18815   0.20467   0.21462   0.22578   0.23766

 Mulliken charges:
               1
     1  C   -0.172662
     2  C   -0.037405
     3  C   -0.018258
     4  C   -0.176100
     5  H    0.090662
     6  H    0.064816
     7  H    0.051501
     8  H    0.047101
     9  H    0.064046
    10  H    0.086300
 Sum of Mulliken charges =   0.00000

 Dipole moment (field-independent basis, Debye):
    X=             -0.0101    Y=             -0.0216    Z=              0.0792  Tot=              0.0827
 Quadrupole moment (field-independent basis, Debye-Ang):
   XX=            -23.3306   YY=            -23.2374   ZZ=            -29.2964
   XY=             -0.0075   XZ=             -0.0826   YZ=              0.0645

 1\1\GINC-NODE35\SP\RB2PLYPD3-FC\def2QZVP\C4H6\BOITTIER\26-Aug-2020\0\\
 #p B2PLYPD3/Def2QZVP\\butadiene\\0,1\C,0,-3.85137,0.228004,0.008881\C,
 0,-2.726253,-0.503106,0.043153\C,0,-1.384071,0.050775,0.039976\C,0,-0.
 253199,-0.643229,0.018379\H,0,-4.838793,-0.218343,0.054631\H,0,-3.7759
 01,1.328417,-0.130055\H,0,-2.78252,-1.603063,0.128501\H,0,-1.28359,1.1
 47797,0.006593\H,0,-0.262234,-1.703616,-0.034855\H,0,0.715662,-0.16083
 3,0.006609\\Version=ES64L-G09RevD.01\State=1-A\HF=-155.6990325\MP2=-15
 5.9249999\RMSD=5.294e-09\PG=C01 [X(C4H6)]\\@

 Normal termination of Gaussian 09 at Wed Aug 26 14:46:13 2020.
