 Gaussian 09, Revision D.01,
 Gaussian 09:  ES64L-G09RevD.01 24-Apr-2013

 --------------------
 #p B2PLYPD3/Def2QZVP
 --------------------

 ---------
 butadiene
 ---------
 Symbolic Z-matrix:
 Charge =  0 Multiplicity = 1

                         Standard orientation:
 ---------------------------------------------------------------------
 Center     Atomic      Atomic             Coordinates (Angstroms)
 Number     Number       Type             X           Y           Z
 ---------------------------------------------------------------------
      1          6           0       -1.830522   -0.120449    0.026250
      2          6           0       -0.604092    0.426915   -0.017304
      3          6           0        0.607301   -0.399062   -0.022278
      4          6           0        1.844135    0.103791    0.009389
      5          1           0       -2.737602    0.484789    0.006191
      6          1           0       -1.962913   -1.199715   -0.021469
      7          1           0       -0.494869    1.505664    0.003384
      8          1           0        0.406979   -1.477457   -0.029800
      9          1           0        1.993103    1.170037   -0.021970
     10          1           0        2.694374   -0.550489    0.087321
 ---------------------------------------------------------------------

 SCF Done:  E(RB2PLYPD3) =  -155.699935916     A.U. after   11 cycles
 E2(B2PLYPD3) =    -0.2260446515D+00 E(B2PLYPD3) =    -0.15592598056705D+03

 The electronic state is 1-A.
 Alpha  occ. eigenvalues --  -10.62758 -10.62702 -10.61767 -10.61391  -0.92778
 Alpha  occ. eigenvalues --   -0.84744  -0.69867  -0.64090  -0.54396  -0.53811
 Alpha  occ. eigenvalues --   -0.46567  -0.45722  -0.41194  -0.37930  -0.27628
 Alpha virt. eigenvalues --    0.01783   0.07029   0.07326   0.08102   0.09332
 Alpha virt. eigenvalues --    0.11721   0.12442   0.14637   0.15815   0.16123
 Alpha virt. eigenvalues --    0.18729   0.20272   0.21626   0.23245   0.23774

 Mulliken charges:
               1
     1  C   -0.174048
     2  C   -0.033096
     3  C   -0.028288
     4  C   -0.180238
     5  H    0.083296
     6  H    0.062992
     7  H    0.056873
     8  H    0.053506
     9  H    0.069936
    10  H    0.089068
 Sum of Mulliken charges =   0.00000

 Dipole moment (field-independent basis, Debye):
    X=             -0.0268    Y=              0.0136    Z=             -0.0083  Tot=              0.0312
 Quadrupole moment (field-independent basis, Debye-Ang):
   XX=            -23.6403   YY=            -23.0182   ZZ=            -29.3441
   XY=              0.1717   XZ=              0.2424   YZ=             -0.0195

 1\1\GINC-NODE18\SP\RB2PLYPD3-FC\def2QZVP\C4H6\BOITTIER\26-Aug-2020\0\\
 #p B2PLYPD3/Def2QZVP\\butadiene\\0,1\C,0,-3.832595,0.234424,-0.005376\
 C,0,-2.724885,-0.523906,0.054189\C,0,-1.384297,0.069546,0.034804\C,0,-
 0.258724,-0.649077,0.01787\H,0,-4.833896,-0.196237,0.032523\H,0,-3.767
 757,1.320776,0.010591\H,0,-2.812271,-1.604785,0.065227\H,0,-1.386647,1
 .166146,0.01062\H,0,-0.304483,-1.723336,0.080564\H,0,0.695212,-0.16161
 1,-0.079316\\Version=ES64L-G09RevD.01\State=1-A\HF=-155.6999359\MP2=-1
 55.9259806\RMSD=3.817e-09\PG=C01 [X(C4H6)]\\@

 Normal termination of Gaussian 09 at Wed Aug 26 18:45:13 2020.
