 Gaussian 09, Revision D.01,
 Gaussian 09:  ES64L-G09RevD.01 24-Apr-2013

 --------------------
 #p B2PLYPD3/Def2QZVP
 --------------------

 ---------
 butadiene
 ---------
 Symbolic Z-matrix:
 Charge =  0 Multiplicity = 1

                         Standard orientation:
 ---------------------------------------------------------------------
 Center     Atomic      Atomic             Coordinates (Angstroms)
 Number     Number       Type             X           Y           Z
 ---------------------------------------------------------------------
      1          6           0        1.831480    0.115427    0.051192
      2          6           0        0.617921   -0.401366   -0.040220
      3          6           0       -0.594203    0.374114   -0.055167
      4          6           0       -1.850653   -0.107344    0.020334
      5          1           0        2.730795   -0.502849   -0.032575
      6          1           0        1.979209    1.239174    0.008127
      7          1           0        0.563506   -1.503243    0.045849
      8          1           0       -0.507728    1.451446   -0.007302
      9          1           0       -2.107327   -1.146991    0.009771
     10          1           0       -2.685720    0.577478    0.119301
 ---------------------------------------------------------------------

 SCF Done:  E(RB2PLYPD3) =  -155.695202495     A.U. after   11 cycles
 E2(B2PLYPD3) =    -0.2262636023D+00 E(B2PLYPD3) =    -0.15592146609724D+03

 The electronic state is 1-A.
 Alpha  occ. eigenvalues --  -10.62675 -10.62553 -10.62003 -10.61641  -0.93114
 Alpha  occ. eigenvalues --   -0.84964  -0.70124  -0.63626  -0.54544  -0.53941
 Alpha  occ. eigenvalues --   -0.46426  -0.45001  -0.41039  -0.38273  -0.27693
 Alpha virt. eigenvalues --    0.01458   0.06976   0.07409   0.07857   0.09683
 Alpha virt. eigenvalues --    0.11604   0.12396   0.14637   0.15634   0.16344
 Alpha virt. eigenvalues --    0.18914   0.19704   0.21709   0.22624   0.23996

 Mulliken charges:
               1
     1  C   -0.162105
     2  C   -0.030966
     3  C   -0.031982
     4  C   -0.176411
     5  H    0.083602
     6  H    0.055006
     7  H    0.055291
     8  H    0.056139
     9  H    0.070465
    10  H    0.080962
 Sum of Mulliken charges =   0.00000

 Dipole moment (field-independent basis, Debye):
    X=             -0.0056    Y=             -0.0369    Z=              0.0554  Tot=              0.0668
 Quadrupole moment (field-independent basis, Debye-Ang):
   XX=            -23.4588   YY=            -23.1795   ZZ=            -29.2964
   XY=             -0.0219   XZ=             -0.4557   YZ=              0.0396

 1\1\GINC-NODE37\SP\RB2PLYPD3-FC\def2QZVP\C4H6\BOITTIER\26-Aug-2020\0\\
 #p B2PLYPD3/Def2QZVP\\butadiene\\0,1\C,0,-3.833471,0.223576,-0.029486\
 C,0,-2.730045,-0.497156,0.076119\C,0,-1.399607,0.051135,0.063993\C,0,-
 0.248963,-0.647642,0.00156\H,0,-4.827461,-0.222487,0.075691\H,0,-3.779
 399,1.356496,-0.022086\H,0,-2.8724,-1.593352,0.025214\H,0,-1.29416,1.1
 24705,-0.018123\H,0,-0.180512,-1.715489,0.044868\H,0,0.693475,-0.12519
 9,-0.120816\\Version=ES64L-G09RevD.01\State=1-A\HF=-155.6952025\MP2=-1
 55.9214661\RMSD=6.842e-09\PG=C01 [X(C4H6)]\\@

 Normal termination of Gaussian 09 at Wed Aug 26 09:25:59 2020.
