 Gaussian 09, Revision D.01,
 Gaussian 09:  ES64L-G09RevD.01 24-Apr-2013

 --------------------
 #p B2PLYPD3/Def2QZVP
 --------------------

 ---------
 butadiene
 ---------
 Symbolic Z-matrix:
 Charge =  0 Multiplicity = 1

                         Standard orientation:
 ---------------------------------------------------------------------
 Center     Atomic      Atomic             Coordinates (Angstroms)
 Number     Number       Type             X           Y           Z
 ---------------------------------------------------------------------
      1          6           0        1.835379    0.115530    0.052858
      2          6           0        0.618358   -0.429108   -0.071495
      3          6           0       -0.579970    0.396818   -0.011292
      4          6           0       -1.865509   -0.109254    0.001555
      5          1           0        2.707630   -0.519633   -0.118456
      6          1           0        1.938644    1.241507    0.221361
      7          1           0        0.492462   -1.474459   -0.022948
      8          1           0       -0.444446    1.398212   -0.149612
      9          1           0       -2.177156   -1.106631    0.291155
     10          1           0       -2.566684    0.617081   -0.051260
 ---------------------------------------------------------------------

 SCF Done:  E(RB2PLYPD3) =  -155.679638019     A.U. after   12 cycles
 E2(B2PLYPD3) =    -0.2269881867D+00 E(B2PLYPD3) =    -0.15590662620604D+03

 The electronic state is 1-A.
 Alpha  occ. eigenvalues --  -10.62408 -10.62379 -10.62099 -10.61207  -0.92810
 Alpha  occ. eigenvalues --   -0.84544  -0.70503  -0.64832  -0.54308  -0.53844
 Alpha  occ. eigenvalues --   -0.46746  -0.45897  -0.41936  -0.37310  -0.27094
 Alpha virt. eigenvalues --    0.00952   0.06979   0.07508   0.08182   0.09002
 Alpha virt. eigenvalues --    0.11710   0.12182   0.15049   0.15364   0.16353
 Alpha virt. eigenvalues --    0.18224   0.19650   0.21803   0.22643   0.24615

 Mulliken charges:
               1
     1  C   -0.170155
     2  C   -0.035861
     3  C   -0.054190
     4  C   -0.185003
     5  H    0.086352
     6  H    0.062383
     7  H    0.069445
     8  H    0.071933
     9  H    0.077422
    10  H    0.077675
 Sum of Mulliken charges =   0.00000

 Dipole moment (field-independent basis, Debye):
    X=              0.0466    Y=             -0.0008    Z=              0.1190  Tot=              0.1278
 Quadrupole moment (field-independent basis, Debye-Ang):
   XX=            -24.0417   YY=            -22.9001   ZZ=            -29.1872
   XY=              0.1865   XZ=             -0.3947   YZ=             -0.2320

 1\1\GINC-NODE10\SP\RB2PLYPD3-FC\def2QZVP\C4H6\BOITTIER\26-Aug-2020\0\\
 #p B2PLYPD3/Def2QZVP\\butadiene\\0,1\C,0,-3.833214,0.239193,-0.028677\
 C,0,-2.737049,-0.518587,0.10333\C,0,-1.407147,0.070474,0.024999\C,0,-0
 .237287,-0.66456,0.018957\H,0,-4.806801,-0.220654,0.156451\H,0,-3.7276
 77,1.361617,-0.21817\H,0,-2.806665,-1.569907,0.074244\H,0,-1.354611,1.
 082008,0.144692\H,0,-0.116836,-1.707435,-0.252441\H,0,0.58626,-0.07945
 ,0.056563\\Version=ES64L-G09RevD.01\State=1-A\HF=-155.679638\MP2=-155.
 9066262\RMSD=6.244e-09\PG=C01 [X(C4H6)]\\@

 Normal termination of Gaussian 09 at Wed Aug 26 12:40:12 2020.
