 Gaussian 09, Revision D.01,
 Gaussian 09:  ES64L-G09RevD.01 24-Apr-2013

 --------------------
 #p B2PLYPD3/Def2QZVP
 --------------------

 ---------
 butadiene
 ---------
 Symbolic Z-matrix:
 Charge =  0 Multiplicity = 1

                         Standard orientation:
 ---------------------------------------------------------------------
 Center     Atomic      Atomic             Coordinates (Angstroms)
 Number     Number       Type             X           Y           Z
 ---------------------------------------------------------------------
      1          6           0        1.845362    0.081622   -0.048018
      2          6           0        0.608626   -0.371497    0.004214
      3          6           0       -0.597384    0.418771    0.043509
      4          6           0       -1.838783   -0.125657   -0.027366
      5          1           0        2.646934   -0.548103    0.064195
      6          1           0        2.047403    1.113118   -0.071354
      7          1           0        0.434096   -1.421547    0.209721
      8          1           0       -0.455066    1.511692    0.108218
      9          1           0       -2.052534   -1.178551   -0.133777
     10          1           0       -2.727766    0.503955   -0.011035
 ---------------------------------------------------------------------

 SCF Done:  E(RB2PLYPD3) =  -155.694613942     A.U. after   11 cycles
 E2(B2PLYPD3) =    -0.2256260704D+00 E(B2PLYPD3) =    -0.15592024001252D+03

 The electronic state is 1-A.
 Alpha  occ. eigenvalues --  -10.63058 -10.62061 -10.61988 -10.60262  -0.93122
 Alpha  occ. eigenvalues --   -0.84998  -0.70986  -0.64004  -0.55275  -0.53910
 Alpha  occ. eigenvalues --   -0.47292  -0.45808  -0.41052  -0.37815  -0.27658
 Alpha virt. eigenvalues --    0.01450   0.07093   0.07463   0.08077   0.09638
 Alpha virt. eigenvalues --    0.11638   0.12525   0.14989   0.15562   0.16308
 Alpha virt. eigenvalues --    0.18896   0.20144   0.22022   0.22701   0.23630

 Mulliken charges:
               1
     1  C   -0.180853
     2  C   -0.014326
     3  C   -0.044481
     4  C   -0.173690
     5  H    0.087380
     6  H    0.062526
     7  H    0.055613
     8  H    0.054838
     9  H    0.071050
    10  H    0.081944
 Sum of Mulliken charges =   0.00000

 Dipole moment (field-independent basis, Debye):
    X=             -0.0193    Y=              0.0045    Z=              0.1714  Tot=              0.1725
 Quadrupole moment (field-independent basis, Debye-Ang):
   XX=            -23.2721   YY=            -23.2532   ZZ=            -29.1149
   XY=              0.4212   XZ=              0.4599   YZ=             -0.0864

 1\1\GINC-NODE28\SP\RB2PLYPD3-FC\def2QZVP\C4H6\BOITTIER\26-Aug-2020\0\\
 #p B2PLYPD3/Def2QZVP\\butadiene\\0,1\C,0,-3.848841,0.20707,0.057001\C,
 0,-2.717138,-0.467948,0.022937\C,0,-1.385841,0.084595,-0.030659\C,0,-0
 .266463,-0.677728,0.060738\H,0,-4.752956,-0.26648,-0.042944\H,0,-3.856
 774,1.258386,0.052486\H,0,-2.739623,-1.537235,-0.154315\H,0,-1.323704,
 1.182891,-0.124475\H,0,-0.25101,-1.748793,0.19557\H,0,0.723571,-0.2238
 42,0.032638\\Version=ES64L-G09RevD.01\State=1-A\HF=-155.6946139\MP2=-1
 55.92024\RMSD=9.291e-09\PG=C01 [X(C4H6)]\\@

 Normal termination of Gaussian 09 at Wed Aug 26 08:48:26 2020.
