 Gaussian 09, Revision D.01,
 Gaussian 09:  ES64L-G09RevD.01 24-Apr-2013

 --------------------
 #p B2PLYPD3/Def2QZVP
 --------------------

 ---------
 butadiene
 ---------
 Symbolic Z-matrix:
 Charge =  0 Multiplicity = 1

                         Standard orientation:
 ---------------------------------------------------------------------
 Center     Atomic      Atomic             Coordinates (Angstroms)
 Number     Number       Type             X           Y           Z
 ---------------------------------------------------------------------
      1          6           0       -1.872516    0.068318    0.075399
      2          6           0       -0.610710   -0.349718   -0.079840
      3          6           0        0.605844    0.403804   -0.130163
      4          6           0        1.828861   -0.117424    0.068703
      5          1           0       -2.610485   -0.611164    0.138389
      6          1           0       -2.133171    1.133519    0.045588
      7          1           0       -0.329756   -1.399203   -0.071544
      8          1           0        0.519140    1.537832    0.019590
      9          1           0        2.101243   -1.190515    0.037628
     10          1           0        2.744159    0.499654    0.225756
 ---------------------------------------------------------------------

 SCF Done:  E(RB2PLYPD3) =  -155.683851149     A.U. after   11 cycles
 E2(B2PLYPD3) =    -0.2268942492D+00 E(B2PLYPD3) =    -0.15591074539819D+03

 The electronic state is 1-A.
 Alpha  occ. eigenvalues --  -10.63301 -10.62757 -10.62545 -10.61046  -0.93126
 Alpha  occ. eigenvalues --   -0.84895  -0.71283  -0.63141  -0.55566  -0.53081
 Alpha  occ. eigenvalues --   -0.47452  -0.45141  -0.39934  -0.38378  -0.27641
 Alpha virt. eigenvalues --    0.01045   0.07005   0.07305   0.08036   0.09624
 Alpha virt. eigenvalues --    0.11456   0.12404   0.14843   0.15471   0.16238
 Alpha virt. eigenvalues --    0.19066   0.19544   0.22316   0.22959   0.23427

 Mulliken charges:
               1
     1  C   -0.183022
     2  C   -0.025708
     3  C   -0.023443
     4  C   -0.163147
     5  H    0.095524
     6  H    0.070517
     7  H    0.044886
     8  H    0.046092
     9  H    0.060693
    10  H    0.077608
 Sum of Mulliken charges =   0.00000

 Dipole moment (field-independent basis, Debye):
    X=              0.1429    Y=             -0.0689    Z=              0.2049  Tot=              0.2591
 Quadrupole moment (field-independent basis, Debye-Ang):
   XX=            -23.0494   YY=            -23.5408   ZZ=            -29.2421
   XY=             -0.5007   XZ=              0.3088   YZ=              0.1662

 1\1\GINC-NODE13\SP\RB2PLYPD3-FC\def2QZVP\C4H6\BOITTIER\26-Aug-2020\0\\
 #p B2PLYPD3/Def2QZVP\\butadiene\\0,1\C,0,-3.87315,0.204939,0.098038\C,
 0,-2.712444,-0.44658,-0.040862\C,0,-1.376066,0.063497,-0.106019\C,0,-0
 .272526,-0.672593,0.111624\H,0,-4.725543,-0.321964,0.175889\H,0,-3.929
 141,1.298952,0.039016\H,0,-2.633583,-1.529548,-0.003678\H,0,-1.248116,
 1.197226,0.013363\H,0,-0.206553,-1.778182,0.110039\H,0,0.742514,-0.234
 377,0.256122\\Version=ES64L-G09RevD.01\State=1-A\HF=-155.6838511\MP2=-
 155.9107454\RMSD=5.534e-09\PG=C01 [X(C4H6)]\\@

 Normal termination of Gaussian 09 at Wed Aug 26 11:41:58 2020.
