 Gaussian 09, Revision D.01,
 Gaussian 09:  ES64L-G09RevD.01 24-Apr-2013

 --------------------
 #p B2PLYPD3/Def2QZVP
 --------------------

 ---------
 butadiene
 ---------
 Symbolic Z-matrix:
 Charge =  0 Multiplicity = 1

                         Standard orientation:
 ---------------------------------------------------------------------
 Center     Atomic      Atomic             Coordinates (Angstroms)
 Number     Number       Type             X           Y           Z
 ---------------------------------------------------------------------
      1          6           0       -1.839864   -0.110973   -0.012061
      2          6           0       -0.608548    0.399286    0.010863
      3          6           0        0.600190   -0.406985    0.018206
      4          6           0        1.846146    0.117111   -0.017710
      5          1           0       -2.700034    0.545990   -0.008814
      6          1           0       -2.001982   -1.167585   -0.012693
      7          1           0       -0.460279    1.488379   -0.004986
      8          1           0        0.461203   -1.479201    0.031837
      9          1           0        2.026374    1.158594    0.039368
     10          1           0        2.687178   -0.536816   -0.040502
 ---------------------------------------------------------------------

 SCF Done:  E(RB2PLYPD3) =  -155.700239644     A.U. after   11 cycles
 E2(B2PLYPD3) =    -0.2258037401D+00 E(B2PLYPD3) =    -0.15592604338369D+03

 The electronic state is 1-A.
 Alpha  occ. eigenvalues --  -10.62694 -10.62546 -10.61336 -10.61325  -0.92875
 Alpha  occ. eigenvalues --   -0.84838  -0.70426  -0.64148  -0.54415  -0.54250
 Alpha  occ. eigenvalues --   -0.46437  -0.46255  -0.41315  -0.37984  -0.27504
 Alpha virt. eigenvalues --    0.01587   0.07016   0.07434   0.08100   0.09526
 Alpha virt. eigenvalues --    0.11738   0.12414   0.14867   0.15858   0.16078
 Alpha virt. eigenvalues --    0.18747   0.20541   0.21640   0.23055   0.23859

 Mulliken charges:
               1
     1  C   -0.179189
     2  C   -0.024393
     3  C   -0.034770
     4  C   -0.181273
     5  H    0.086484
     6  H    0.068453
     7  H    0.051874
     8  H    0.055439
     9  H    0.071888
    10  H    0.085487
 Sum of Mulliken charges =   0.00000

 Dipole moment (field-independent basis, Debye):
    X=             -0.0003    Y=             -0.0053    Z=              0.0286  Tot=              0.0291
 Quadrupole moment (field-independent basis, Debye-Ang):
   XX=            -23.5881   YY=            -22.9825   ZZ=            -29.2907
   XY=              0.2258   XZ=              0.0285   YZ=              0.0452

 1\1\GINC-NODE22\SP\RB2PLYPD3-FC\def2QZVP\C4H6\BOITTIER\26-Aug-2020\0\\
 #p B2PLYPD3/Def2QZVP\\butadiene\\0,1\C,0,-3.841256,0.227307,0.030972\C
 ,0,-2.722707,-0.497833,0.023933\C,0,-1.388046,0.075822,-0.003868\C,0,-
 0.257394,-0.66396,0.048313\H,0,-4.806124,-0.262946,0.044581\H,0,-3.809
 47,1.295425,0.002231\H,0,-2.773933,-1.594924,0.070025\H,0,-1.330738,1.
 154703,-0.047263\H,0,-0.268831,-1.722028,0.02024\H,0,0.688172,-0.17269
 2,0.054298\\Version=ES64L-G09RevD.01\State=1-A\HF=-155.7002396\MP2=-15
 5.9260434\RMSD=5.744e-09\PG=C01 [X(C4H6)]\\@

 Normal termination of Gaussian 09 at Wed Aug 26 18:49:03 2020.
