 Gaussian 09, Revision D.01,
 Gaussian 09:  ES64L-G09RevD.01 24-Apr-2013

 --------------------
 #p B2PLYPD3/Def2QZVP
 --------------------

 ---------
 butadiene
 ---------
 Symbolic Z-matrix:
 Charge =  0 Multiplicity = 1

                         Standard orientation:
 ---------------------------------------------------------------------
 Center     Atomic      Atomic             Coordinates (Angstroms)
 Number     Number       Type             X           Y           Z
 ---------------------------------------------------------------------
      1          6           0        1.830419    0.121266   -0.018805
      2          6           0        0.597849   -0.442930    0.011988
      3          6           0       -0.603338    0.384072    0.036070
      4          6           0       -1.829574   -0.102825   -0.016629
      5          1           0        2.777373   -0.447481   -0.036694
      6          1           0        1.910385    1.216911    0.018298
      7          1           0        0.403043   -1.479383    0.031832
      8          1           0       -0.423017    1.480019   -0.025417
      9          1           0       -1.994254   -1.131020   -0.021139
     10          1           0       -2.645670    0.603452   -0.042626
 ---------------------------------------------------------------------

 SCF Done:  E(RB2PLYPD3) =  -155.695718823     A.U. after   11 cycles
 E2(B2PLYPD3) =    -0.2260159380D+00 E(B2PLYPD3) =    -0.15592173476072D+03

 The electronic state is 1-A.
 Alpha  occ. eigenvalues --  -10.62620 -10.62345 -10.62328 -10.60721  -0.93091
 Alpha  occ. eigenvalues --   -0.84753  -0.69984  -0.64388  -0.54295  -0.54082
 Alpha  occ. eigenvalues --   -0.46736  -0.45751  -0.41072  -0.38085  -0.27597
 Alpha virt. eigenvalues --    0.01791   0.06983   0.07373   0.08133   0.09360
 Alpha virt. eigenvalues --    0.11769   0.12470   0.14694   0.15639   0.16137
 Alpha virt. eigenvalues --    0.18598   0.20263   0.21741   0.23059   0.24241

 Mulliken charges:
               1
     1  C   -0.170754
     2  C   -0.045658
     3  C   -0.007574
     4  C   -0.188856
     5  H    0.085072
     6  H    0.064071
     7  H    0.059512
     8  H    0.046620
     9  H    0.070344
    10  H    0.087224
 Sum of Mulliken charges =   0.00000

 Dipole moment (field-independent basis, Debye):
    X=              0.0088    Y=             -0.0381    Z=             -0.0336  Tot=              0.0516
 Quadrupole moment (field-independent basis, Debye-Ang):
   XX=            -23.7318   YY=            -23.0293   ZZ=            -29.2961
   XY=              0.2451   XZ=              0.1315   YZ=             -0.0425

 1\1\GINC-NODE01\SP\RB2PLYPD3-FC\def2QZVP\C4H6\BOITTIER\26-Aug-2020\0\\
 #p B2PLYPD3/Def2QZVP\\butadiene\\0,1\C,0,-3.829084,0.243225,0.03712\C,
 0,-2.720481,-0.537344,0.022722\C,0,-1.388385,0.055355,-0.01717\C,0,-0.
 27175,-0.646144,0.050099\H,0,-4.864027,-0.14226,0.065552\H,0,-3.707454
 ,1.333865,-0.025486\H,0,-2.718472,-1.59212,0.027344\H,0,-1.365212,1.16
 6924,0.018506\H,0,-0.297812,-1.686732,0.078795\H,0,0.659752,-0.100545,
 0.062009\\Version=ES64L-G09RevD.01\State=1-A\HF=-155.6957188\MP2=-155.
 9217348\RMSD=7.759e-09\PG=C01 [X(C4H6)]\\@

 Normal termination of Gaussian 09 at Wed Aug 26 09:59:26 2020.
