 Gaussian 09, Revision D.01,
 Gaussian 09:  ES64L-G09RevD.01 24-Apr-2013

 --------------------
 #p B2PLYPD3/Def2QZVP
 --------------------

 ---------
 butadiene
 ---------
 Symbolic Z-matrix:
 Charge =  0 Multiplicity = 1

                         Standard orientation:
 ---------------------------------------------------------------------
 Center     Atomic      Atomic             Coordinates (Angstroms)
 Number     Number       Type             X           Y           Z
 ---------------------------------------------------------------------
      1          6           0       -1.845962   -0.123552    0.025095
      2          6           0       -0.608708    0.422547   -0.032113
      3          6           0        0.609782   -0.384191   -0.013017
      4          6           0        1.857569    0.092726    0.017097
      5          1           0       -2.727808    0.499277   -0.010484
      6          1           0       -2.015931   -1.206201    0.039184
      7          1           0       -0.470346    1.487388   -0.018815
      8          1           0        0.447092   -1.435189   -0.037606
      9          1           0        1.989858    1.164066    0.065265
     10          1           0        2.701054   -0.554521   -0.019911
 ---------------------------------------------------------------------

 SCF Done:  E(RB2PLYPD3) =  -155.699501717     A.U. after   11 cycles
 E2(B2PLYPD3) =    -0.2259406753D+00 E(B2PLYPD3) =    -0.15592544239269D+03

 The electronic state is 1-A.
 Alpha  occ. eigenvalues --  -10.62844 -10.62217 -10.62057 -10.61274  -0.92766
 Alpha  occ. eigenvalues --   -0.84733  -0.70297  -0.64385  -0.54717  -0.53738
 Alpha  occ. eigenvalues --   -0.46979  -0.45719  -0.41318  -0.37840  -0.27568
 Alpha virt. eigenvalues --    0.01516   0.07003   0.07461   0.08165   0.09501
 Alpha virt. eigenvalues --    0.11694   0.12421   0.14682   0.15862   0.16082
 Alpha virt. eigenvalues --    0.18832   0.20497   0.21523   0.22942   0.23822

 Mulliken charges:
               1
     1  C   -0.173859
     2  C   -0.041996
     3  C   -0.022150
     4  C   -0.183131
     5  H    0.084802
     6  H    0.067536
     7  H    0.058114
     8  H    0.054568
     9  H    0.064005
    10  H    0.092110
 Sum of Mulliken charges =   0.00000

 Dipole moment (field-independent basis, Debye):
    X=             -0.0444    Y=             -0.0162    Z=             -0.0153  Tot=              0.0496
 Quadrupole moment (field-independent basis, Debye-Ang):
   XX=            -23.4757   YY=            -23.0784   ZZ=            -29.3231
   XY=              0.1260   XZ=             -0.0024   YZ=              0.0679

 1\1\GINC-NODE07\SP\RB2PLYPD3-FC\def2QZVP\C4H6\BOITTIER\26-Aug-2020\0\\
 #p B2PLYPD3/Def2QZVP\\butadiene\\0,1\C,0,-3.84674,0.239467,-0.006585\C
 ,0,-2.728086,-0.519163,0.066821\C,0,-1.38415,0.053802,0.028666\C,0,-0.
 242931,-0.640968,0.012995\H,0,-4.826335,-0.212959,0.043795\H,0,-3.8187
 15,1.334281,-0.049154\H,0,-2.784073,-1.591477,0.081497\H,0,-1.354553,1
 .117185,0.025599\H,0,-0.306172,-1.71948,-0.007028\H,0,0.703562,-0.1557
 32,0.034479\\Version=ES64L-G09RevD.01\State=1-A\HF=-155.6995017\MP2=-1
 55.9254424\RMSD=5.896e-09\PG=C01 [X(C4H6)]\\@

 Normal termination of Gaussian 09 at Wed Aug 26 09:57:15 2020.
