 Gaussian 09, Revision D.01,
 Gaussian 09:  ES64L-G09RevD.01 24-Apr-2013

 --------------------
 #p B2PLYPD3/Def2QZVP
 --------------------

 ---------
 butadiene
 ---------
 Symbolic Z-matrix:
 Charge =  0 Multiplicity = 1

                         Standard orientation:
 ---------------------------------------------------------------------
 Center     Atomic      Atomic             Coordinates (Angstroms)
 Number     Number       Type             X           Y           Z
 ---------------------------------------------------------------------
      1          6           0       -1.811557    0.099109   -0.060272
      2          6           0       -0.586008   -0.369557   -0.005026
      3          6           0        0.586645    0.428335    0.045724
      4          6           0        1.784117   -0.125427   -0.026672
      5          1           0       -2.558228   -0.649136    0.033677
      6          1           0       -2.127541    1.164421    0.075696
      7          1           0       -0.456506   -1.484268    0.224633
      8          1           0        0.572012    1.556188    0.048331
      9          1           0        1.912421   -1.176204   -0.076653
     10          1           0        2.818660    0.394235   -0.028213
 ---------------------------------------------------------------------

 SCF Done:  E(RB2PLYPD3) =  -155.681287328     A.U. after   11 cycles
 E2(B2PLYPD3) =    -0.2264714009D+00 E(B2PLYPD3) =    -0.15590775872890D+03

 The electronic state is 1-A.
 Alpha  occ. eigenvalues --  -10.62641 -10.62509 -10.61790 -10.61118  -0.93825
 Alpha  occ. eigenvalues --   -0.85261  -0.69748  -0.63170  -0.54678  -0.53770
 Alpha  occ. eigenvalues --   -0.46080  -0.44382  -0.40821  -0.38415  -0.27849
 Alpha virt. eigenvalues --    0.01891   0.06891   0.07099   0.07750   0.09478
 Alpha virt. eigenvalues --    0.11444   0.12581   0.14630   0.15302   0.16843
 Alpha virt. eigenvalues --    0.18643   0.19777   0.21961   0.22434   0.23930

 Mulliken charges:
               1
     1  C   -0.173935
     2  C   -0.023422
     3  C   -0.028050
     4  C   -0.158874
     5  H    0.074802
     6  H    0.071548
     7  H    0.052118
     8  H    0.057089
     9  H    0.058313
    10  H    0.070409
 Sum of Mulliken charges =   0.00000

 Dipole moment (field-independent basis, Debye):
    X=              0.0896    Y=             -0.0290    Z=              0.2833  Tot=              0.2985
 Quadrupole moment (field-independent basis, Debye-Ang):
   XX=            -23.7437   YY=            -23.1720   ZZ=            -29.1596
   XY=             -0.2916   XZ=             -0.6462   YZ=             -0.1067

 1\1\GINC-NODE12\SP\RB2PLYPD3-FC\def2QZVP\C4H6\BOITTIER\26-Aug-2020\0\\
 #p B2PLYPD3/Def2QZVP\\butadiene\\0,1\C,0,-3.813069,0.208195,-0.026948\
 C,0,-2.693205,-0.474409,0.041076\C,0,-1.394147,0.096941,0.059304\C,0,-
 0.318672,-0.668569,0.002916\H,0,-4.682845,-0.387226,0.096251\H,0,-3.92
 7897,1.317385,0.071717\H,0,-2.767158,-1.585357,0.310184\H,0,-1.202591,
 1.207863,0.021462\H,0,-0.384865,-1.726185,-0.009725\H,0,0.793294,-0.34
 7158,-0.020671\\Version=ES64L-G09RevD.01\State=1-A\HF=-155.6812873\MP2
 =-155.9077587\RMSD=5.102e-09\PG=C01 [X(C4H6)]\\@

 Normal termination of Gaussian 09 at Wed Aug 26 13:31:48 2020.
