 Gaussian 09, Revision D.01,
 Gaussian 09:  ES64L-G09RevD.01 24-Apr-2013

 --------------------
 #p B2PLYPD3/Def2QZVP
 --------------------

 ---------
 butadiene
 ---------
 Symbolic Z-matrix:
 Charge =  0 Multiplicity = 1

                         Standard orientation:
 ---------------------------------------------------------------------
 Center     Atomic      Atomic             Coordinates (Angstroms)
 Number     Number       Type             X           Y           Z
 ---------------------------------------------------------------------
      1          6           0        1.859307    0.103754    0.020936
      2          6           0        0.611267   -0.370237   -0.015818
      3          6           0       -0.608128    0.395069   -0.036247
      4          6           0       -1.834775   -0.123495   -0.001587
      5          1           0        2.694586   -0.582977    0.065327
      6          1           0        1.963459    1.156913    0.009498
      7          1           0        0.402780   -1.444350   -0.037601
      8          1           0       -0.536162    1.516350   -0.041446
      9          1           0       -1.993802   -1.205945    0.019571
     10          1           0       -2.696889    0.529464    0.180952
 ---------------------------------------------------------------------

 SCF Done:  E(RB2PLYPD3) =  -155.696110053     A.U. after   11 cycles
 E2(B2PLYPD3) =    -0.2261676748D+00 E(B2PLYPD3) =    -0.15592227772798D+03

 The electronic state is 1-A.
 Alpha  occ. eigenvalues --  -10.62750 -10.62473 -10.61840 -10.61404  -0.93183
 Alpha  occ. eigenvalues --   -0.85107  -0.70320  -0.63467  -0.54567  -0.53911
 Alpha  occ. eigenvalues --   -0.46628  -0.45723  -0.40829  -0.38220  -0.27727
 Alpha virt. eigenvalues --    0.01486   0.06972   0.07324   0.07960   0.09853
 Alpha virt. eigenvalues --    0.11764   0.12307   0.14712   0.15775   0.15902
 Alpha virt. eigenvalues --    0.18756   0.20414   0.21252   0.22763   0.24016

 Mulliken charges:
               1
     1  C   -0.185408
     2  C   -0.022801
     3  C   -0.019322
     4  C   -0.174124
     5  H    0.096496
     6  H    0.072648
     7  H    0.044566
     8  H    0.041054
     9  H    0.061770
    10  H    0.085121
 Sum of Mulliken charges =   0.00000

 Dipole moment (field-independent basis, Debye):
    X=             -0.0286    Y=             -0.0121    Z=              0.1463  Tot=              0.1495
 Quadrupole moment (field-independent basis, Debye-Ang):
   XX=            -23.6875   YY=            -23.1846   ZZ=            -29.2562
   XY=             -0.0267   XZ=             -0.3830   YZ=              0.0622

 1\1\GINC-NODE15\SP\RB2PLYPD3-FC\def2QZVP\C4H6\BOITTIER\26-Aug-2020\0\\
 #p B2PLYPD3/Def2QZVP\\butadiene\\0,1\C,0,-3.860674,0.215797,-0.000984\
 C,0,-2.716376,-0.470989,0.04932\C,0,-1.380386,0.065798,0.044236\C,0,-0
 .265532,-0.663234,0.024591\H,0,-4.804869,-0.312675,-0.022756\H,0,-3.77
 6143,1.270551,-0.022665\H,0,-2.701728,-1.563863,0.10475\H,0,-1.252131,
 1.181648,0.014134\H,0,-0.301325,-1.756847,0.03742\H,0,0.697556,-0.1797
 49,-0.179418\\Version=ES64L-G09RevD.01\State=1-A\HF=-155.6961101\MP2=-
 155.9222777\RMSD=4.618e-09\PG=C01 [X(C4H6)]\\@

 Normal termination of Gaussian 09 at Wed Aug 26 08:58:41 2020.
