 Gaussian 09, Revision D.01,
 Gaussian 09:  ES64L-G09RevD.01 24-Apr-2013

 --------------------
 #p B2PLYPD3/Def2QZVP
 --------------------

 ---------
 butadiene
 ---------
 Symbolic Z-matrix:
 Charge =  0 Multiplicity = 1

                         Standard orientation:
 ---------------------------------------------------------------------
 Center     Atomic      Atomic             Coordinates (Angstroms)
 Number     Number       Type             X           Y           Z
 ---------------------------------------------------------------------
      1          6           0        1.859775   -0.170790   -0.001321
      2          6           0        0.632338    0.446120   -0.010672
      3          6           0       -0.656289   -0.349575   -0.070762
      4          6           0       -1.864053    0.093822    0.028473
      5          1           0        2.698013    0.504457    0.205451
      6          1           0        2.030571   -1.225430    0.071937
      7          1           0        0.593254    1.492274   -0.108929
      8          1           0       -0.520776   -1.432927   -0.063789
      9          1           0       -1.940846    1.128028    0.027731
     10          1           0       -2.690836   -0.583866    0.193292
 ---------------------------------------------------------------------

 SCF Done:  E(RB2PLYPD3) =  -155.685269243     A.U. after   11 cycles
 E2(B2PLYPD3) =    -0.2257372435D+00 E(B2PLYPD3) =    -0.15591100648606D+03

 The electronic state is 1-A.
 Alpha  occ. eigenvalues --  -10.63459 -10.62213 -10.62066 -10.60217  -0.92492
 Alpha  occ. eigenvalues --   -0.85450  -0.69546  -0.64351  -0.55153  -0.53501
 Alpha  occ. eigenvalues --   -0.47513  -0.45292  -0.40876  -0.37279  -0.28167
 Alpha virt. eigenvalues --    0.01862   0.06941   0.07645   0.08016   0.09305
 Alpha virt. eigenvalues --    0.11740   0.12355   0.14644   0.15498   0.16119
 Alpha virt. eigenvalues --    0.18803   0.19862   0.21700   0.23194   0.24103

 Mulliken charges:
               1
     1  C   -0.170043
     2  C   -0.070442
     3  C   -0.007612
     4  C   -0.178513
     5  H    0.075667
     6  H    0.076907
     7  H    0.069626
     8  H    0.046895
     9  H    0.064430
    10  H    0.093086
 Sum of Mulliken charges =   0.00000

 Dipole moment (field-independent basis, Debye):
    X=              0.0074    Y=              0.0013    Z=              0.2495  Tot=              0.2496
 Quadrupole moment (field-independent basis, Debye-Ang):
   XX=            -23.9142   YY=            -22.9137   ZZ=            -29.1647
   XY=              0.0833   XZ=              0.0485   YZ=             -0.1825

 1\1\GINC-NODE31\SP\RB2PLYPD3-FC\def2QZVP\C4H6\BOITTIER\26-Aug-2020\0\\
 #p B2PLYPD3/Def2QZVP\\butadiene\\0,1\C,0,-3.860038,0.264494,0.026547\C
 ,0,-2.752328,-0.548058,0.024678\C,0,-1.349384,0.021486,-0.043638\C,0,-
 0.232063,-0.615507,0.06113\H,0,-4.798633,-0.259582,0.240416\H,0,-3.852
 931,1.333597,0.087962\H,0,-2.887935,-1.587162,-0.061894\H,0,-1.3028,1.
 112297,-0.048805\H,0,-0.328366,-1.648022,0.071951\H,0,0.69615,-0.08300
 4,0.218795\\Version=ES64L-G09RevD.01\State=1-A\HF=-155.6852692\MP2=-15
 5.9110065\RMSD=6.971e-09\PG=C01 [X(C4H6)]\\@

 Normal termination of Gaussian 09 at Wed Aug 26 15:59:43 2020.
