 Gaussian 09, Revision D.01,
 Gaussian 09:  ES64L-G09RevD.01 24-Apr-2013

 --------------------
 #p B2PLYPD3/Def2QZVP
 --------------------

 ---------
 butadiene
 ---------
 Symbolic Z-matrix:
 Charge =  0 Multiplicity = 1

                         Standard orientation:
 ---------------------------------------------------------------------
 Center     Atomic      Atomic             Coordinates (Angstroms)
 Number     Number       Type             X           Y           Z
 ---------------------------------------------------------------------
      1          6           0       -1.827848    0.087341    0.048787
      2          6           0       -0.604103   -0.402898   -0.065579
      3          6           0        0.590348    0.442737   -0.016289
      4          6           0        1.832419   -0.128622    0.027988
      5          1           0       -2.712326   -0.520353   -0.007803
      6          1           0       -1.967990    1.164636    0.088980
      7          1           0       -0.456940   -1.429062   -0.057384
      8          1           0        0.446645    1.522353   -0.107057
      9          1           0        1.998352   -1.193233    0.119930
     10          1           0        2.747361    0.464308   -0.006111
 ---------------------------------------------------------------------

 SCF Done:  E(RB2PLYPD3) =  -155.695858106     A.U. after   11 cycles
 E2(B2PLYPD3) =    -0.2261369826D+00 E(B2PLYPD3) =    -0.15592199508866D+03

 The electronic state is 1-A.
 Alpha  occ. eigenvalues --  -10.63290 -10.62091 -10.61815 -10.61151  -0.92891
 Alpha  occ. eigenvalues --   -0.84468  -0.69980  -0.64809  -0.54736  -0.53549
 Alpha  occ. eigenvalues --   -0.46769  -0.45566  -0.41456  -0.37820  -0.27454
 Alpha virt. eigenvalues --    0.01648   0.07049   0.07426   0.08136   0.09175
 Alpha virt. eigenvalues --    0.11677   0.12544   0.14636   0.15637   0.16452
 Alpha virt. eigenvalues --    0.18827   0.20009   0.21989   0.22939   0.23668

 Mulliken charges:
               1
     1  C   -0.167974
     2  C   -0.031518
     3  C   -0.040914
     4  C   -0.179494
     5  H    0.083283
     6  H    0.057970
     7  H    0.066013
     8  H    0.063431
     9  H    0.068904
    10  H    0.080298
 Sum of Mulliken charges =   0.00000

 Dipole moment (field-independent basis, Debye):
    X=              0.0002    Y=             -0.0415    Z=             -0.0318  Tot=              0.0523
 Quadrupole moment (field-independent basis, Debye-Ang):
   XX=            -23.5458   YY=            -23.0315   ZZ=            -29.3015
   XY=             -0.2692   XZ=              0.0324   YZ=             -0.1430

 1\1\GINC-NODE26\SP\RB2PLYPD3-FC\def2QZVP\C4H6\BOITTIER\26-Aug-2020\0\\
 #p B2PLYPD3/Def2QZVP\\butadiene\\0,1\C,0,-3.831833,0.207822,0.065255\C
 ,0,-2.719069,-0.502451,-0.025483\C,0,-1.389805,0.111562,-0.008547\C,0,
 -0.273047,-0.675161,0.062651\H,0,-4.812859,-0.229521,0.031869\H,0,-3.7
 72265,1.293292,0.060091\H,0,-2.762127,-1.536976,0.02591\H,0,-1.333992,
 1.194529,-0.144664\H,0,-0.304254,-1.74741,0.199369\H,0,0.734757,-0.261
 659,0.00612\\Version=ES64L-G09RevD.01\State=1-A\HF=-155.6958581\MP2=-1
 55.9219951\RMSD=7.443e-09\PG=C01 [X(C4H6)]\\@

 Normal termination of Gaussian 09 at Wed Aug 26 09:31:33 2020.
