 Gaussian 09, Revision D.01,
 Gaussian 09:  ES64L-G09RevD.01 24-Apr-2013

 --------------------
 #p B2PLYPD3/Def2QZVP
 --------------------

 ---------
 butadiene
 ---------
 Symbolic Z-matrix:
 Charge =  0 Multiplicity = 1

                         Standard orientation:
 ---------------------------------------------------------------------
 Center     Atomic      Atomic             Coordinates (Angstroms)
 Number     Number       Type             X           Y           Z
 ---------------------------------------------------------------------
      1          6           0       -1.837715   -0.106995    0.019680
      2          6           0       -0.607112    0.398287   -0.024508
      3          6           0        0.599012   -0.422452   -0.028400
      4          6           0        1.832996    0.111219    0.000422
      5          1           0       -2.701182    0.527088    0.081875
      6          1           0       -2.029035   -1.168065    0.014997
      7          1           0       -0.463961    1.487517   -0.004627
      8          1           0        0.551395   -1.516379   -0.071912
      9          1           0        1.939831    1.248092   -0.028078
     10          1           0        2.779866   -0.458612    0.204581
 ---------------------------------------------------------------------

 SCF Done:  E(RB2PLYPD3) =  -155.694169950     A.U. after   11 cycles
 E2(B2PLYPD3) =    -0.2266269103D+00 E(B2PLYPD3) =    -0.15592079686014D+03

 The electronic state is 1-A.
 Alpha  occ. eigenvalues --  -10.62961 -10.62866 -10.62630 -10.61337  -0.92837
 Alpha  occ. eigenvalues --   -0.84679  -0.69495  -0.63736  -0.54309  -0.53716
 Alpha  occ. eigenvalues --   -0.46441  -0.44653  -0.41280  -0.37961  -0.27623
 Alpha virt. eigenvalues --    0.01688   0.06973   0.07283   0.07899   0.09341
 Alpha virt. eigenvalues --    0.11571   0.12464   0.14321   0.15759   0.16349
 Alpha virt. eigenvalues --    0.18786   0.20059   0.21632   0.22849   0.23581

 Mulliken charges:
               1
     1  C   -0.172513
     2  C   -0.031966
     3  C   -0.033355
     4  C   -0.166671
     5  H    0.084431
     6  H    0.068328
     7  H    0.056670
     8  H    0.059930
     9  H    0.050868
    10  H    0.084278
 Sum of Mulliken charges =   0.00000

 Dipole moment (field-independent basis, Debye):
    X=             -0.0428    Y=             -0.0373    Z=              0.1441  Tot=              0.1549
 Quadrupole moment (field-independent basis, Debye-Ang):
   XX=            -23.5533   YY=            -23.1563   ZZ=            -29.3678
   XY=             -0.0041   XZ=              0.2797   YZ=             -0.0288

 1\1\GINC-NODE19\SP\RB2PLYPD3-FC\def2QZVP\C4H6\BOITTIER\26-Aug-2020\0\\
 #p B2PLYPD3/Def2QZVP\\butadiene\\0,1\C,0,-3.840509,0.214731,-0.000693\
 C,0,-2.71928,-0.500261,0.056553\C,0,-1.386327,0.092406,0.037936\C,0,-0
 .267201,-0.653036,0.022959\H,0,-4.803359,-0.256879,-0.045504\H,0,-3.83
 9887,1.292661,-0.024416\H,0,-2.772391,-1.597713,0.065859\H,0,-1.23825,
 1.17809,0.052089\H,0,-0.364279,-1.789612,0.081922\H,0,0.764906,-0.2664
 95,-0.196797\\Version=ES64L-G09RevD.01\State=1-A\HF=-155.6941699\MP2=-
 155.9207969\RMSD=6.328e-09\PG=C01 [X(C4H6)]\\@

 Normal termination of Gaussian 09 at Wed Aug 26 09:15:22 2020.
