 Gaussian 09, Revision D.01,
 Gaussian 09:  ES64L-G09RevD.01 24-Apr-2013

 --------------------
 #p B2PLYPD3/Def2QZVP
 --------------------

 ---------
 butadiene
 ---------
 Symbolic Z-matrix:
 Charge =  0 Multiplicity = 1

                         Standard orientation:
 ---------------------------------------------------------------------
 Center     Atomic      Atomic             Coordinates (Angstroms)
 Number     Number       Type             X           Y           Z
 ---------------------------------------------------------------------
      1          6           0       -1.840122   -0.132832   -0.009063
      2          6           0       -0.611595    0.423785   -0.013817
      3          6           0        0.606331   -0.384246   -0.025225
      4          6           0        1.864469    0.093565    0.008975
      5          1           0       -2.779151    0.478111    0.110645
      6          1           0       -2.023790   -1.183649   -0.015908
      7          1           0       -0.545308    1.559774    0.017888
      8          1           0        0.444696   -1.459132    0.088670
      9          1           0        2.062312    1.162680    0.007666
     10          1           0        2.726746   -0.559411    0.025825
 ---------------------------------------------------------------------

 SCF Done:  E(RB2PLYPD3) =  -155.694907297     A.U. after   11 cycles
 E2(B2PLYPD3) =    -0.2268727488D+00 E(B2PLYPD3) =    -0.15592178004539D+03

 The electronic state is 1-A.
 Alpha  occ. eigenvalues --  -10.63582 -10.63007 -10.62140 -10.61805  -0.92495
 Alpha  occ. eigenvalues --   -0.84514  -0.69997  -0.63630  -0.54347  -0.53499
 Alpha  occ. eigenvalues --   -0.46446  -0.45190  -0.40966  -0.37841  -0.27567
 Alpha virt. eigenvalues --    0.01411   0.06960   0.07304   0.07854   0.09340
 Alpha virt. eigenvalues --    0.11537   0.12397   0.14537   0.15648   0.16378
 Alpha virt. eigenvalues --    0.18859   0.20020   0.21752   0.22984   0.23424

 Mulliken charges:
               1
     1  C   -0.169006
     2  C   -0.032288
     3  C   -0.033510
     4  C   -0.176130
     5  H    0.076524
     6  H    0.067318
     7  H    0.053931
     8  H    0.058288
     9  H    0.067134
    10  H    0.087739
 Sum of Mulliken charges =   0.00000

 Dipole moment (field-independent basis, Debye):
    X=             -0.0305    Y=             -0.0365    Z=              0.1797  Tot=              0.1859
 Quadrupole moment (field-independent basis, Debye-Ang):
   XX=            -23.3471   YY=            -23.1730   ZZ=            -29.4615
   XY=              0.2681   XZ=             -0.1674   YZ=             -0.0192

 1\1\GINC-NODE06\SP\RB2PLYPD3-FC\def2QZVP\C4H6\BOITTIER\26-Aug-2020\0\\
 #p B2PLYPD3/Def2QZVP\\butadiene\\0,1\C,0,-3.841377,0.242851,0.018622\C
 ,0,-2.731349,-0.522804,0.045731\C,0,-1.389161,0.055808,0.034517\C,0,-0
 .236088,-0.638888,0.020196\H,0,-4.874362,-0.195066,-0.083981\H,0,-3.83
 5311,1.309226,-0.009743\H,0,-2.868131,-1.652904,0.051669\H,0,-1.357452
 ,1.137956,-0.115242\H,0,-0.231435,-1.72551,0.057359\H,0,0.728481,-0.15
 0493,-0.015321\\Version=ES64L-G09RevD.01\State=1-A\HF=-155.6949073\MP2
 =-155.92178\RMSD=3.523e-09\PG=C01 [X(C4H6)]\\@

 Normal termination of Gaussian 09 at Wed Aug 26 09:24:48 2020.
