 Gaussian 09, Revision D.01,
 Gaussian 09:  ES64L-G09RevD.01 24-Apr-2013

 --------------------
 #p B2PLYPD3/Def2QZVP
 --------------------

 ---------
 butadiene
 ---------
 Symbolic Z-matrix:
 Charge =  0 Multiplicity = 1

                         Standard orientation:
 ---------------------------------------------------------------------
 Center     Atomic      Atomic             Coordinates (Angstroms)
 Number     Number       Type             X           Y           Z
 ---------------------------------------------------------------------
      1          6           0        1.826468   -0.092067   -0.046792
      2          6           0        0.593550    0.392468    0.040242
      3          6           0       -0.606212   -0.438657    0.004614
      4          6           0       -1.821858    0.121593   -0.024238
      5          1           0        2.710589    0.500571    0.038515
      6          1           0        2.075048   -1.151807   -0.067992
      7          1           0        0.441253    1.502276    0.130702
      8          1           0       -0.505273   -1.518051    0.156820
      9          1           0       -1.896667    1.224841   -0.114642
     10          1           0       -2.776644   -0.457851    0.013642
 ---------------------------------------------------------------------

 SCF Done:  E(RB2PLYPD3) =  -155.695257064     A.U. after   11 cycles
 E2(B2PLYPD3) =    -0.2263561780D+00 E(B2PLYPD3) =    -0.15592161324182D+03

 The electronic state is 1-A.
 Alpha  occ. eigenvalues --  -10.63017 -10.62805 -10.62247 -10.61213  -0.92900
 Alpha  occ. eigenvalues --   -0.84717  -0.69637  -0.63703  -0.54694  -0.53310
 Alpha  occ. eigenvalues --   -0.46745  -0.44705  -0.40945  -0.37952  -0.27795
 Alpha virt. eigenvalues --    0.01879   0.07049   0.07225   0.07883   0.09313
 Alpha virt. eigenvalues --    0.11540   0.12529   0.14510   0.15621   0.16391
 Alpha virt. eigenvalues --    0.18809   0.19973   0.21842   0.22626   0.23625

 Mulliken charges:
               1
     1  C   -0.165572
     2  C   -0.033537
     3  C   -0.032484
     4  C   -0.170737
     5  H    0.079424
     6  H    0.058876
     7  H    0.053740
     8  H    0.064618
     9  H    0.061664
    10  H    0.084009
 Sum of Mulliken charges =   0.00000

 Dipole moment (field-independent basis, Debye):
    X=             -0.0030    Y=             -0.0386    Z=              0.1763  Tot=              0.1805
 Quadrupole moment (field-independent basis, Debye-Ang):
   XX=            -23.3833   YY=            -23.2233   ZZ=            -29.3164
   XY=             -0.2195   XZ=              0.1020   YZ=             -0.1078

 1\1\GINC-NODE15\SP\RB2PLYPD3-FC\def2QZVP\C4H6\BOITTIER\26-Aug-2020\0\\
 #p B2PLYPD3/Def2QZVP\\butadiene\\0,1\C,0,-3.833257,0.204136,-0.02149\C
 ,0,-2.708283,-0.494009,0.075781\C,0,-1.377917,0.105223,0.025627\C,0,-0
 .283933,-0.666406,0.008442\H,0,-4.809882,-0.216845,0.074138\H,0,-3.885
 826,1.29079,-0.062855\H,0,-2.759299,-1.611159,0.187247\H,0,-1.281294,1
 .187695,0.157404\H,0,-0.410419,-1.766447,-0.061119\H,0,0.760107,-0.268
 899,0.036292\\Version=ES64L-G09RevD.01\State=1-A\HF=-155.6952571\MP2=-
 155.9216132\RMSD=6.335e-09\PG=C01 [X(C4H6)]\\@

 Normal termination of Gaussian 09 at Wed Aug 26 09:28:06 2020.
