 Gaussian 09, Revision D.01,
 Gaussian 09:  ES64L-G09RevD.01 24-Apr-2013

 --------------------
 #p B2PLYPD3/Def2QZVP
 --------------------

 ---------
 butadiene
 ---------
 Symbolic Z-matrix:
 Charge =  0 Multiplicity = 1

                         Standard orientation:
 ---------------------------------------------------------------------
 Center     Atomic      Atomic             Coordinates (Angstroms)
 Number     Number       Type             X           Y           Z
 ---------------------------------------------------------------------
      1          6           0        1.849210   -0.122012    0.012508
      2          6           0        0.604859    0.417956   -0.021794
      3          6           0       -0.609616   -0.388158   -0.037332
      4          6           0       -1.848653    0.097257    0.024358
      5          1           0        2.740010    0.481436    0.032002
      6          1           0        2.005027   -1.174765    0.060614
      7          1           0        0.471420    1.507896    0.003226
      8          1           0       -0.451471   -1.448368   -0.018228
      9          1           0       -2.016163    1.146771    0.010403
     10          1           0       -2.723626   -0.543232    0.045546
 ---------------------------------------------------------------------

 SCF Done:  E(RB2PLYPD3) =  -155.699856561     A.U. after   11 cycles
 E2(B2PLYPD3) =    -0.2259102928D+00 E(B2PLYPD3) =    -0.15592576685390D+03

 The electronic state is 1-A.
 Alpha  occ. eigenvalues --  -10.63112 -10.62365 -10.61689 -10.61306  -0.92786
 Alpha  occ. eigenvalues --   -0.84744  -0.70461  -0.64312  -0.54633  -0.53940
 Alpha  occ. eigenvalues --   -0.46766  -0.45921  -0.41250  -0.37933  -0.27540
 Alpha virt. eigenvalues --    0.01498   0.07002   0.07483   0.08108   0.09488
 Alpha virt. eigenvalues --    0.11657   0.12541   0.14719   0.15941   0.16107
 Alpha virt. eigenvalues --    0.18862   0.20534   0.21756   0.23037   0.23584

 Mulliken charges:
               1
     1  C   -0.177052
     2  C   -0.036564
     3  C   -0.025861
     4  C   -0.176263
     5  H    0.085638
     6  H    0.067421
     7  H    0.054517
     8  H    0.056153
     9  H    0.066035
    10  H    0.085976
 Sum of Mulliken charges =   0.00000

 Dipole moment (field-independent basis, Debye):
    X=              0.0116    Y=             -0.0126    Z=              0.0821  Tot=              0.0838
 Quadrupole moment (field-independent basis, Debye-Ang):
   XX=            -23.2970   YY=            -23.1554   ZZ=            -29.3072
   XY=             -0.2345   XZ=              0.0702   YZ=             -0.0573

 1\1\GINC-NODE28\SP\RB2PLYPD3-FC\def2QZVP\C4H6\BOITTIER\26-Aug-2020\0\\
 #p B2PLYPD3/Def2QZVP\\butadiene\\0,1\C,0,-3.849364,0.238794,0.034714\C
 ,0,-2.722765,-0.51721,0.015092\C,0,-1.383001,0.056271,-0.018969\C,0,-0
 .251479,-0.642787,0.056022\H,0,-4.834228,-0.19362,0.068092\H,0,-3.8128
 2,1.303249,0.056696\H,0,-2.787774,-1.612413,0.067106\H,0,-1.347501,1.1
 27769,-0.026167\H,0,-0.275823,-1.705328,0.068114\H,0,0.724626,-0.17010
 3,0.062383\\Version=ES64L-G09RevD.01\State=1-A\HF=-155.6998566\MP2=-15
 5.9257669\RMSD=5.553e-09\PG=C01 [X(C4H6)]\\@

 Normal termination of Gaussian 09 at Wed Aug 26 21:23:03 2020.
