 Gaussian 09, Revision D.01,
 Gaussian 09:  ES64L-G09RevD.01 24-Apr-2013

 --------------------
 #p B2PLYPD3/Def2QZVP
 --------------------

 ---------
 butadiene
 ---------
 Symbolic Z-matrix:
 Charge =  0 Multiplicity = 1

                         Standard orientation:
 ---------------------------------------------------------------------
 Center     Atomic      Atomic             Coordinates (Angstroms)
 Number     Number       Type             X           Y           Z
 ---------------------------------------------------------------------
      1          6           0        1.883312   -0.093893    0.030970
      2          6           0        0.617166    0.356228   -0.119891
      3          6           0       -0.628563   -0.420714   -0.080894
      4          6           0       -1.857157    0.116821    0.061850
      5          1           0        2.606920    0.641593    0.300140
      6          1           0        2.029282   -1.176905    0.133400
      7          1           0        0.475999    1.415979   -0.016290
      8          1           0       -0.473279   -1.490892    0.008086
      9          1           0       -1.892580    1.305084    0.071294
     10          1           0       -2.834896   -0.445510    0.151164
 ---------------------------------------------------------------------

 SCF Done:  E(RB2PLYPD3) =  -155.682073563     A.U. after   11 cycles
 E2(B2PLYPD3) =    -0.2279106313D+00 E(B2PLYPD3) =    -0.15590998419399D+03

 The electronic state is 1-A.
 Alpha  occ. eigenvalues --  -10.63750 -10.63212 -10.62777 -10.61884  -0.92557
 Alpha  occ. eigenvalues --   -0.84581  -0.69631  -0.63587  -0.54234  -0.53152
 Alpha  occ. eigenvalues --   -0.46848  -0.44650  -0.40652  -0.37766  -0.27723
 Alpha virt. eigenvalues --    0.01081   0.06819   0.07238   0.07935   0.09282
 Alpha virt. eigenvalues --    0.11620   0.12273   0.14194   0.15608   0.16179
 Alpha virt. eigenvalues --    0.18721   0.19704   0.21056   0.22340   0.24623

 Mulliken charges:
               1
     1  C   -0.175447
     2  C   -0.015176
     3  C   -0.042406
     4  C   -0.162010
     5  H    0.088929
     6  H    0.064268
     7  H    0.046030
     8  H    0.051682
     9  H    0.050208
    10  H    0.093921
 Sum of Mulliken charges =   0.00000

 Dipole moment (field-independent basis, Debye):
    X=             -0.1202    Y=             -0.0355    Z=              0.4706  Tot=              0.4870
 Quadrupole moment (field-independent basis, Debye-Ang):
   XX=            -23.8957   YY=            -23.3463   ZZ=            -29.4225
   XY=              0.2535   XZ=              0.5841   YZ=              0.0805

 1\1\GINC-NODE15\SP\RB2PLYPD3-FC\def2QZVP\C4H6\BOITTIER\26-Aug-2020\0\\
 #p B2PLYPD3/Def2QZVP\\butadiene\\0,1\C,0,-3.888602,0.20543,0.068341\C,
 0,-2.722507,-0.466018,-0.065349\C,0,-1.359565,0.081145,-0.063454\C,0,-
 0.24284,-0.65705,0.100115\H,0,-4.727199,-0.379345,0.371315\H,0,-3.8414
 75,1.300639,0.123219\H,0,-2.768236,-1.528638,0.084587\H,0,-1.323991,1.
 164787,-0.021425\H,0,-0.416131,-1.831557,0.161893\H,0,0.81916,-0.27175
 8,0.162346\\Version=ES64L-G09RevD.01\State=1-A\HF=-155.6820736\MP2=-15
 5.9099842\RMSD=9.876e-09\PG=C01 [X(C4H6)]\\@

 Normal termination of Gaussian 09 at Wed Aug 26 15:24:44 2020.
