 Gaussian 09, Revision D.01,
 Gaussian 09:  ES64L-G09RevD.01 24-Apr-2013

 --------------------
 #p B2PLYPD3/Def2QZVP
 --------------------

 ---------
 butadiene
 ---------
 Symbolic Z-matrix:
 Charge =  0 Multiplicity = 1

                         Standard orientation:
 ---------------------------------------------------------------------
 Center     Atomic      Atomic             Coordinates (Angstroms)
 Number     Number       Type             X           Y           Z
 ---------------------------------------------------------------------
      1          6           0        1.841447   -0.133396    0.029051
      2          6           0        0.613274    0.403000   -0.026440
      3          6           0       -0.607536   -0.367094   -0.009093
      4          6           0       -1.848284    0.096589    0.006671
      5          1           0        2.704238    0.506019   -0.040633
      6          1           0        1.975264   -1.165471    0.001741
      7          1           0        0.609762    1.512534    0.006337
      8          1           0       -0.475553   -1.462951   -0.011242
      9          1           0       -2.097094    1.153654    0.048946
     10          1           0       -2.710025   -0.538373   -0.006285
 ---------------------------------------------------------------------

 SCF Done:  E(RB2PLYPD3) =  -155.697250338     A.U. after   11 cycles
 E2(B2PLYPD3) =    -0.2256322540D+00 E(B2PLYPD3) =    -0.15592288259225D+03

 The electronic state is 1-A.
 Alpha  occ. eigenvalues --  -10.62766 -10.62667 -10.61344 -10.61071  -0.93040
 Alpha  occ. eigenvalues --   -0.85253  -0.70545  -0.63804  -0.54929  -0.54262
 Alpha  occ. eigenvalues --   -0.46616  -0.45455  -0.40988  -0.38246  -0.27759
 Alpha virt. eigenvalues --    0.01572   0.07005   0.07487   0.07910   0.09842
 Alpha virt. eigenvalues --    0.11608   0.12480   0.14799   0.15841   0.16326
 Alpha virt. eigenvalues --    0.18877   0.20270   0.21881   0.22495   0.23812

 Mulliken charges:
               1
     1  C   -0.173406
     2  C   -0.026061
     3  C   -0.031647
     4  C   -0.169850
     5  H    0.083445
     6  H    0.066850
     7  H    0.051074
     8  H    0.050462
     9  H    0.064499
    10  H    0.084635
 Sum of Mulliken charges =   0.00000

 Dipole moment (field-independent basis, Debye):
    X=              0.0015    Y=             -0.0025    Z=             -0.0265  Tot=              0.0266
 Quadrupole moment (field-independent basis, Debye-Ang):
   XX=            -23.2198   YY=            -23.2001   ZZ=            -29.2159
   XY=             -0.0240   XZ=             -0.1898   YZ=              0.0657

 1\1\GINC-NODE03\SP\RB2PLYPD3-FC\def2QZVP\C4H6\BOITTIER\26-Aug-2020\0\\
 #p B2PLYPD3/Def2QZVP\\butadiene\\0,1\C,0,-3.841633,0.239726,0.042857\C
 ,0,-2.726691,-0.505274,0.009832\C,0,-1.389722,0.038981,0.005162\C,0,-0
 .249465,-0.634252,0.040921\H,0,-4.803353,-0.240506,-0.007998\H,0,-3.79
 2476,1.277737,-0.01998\H,0,-2.917701,-1.596465,0.080321\H,0,-1.32751,1
 .140283,-0.034692\H,0,-0.189754,-1.716504,0.119957\H,0,0.710226,-0.161
 033,0.009332\\Version=ES64L-G09RevD.01\State=1-A\HF=-155.6972503\MP2=-
 155.9228826\RMSD=6.001e-09\PG=C01 [X(C4H6)]\\@

 Normal termination of Gaussian 09 at Wed Aug 26 10:49:32 2020.
