 Gaussian 09, Revision D.01,
 Gaussian 09:  ES64L-G09RevD.01 24-Apr-2013

 --------------------
 #p B2PLYPD3/Def2QZVP
 --------------------

 ---------
 butadiene
 ---------
 Symbolic Z-matrix:
 Charge =  0 Multiplicity = 1

                         Standard orientation:
 ---------------------------------------------------------------------
 Center     Atomic      Atomic             Coordinates (Angstroms)
 Number     Number       Type             X           Y           Z
 ---------------------------------------------------------------------
      1          6           0        1.862580    0.094116   -0.055685
      2          6           0        0.593313   -0.365935    0.070351
      3          6           0       -0.626228    0.428198    0.039189
      4          6           0       -1.819357   -0.155425   -0.091379
      5          1           0        2.709830   -0.581303   -0.027618
      6          1           0        1.950253    1.174217   -0.176542
      7          1           0        0.418358   -1.357718    0.319628
      8          1           0       -0.596201    1.534830    0.153176
      9          1           0       -1.799598   -1.267424   -0.233931
     10          1           0       -2.744493    0.491678    0.190430
 ---------------------------------------------------------------------

 SCF Done:  E(RB2PLYPD3) =  -155.682318625     A.U. after   11 cycles
 E2(B2PLYPD3) =    -0.2274102131D+00 E(B2PLYPD3) =    -0.15590972883829D+03

 The electronic state is 1-A.
 Alpha  occ. eigenvalues --  -10.62746 -10.62612 -10.62255 -10.61995  -0.93007
 Alpha  occ. eigenvalues --   -0.84587  -0.69358  -0.63855  -0.54158  -0.53221
 Alpha  occ. eigenvalues --   -0.46023  -0.45654  -0.41460  -0.37149  -0.27658
 Alpha virt. eigenvalues --    0.01288   0.06989   0.07377   0.07686   0.09330
 Alpha virt. eigenvalues --    0.11798   0.12194   0.14415   0.15188   0.15990
 Alpha virt. eigenvalues --    0.18413   0.19461   0.20924   0.22129   0.24532

 Mulliken charges:
               1
     1  C   -0.188340
     2  C   -0.040019
     3  C   -0.028402
     4  C   -0.174581
     5  H    0.095212
     6  H    0.071007
     7  H    0.063385
     8  H    0.053430
     9  H    0.063767
    10  H    0.084542
 Sum of Mulliken charges =   0.00000

 Dipole moment (field-independent basis, Debye):
    X=              0.0558    Y=             -0.0060    Z=              0.2806  Tot=              0.2862
 Quadrupole moment (field-independent basis, Debye-Ang):
   XX=            -24.2568   YY=            -23.1651   ZZ=            -29.2629
   XY=             -0.4046   XZ=             -0.5915   YZ=              0.0606

 1\1\GINC-NODE26\SP\RB2PLYPD3-FC\def2QZVP\C4H6\BOITTIER\26-Aug-2020\0\\
 #p B2PLYPD3/Def2QZVP\\butadiene\\0,1\C,0,-3.869904,0.1976,0.07796\C,0,
 -2.699001,-0.47706,-0.03336\C,0,-1.361783,0.097992,-0.041141\C,0,-0.28
 4051,-0.674679,0.109505\H,0,-4.820043,-0.323962,0.082252\H,0,-3.771027
 ,1.280898,0.152798\H,0,-2.698285,-1.493632,-0.240633\H,0,-1.204234,1.1
 87825,-0.202297\H,0,-0.491248,-1.760117,0.299629\H,0,0.734521,-0.20714
 4,-0.203477\\Version=ES64L-G09RevD.01\State=1-A\HF=-155.6823186\MP2=-1
 55.9097288\RMSD=8.269e-09\PG=C01 [X(C4H6)]\\@

 Normal termination of Gaussian 09 at Wed Aug 26 11:50:38 2020.
