 Gaussian 09, Revision D.01,
 Gaussian 09:  ES64L-G09RevD.01 24-Apr-2013

 --------------------
 #p B2PLYPD3/Def2QZVP
 --------------------

 ---------
 butadiene
 ---------
 Symbolic Z-matrix:
 Charge =  0 Multiplicity = 1

                         Standard orientation:
 ---------------------------------------------------------------------
 Center     Atomic      Atomic             Coordinates (Angstroms)
 Number     Number       Type             X           Y           Z
 ---------------------------------------------------------------------
      1          6           0       -1.837364   -0.124155   -0.035118
      2          6           0       -0.609405    0.411081   -0.006229
      3          6           0        0.609071   -0.399087    0.033344
      4          6           0        1.853444    0.113401   -0.023570
      5          1           0       -2.694585    0.555652    0.068180
      6          1           0       -2.059872   -1.171384   -0.057096
      7          1           0       -0.518434    1.477403    0.160992
      8          1           0        0.437786   -1.473741    0.100253
      9          1           0        2.029408    1.191080   -0.089110
     10          1           0        2.711221   -0.586450    0.006220
 ---------------------------------------------------------------------

 SCF Done:  E(RB2PLYPD3) =  -155.697236365     A.U. after   11 cycles
 E2(B2PLYPD3) =    -0.2263852948D+00 E(B2PLYPD3) =    -0.15592362166004D+03

 The electronic state is 1-A.
 Alpha  occ. eigenvalues --  -10.62818 -10.62613 -10.62102 -10.61640  -0.92644
 Alpha  occ. eigenvalues --   -0.84617  -0.69815  -0.64014  -0.54100  -0.53716
 Alpha  occ. eigenvalues --   -0.46421  -0.45855  -0.40986  -0.37669  -0.27637
 Alpha virt. eigenvalues --    0.01623   0.06993   0.07382   0.07907   0.09349
 Alpha virt. eigenvalues --    0.11674   0.12219   0.14815   0.15592   0.16011
 Alpha virt. eigenvalues --    0.18766   0.20170   0.21494   0.22769   0.23895

 Mulliken charges:
               1
     1  C   -0.178459
     2  C   -0.028701
     3  C   -0.041147
     4  C   -0.176727
     5  H    0.076833
     6  H    0.070987
     7  H    0.061744
     8  H    0.057272
     9  H    0.072849
    10  H    0.085348
 Sum of Mulliken charges =   0.00000

 Dipole moment (field-independent basis, Debye):
    X=             -0.0457    Y=             -0.0243    Z=              0.1810  Tot=              0.1882
 Quadrupole moment (field-independent basis, Debye-Ang):
   XX=            -23.8150   YY=            -22.9426   ZZ=            -29.3663
   XY=              0.3028   XZ=             -0.3279   YZ=              0.0979

 1\1\GINC-NODE06\SP\RB2PLYPD3-FC\def2QZVP\C4H6\BOITTIER\26-Aug-2020\0\\
 #p B2PLYPD3/Def2QZVP\\butadiene\\0,1\C,0,-3.839205,0.237411,0.04492\C,
 0,-2.727088,-0.509748,0.032862\C,0,-1.383095,0.067843,-0.01902\C,0,-0.
 25078,-0.657993,0.054283\H,0,-4.804379,-0.279859,-0.04731\H,0,-3.87036
 8,1.307789,0.04329\H,0,-2.828706,-1.578531,-0.110864\H,0,-1.358919,1.1
 54054,-0.10989\H,0,-0.270894,-1.748048,0.14387\H,0,0.718578,-0.124042,
 0.013026\\Version=ES64L-G09RevD.01\State=1-A\HF=-155.6972364\MP2=-155.
 9236217\RMSD=3.321e-09\PG=C01 [X(C4H6)]\\@

 Normal termination of Gaussian 09 at Wed Aug 26 08:41:18 2020.
