 Gaussian 09, Revision D.01,
 Gaussian 09:  ES64L-G09RevD.01 24-Apr-2013

 --------------------
 #p B2PLYPD3/Def2QZVP
 --------------------

 ---------
 butadiene
 ---------
 Symbolic Z-matrix:
 Charge =  0 Multiplicity = 1

                         Standard orientation:
 ---------------------------------------------------------------------
 Center     Atomic      Atomic             Coordinates (Angstroms)
 Number     Number       Type             X           Y           Z
 ---------------------------------------------------------------------
      1          6           0        1.852725    0.128852    0.039466
      2          6           0        0.620782   -0.441089   -0.045439
      3          6           0       -0.603507    0.387666   -0.020779
      4          6           0       -1.837703   -0.104712    0.031087
      5          1           0        2.728113   -0.471112    0.077044
      6          1           0        1.927415    1.195506   -0.035775
      7          1           0        0.426964   -1.486534   -0.035256
      8          1           0       -0.490099    1.495056   -0.089460
      9          1           0       -2.081772   -1.122320   -0.026693
     10          1           0       -2.704405    0.565097    0.084133
 ---------------------------------------------------------------------

 SCF Done:  E(RB2PLYPD3) =  -155.695513417     A.U. after   11 cycles
 E2(B2PLYPD3) =    -0.2260769585D+00 E(B2PLYPD3) =    -0.15592159037590D+03

 The electronic state is 1-A.
 Alpha  occ. eigenvalues --  -10.62987 -10.62841 -10.61705 -10.61098  -0.92526
 Alpha  occ. eigenvalues --   -0.84760  -0.70227  -0.64311  -0.54870  -0.53483
 Alpha  occ. eigenvalues --   -0.46634  -0.46273  -0.41083  -0.37576  -0.27592
 Alpha virt. eigenvalues --    0.01683   0.06982   0.07432   0.08119   0.09197
 Alpha virt. eigenvalues --    0.11689   0.12486   0.14761   0.15698   0.16232
 Alpha virt. eigenvalues --    0.18781   0.20265   0.21703   0.22976   0.24207

 Mulliken charges:
               1
     1  C   -0.172310
     2  C   -0.050907
     3  C   -0.018314
     4  C   -0.180554
     5  H    0.089052
     6  H    0.072939
     7  H    0.064093
     8  H    0.050707
     9  H    0.067248
    10  H    0.078047
 Sum of Mulliken charges =   0.00000

 Dipole moment (field-independent basis, Debye):
    X=             -0.0010    Y=             -0.0567    Z=             -0.0755  Tot=              0.0945
 Quadrupole moment (field-independent basis, Debye-Ang):
   XX=            -23.5265   YY=            -23.0265   ZZ=            -29.3278
   XY=              0.2862   XZ=              0.0395   YZ=             -0.0850

 1\1\GINC-NODE02\SP\RB2PLYPD3-FC\def2QZVP\C4H6\BOITTIER\26-Aug-2020\0\\
 #p B2PLYPD3/Def2QZVP\\butadiene\\0,1\C,0,-3.847459,0.245006,-0.020669\
 C,0,-2.737315,-0.534083,0.080948\C,0,-1.384439,0.061025,0.037393\C,0,-
 0.258565,-0.645657,0.000312\H,0,-4.816267,-0.189176,-0.044531\H,0,-3.7
 29645,1.309344,0.027241\H,0,-2.733948,-1.597253,0.097749\H,0,-1.297437
 ,1.172197,0.077638\H,0,-0.200583,-1.688727,0.084436\H,0,0.713958,-0.14
 3527,-0.068216\\Version=ES64L-G09RevD.01\State=1-A\HF=-155.6955134\MP2
 =-155.9215904\RMSD=8.121e-09\PG=C01 [X(C4H6)]\\@

 Normal termination of Gaussian 09 at Wed Aug 26 10:14:52 2020.
