 Gaussian 09, Revision D.01,
 Gaussian 09:  ES64L-G09RevD.01 24-Apr-2013

 --------------------
 #p B2PLYPD3/Def2QZVP
 --------------------

 ---------
 butadiene
 ---------
 Symbolic Z-matrix:
 Charge =  0 Multiplicity = 1

                         Standard orientation:
 ---------------------------------------------------------------------
 Center     Atomic      Atomic             Coordinates (Angstroms)
 Number     Number       Type             X           Y           Z
 ---------------------------------------------------------------------
      1          6           0        1.866156    0.088687    0.071999
      2          6           0        0.612447   -0.368466   -0.069060
      3          6           0       -0.595837    0.431515   -0.062531
      4          6           0       -1.862297   -0.117752    0.023582
      5          1           0        2.626852   -0.607435   -0.016205
      6          1           0        2.180737    1.062158    0.015182
      7          1           0        0.385629   -1.410002    0.062940
      8          1           0       -0.494466    1.557732   -0.027384
      9          1           0       -1.924254   -1.186997   -0.015249
     10          1           0       -2.897312    0.380637    0.196780
 ---------------------------------------------------------------------

 SCF Done:  E(RB2PLYPD3) =  -155.679620835     A.U. after   11 cycles
 E2(B2PLYPD3) =    -0.2276847359D+00 E(B2PLYPD3) =    -0.15590730557097D+03

 The electronic state is 1-A.
 Alpha  occ. eigenvalues --  -10.63871 -10.63192 -10.62855 -10.60663  -0.92703
 Alpha  occ. eigenvalues --   -0.84418  -0.70982  -0.64142  -0.54485  -0.53871
 Alpha  occ. eigenvalues --   -0.46659  -0.45500  -0.40987  -0.37783  -0.27279
 Alpha virt. eigenvalues --    0.00697   0.06935   0.07508   0.07973   0.09150
 Alpha virt. eigenvalues --    0.11395   0.12747   0.14684   0.15498   0.16509
 Alpha virt. eigenvalues --    0.18735   0.19511   0.22425   0.22671   0.24059

 Mulliken charges:
               1
     1  C   -0.167323
     2  C   -0.033411
     3  C   -0.033783
     4  C   -0.171686
     5  H    0.078304
     6  H    0.070716
     7  H    0.061773
     8  H    0.052197
     9  H    0.057904
    10  H    0.085309
 Sum of Mulliken charges =   0.00000

 Dipole moment (field-independent basis, Debye):
    X=             -0.0081    Y=             -0.0270    Z=              0.0961  Tot=              0.1002
 Quadrupole moment (field-independent basis, Debye-Ang):
   XX=            -22.9487   YY=            -23.5019   ZZ=            -29.3942
   XY=              0.5112   XZ=             -0.6226   YZ=              0.0396

 1\1\GINC-NODE25\SP\RB2PLYPD3-FC\def2QZVP\C4H6\BOITTIER\26-Aug-2020\0\\
 #p B2PLYPD3/Def2QZVP\\butadiene\\0,1\C,0,-3.869374,0.208721,-0.047339\
 C,0,-2.719425,-0.467199,0.099017\C,0,-1.385344,0.098039,0.07259\C,0,-0
 .241228,-0.675134,-0.006359\H,0,-4.743883,-0.334711,0.057258\H,0,-4.00
 0329,1.224217,-0.009199\H,0,-2.6877,-1.534997,-0.012645\H,0,-1.279387,
 1.222911,0.015041\H,0,-0.375496,-1.736727,0.053847\H,0,0.866255,-0.377
 869,-0.192795\\Version=ES64L-G09RevD.01\State=1-A\HF=-155.6796208\MP2=
 -155.9073056\RMSD=7.301e-09\PG=C01 [X(C4H6)]\\@

 Normal termination of Gaussian 09 at Wed Aug 26 13:05:20 2020.
