 Gaussian 09, Revision D.01,
 Gaussian 09:  ES64L-G09RevD.01 24-Apr-2013

 --------------------
 #p B2PLYPD3/Def2QZVP
 --------------------

 ---------
 butadiene
 ---------
 Symbolic Z-matrix:
 Charge =  0 Multiplicity = 1

                         Standard orientation:
 ---------------------------------------------------------------------
 Center     Atomic      Atomic             Coordinates (Angstroms)
 Number     Number       Type             X           Y           Z
 ---------------------------------------------------------------------
      1          6           0        1.840784    0.105429    0.014529
      2          6           0        0.603765   -0.383816   -0.034615
      3          6           0       -0.613425    0.400229   -0.026447
      4          6           0       -1.830539   -0.119859    0.032149
      5          1           0        2.719825   -0.560850    0.088827
      6          1           0        2.014315    1.180822    0.013253
      7          1           0        0.432536   -1.454026   -0.032076
      8          1           0       -0.509348    1.473586    0.000171
      9          1           0       -1.978955   -1.192322    0.013688
     10          1           0       -2.681877    0.540889    0.002443
 ---------------------------------------------------------------------

 SCF Done:  E(RB2PLYPD3) =  -155.700304006     A.U. after   11 cycles
 E2(B2PLYPD3) =    -0.2255046039D+00 E(B2PLYPD3) =    -0.15592580860981D+03

 The electronic state is 1-A.
 Alpha  occ. eigenvalues --  -10.62355 -10.62130 -10.61804 -10.61312  -0.93226
 Alpha  occ. eigenvalues --   -0.85093  -0.70029  -0.64056  -0.54492  -0.53950
 Alpha  occ. eigenvalues --   -0.46688  -0.45701  -0.40925  -0.38300  -0.27826
 Alpha virt. eigenvalues --    0.01825   0.06976   0.07419   0.08032   0.09774
 Alpha virt. eigenvalues --    0.11760   0.12322   0.14767   0.15776   0.16064
 Alpha virt. eigenvalues --    0.18744   0.20239   0.21578   0.22850   0.23991

 Mulliken charges:
               1
     1  C   -0.176778
     2  C   -0.028950
     3  C   -0.025185
     4  C   -0.176808
     5  H    0.085967
     6  H    0.067008
     7  H    0.051235
     8  H    0.051722
     9  H    0.065985
    10  H    0.085804
 Sum of Mulliken charges =   0.00000

 Dipole moment (field-independent basis, Debye):
    X=             -0.0279    Y=              0.0169    Z=              0.0330  Tot=              0.0464
 Quadrupole moment (field-independent basis, Debye-Ang):
   XX=            -23.6405   YY=            -23.0776   ZZ=            -29.2247
   XY=              0.0795   XZ=              0.2624   YZ=             -0.0268

 1\1\GINC-NODE29\SP\RB2PLYPD3-FC\def2QZVP\C4H6\BOITTIER\26-Aug-2020\0\\
 #p B2PLYPD3/Def2QZVP\\butadiene\\0,1\C,0,-3.844354,0.217621,-0.001367\
 C,0,-2.714883,-0.483601,0.066265\C,0,-1.376976,0.069303,0.040775\C,0,-
 0.272744,-0.661738,0.001501\H,0,-4.828591,-0.282344,-0.060314\H,0,-3.8
 22503,1.306304,-0.03096\H,0,-2.738072,-1.566811,0.094441\H,0,-1.287193
 ,1.142759,-0.016375\H,0,-0.318756,-1.742485,0.050643\H,0,0.683191,-0.1
 63516,0.015922\\Version=ES64L-G09RevD.01\State=1-A\HF=-155.700304\MP2=
 -155.9258086\RMSD=3.423e-09\PG=C01 [X(C4H6)]\\@

 Normal termination of Gaussian 09 at Wed Aug 26 08:54:58 2020.
