 Gaussian 09, Revision D.01,
 Gaussian 09:  ES64L-G09RevD.01 24-Apr-2013

 --------------------
 #p B2PLYPD3/Def2QZVP
 --------------------

 ---------
 butadiene
 ---------
 Symbolic Z-matrix:
 Charge =  0 Multiplicity = 1

                         Standard orientation:
 ---------------------------------------------------------------------
 Center     Atomic      Atomic             Coordinates (Angstroms)
 Number     Number       Type             X           Y           Z
 ---------------------------------------------------------------------
      1          6           0        1.841959    0.094760    0.009236
      2          6           0        0.603688   -0.386716   -0.021855
      3          6           0       -0.607277    0.407596   -0.016505
      4          6           0       -1.844844   -0.115943    0.001044
      5          1           0        2.753662   -0.510726    0.031756
      6          1           0        2.012973    1.179496    0.018654
      7          1           0        0.469644   -1.465583    0.030084
      8          1           0       -0.483107    1.474053    0.007212
      9          1           0       -2.001966   -1.188427    0.016828
     10          1           0       -2.712363    0.513007    0.063947
 ---------------------------------------------------------------------

 SCF Done:  E(RB2PLYPD3) =  -155.700409970     A.U. after   11 cycles
 E2(B2PLYPD3) =    -0.2258205709D+00 E(B2PLYPD3) =    -0.15592623054118D+03

 The electronic state is 1-A.
 Alpha  occ. eigenvalues --  -10.62586 -10.62445 -10.61750 -10.61649  -0.93031
 Alpha  occ. eigenvalues --   -0.84859  -0.70232  -0.64123  -0.54764  -0.53762
 Alpha  occ. eigenvalues --   -0.46916  -0.45347  -0.41049  -0.38177  -0.27682
 Alpha virt. eigenvalues --    0.01608   0.06998   0.07429   0.08056   0.09667
 Alpha virt. eigenvalues --    0.11628   0.12486   0.14619   0.15848   0.16237
 Alpha virt. eigenvalues --    0.18849   0.20438   0.21689   0.22826   0.23614

 Mulliken charges:
               1
     1  C   -0.171331
     2  C   -0.025077
     3  C   -0.034787
     4  C   -0.175066
     5  H    0.086084
     6  H    0.057529
     7  H    0.052434
     8  H    0.056637
     9  H    0.066826
    10  H    0.086751
 Sum of Mulliken charges =   0.00000

 Dipole moment (field-independent basis, Debye):
    X=             -0.0058    Y=              0.0091    Z=              0.1274  Tot=              0.1279
 Quadrupole moment (field-independent basis, Debye-Ang):
   XX=            -23.2845   YY=            -23.2290   ZZ=            -29.2809
   XY=              0.1038   XZ=             -0.0840   YZ=             -0.0080

 1\1\GINC-NODE13\SP\RB2PLYPD3-FC\def2QZVP\C4H6\BOITTIER\26-Aug-2020\0\\
 #p B2PLYPD3/Def2QZVP\\butadiene\\0,1\C,0,-3.847781,0.209862,0.007462\C
 ,0,-2.716354,-0.48575,0.053281\C,0,-1.382171,0.076995,0.027425\C,0,-0.
 259198,-0.661179,0.025783\H,0,-4.853699,-0.221885,0.000597\H,0,-3.8206
 85,1.306989,-0.032095\H,0,-2.778994,-1.572125,0.031299\H,0,-1.312343,1
 .14732,-0.025866\H,0,-0.297849,-1.744446,0.039793\H,0,0.707158,-0.2007
 4,-0.053442\\Version=ES64L-G09RevD.01\State=1-A\HF=-155.70041\MP2=-155
 .9262305\RMSD=5.254e-09\PG=C01 [X(C4H6)]\\@

 Normal termination of Gaussian 09 at Wed Aug 26 14:11:15 2020.
