 Gaussian 09, Revision D.01,
 Gaussian 09:  ES64L-G09RevD.01 24-Apr-2013

 --------------------
 #p B2PLYPD3/Def2QZVP
 --------------------

 ---------
 butadiene
 ---------
 Symbolic Z-matrix:
 Charge =  0 Multiplicity = 1

                         Standard orientation:
 ---------------------------------------------------------------------
 Center     Atomic      Atomic             Coordinates (Angstroms)
 Number     Number       Type             X           Y           Z
 ---------------------------------------------------------------------
      1          6           0       -1.832377   -0.123671    0.016752
      2          6           0       -0.599916    0.428995   -0.036718
      3          6           0        0.603483   -0.375370   -0.020690
      4          6           0        1.839146    0.084162    0.000598
      5          1           0       -2.673004    0.496296    0.100145
      6          1           0       -2.020657   -1.202580   -0.033279
      7          1           0       -0.423249    1.502574   -0.023810
      8          1           0        0.395039   -1.420758    0.064754
      9          1           0        2.007004    1.119735    0.102937
     10          1           0        2.652853   -0.579961    0.029599
 ---------------------------------------------------------------------

 SCF Done:  E(RB2PLYPD3) =  -155.696340446     A.U. after   11 cycles
 E2(B2PLYPD3) =    -0.2253851131D+00 E(B2PLYPD3) =    -0.15592172555906D+03

 The electronic state is 1-A.
 Alpha  occ. eigenvalues --  -10.62729 -10.61752 -10.61681 -10.60509  -0.93226
 Alpha  occ. eigenvalues --   -0.85062  -0.70825  -0.64279  -0.55109  -0.53982
 Alpha  occ. eigenvalues --   -0.47108  -0.46251  -0.41130  -0.38046  -0.27581
 Alpha virt. eigenvalues --    0.01624   0.07072   0.07413   0.08279   0.09579
 Alpha virt. eigenvalues --    0.11792   0.12475   0.14917   0.15676   0.16220
 Alpha virt. eigenvalues --    0.18764   0.20377   0.21881   0.23166   0.23863

 Mulliken charges:
               1
     1  C   -0.180116
     2  C   -0.038875
     3  C   -0.013408
     4  C   -0.183920
     5  H    0.086827
     6  H    0.070776
     7  H    0.053796
     8  H    0.051501
     9  H    0.065213
    10  H    0.088206
 Sum of Mulliken charges =   0.00000

 Dipole moment (field-independent basis, Debye):
    X=             -0.0541    Y=             -0.0051    Z=              0.1825  Tot=              0.1905
 Quadrupole moment (field-independent basis, Debye-Ang):
   XX=            -23.5490   YY=            -23.0863   ZZ=            -29.1290
   XY=              0.3383   XZ=              0.1023   YZ=              0.1177

 1\1\GINC-NODE38\SP\RB2PLYPD3-FC\def2QZVP\C4H6\BOITTIER\26-Aug-2020\0\\
 #p B2PLYPD3/Def2QZVP\\butadiene\\0,1\C,0,-3.829931,0.249312,-0.001472\
 C,0,-2.722113,-0.522184,0.06776\C,0,-1.389774,0.042586,0.031216\C,0,-0
 .261736,-0.64002,0.023229\H,0,-4.771869,-0.204744,-0.068947\H,0,-3.813
 252,1.34534,0.019544\H,0,-2.74905,-1.609829,0.083702\H,0,-1.399731,1.1
 05882,-0.082315\H,0,-0.290606,-1.691058,-0.051251\H,0,0.661529,-0.1405
 42,-0.022852\\Version=ES64L-G09RevD.01\State=1-A\HF=-155.6963404\MP2=-
 155.9217256\RMSD=5.969e-09\PG=C01 [X(C4H6)]\\@

 Normal termination of Gaussian 09 at Wed Aug 26 08:40:19 2020.
