 Gaussian 09, Revision D.01,
 Gaussian 09:  ES64L-G09RevD.01 24-Apr-2013

 --------------------
 #p B2PLYPD3/Def2QZVP
 --------------------

 ---------
 butadiene
 ---------
 Symbolic Z-matrix:
 Charge =  0 Multiplicity = 1

                         Standard orientation:
 ---------------------------------------------------------------------
 Center     Atomic      Atomic             Coordinates (Angstroms)
 Number     Number       Type             X           Y           Z
 ---------------------------------------------------------------------
      1          6           0       -1.843459    0.104935   -0.022471
      2          6           0       -0.610213   -0.388652    0.032584
      3          6           0        0.605350    0.403536    0.020225
      4          6           0        1.844827   -0.111538   -0.017873
      5          1           0       -2.699860   -0.552169   -0.038492
      6          1           0       -2.046883    1.181973    0.000440
      7          1           0       -0.468471   -1.458243    0.005457
      8          1           0        0.501994    1.487207    0.002052
      9          1           0        1.957133   -1.186592   -0.020114
     10          1           0        2.777055    0.478135   -0.024126
 ---------------------------------------------------------------------

 SCF Done:  E(RB2PLYPD3) =  -155.700124088     A.U. after   11 cycles
 E2(B2PLYPD3) =    -0.2258983196D+00 E(B2PLYPD3) =    -0.15592602240775D+03

 The electronic state is 1-A.
 Alpha  occ. eigenvalues --  -10.62671 -10.62463 -10.61864 -10.61628  -0.92989
 Alpha  occ. eigenvalues --   -0.84866  -0.70084  -0.64057  -0.54556  -0.53844
 Alpha  occ. eigenvalues --   -0.46844  -0.45254  -0.41058  -0.38172  -0.27710
 Alpha virt. eigenvalues --    0.01636   0.06985   0.07440   0.08010   0.09656
 Alpha virt. eigenvalues --    0.11623   0.12462   0.14593   0.15886   0.16166
 Alpha virt. eigenvalues --    0.18842   0.20461   0.21556   0.22750   0.23723

 Mulliken charges:
               1
     1  C   -0.173065
     2  C   -0.031910
     3  C   -0.028685
     4  C   -0.173426
     5  H    0.085244
     6  H    0.066911
     7  H    0.054583
     8  H    0.053447
     9  H    0.059926
    10  H    0.086977
 Sum of Mulliken charges =   0.00000

 Dipole moment (field-independent basis, Debye):
    X=             -0.0069    Y=             -0.0065    Z=             -0.0288  Tot=              0.0303
 Quadrupole moment (field-independent basis, Debye-Ang):
   XX=            -23.3017   YY=            -23.2175   ZZ=            -29.3077
   XY=             -0.0692   XZ=              0.0044   YZ=              0.0386

 1\1\GINC-NODE30\SP\RB2PLYPD3-FC\def2QZVP\C4H6\BOITTIER\26-Aug-2020\0\\
 #p B2PLYPD3/Def2QZVP\\butadiene\\0,1\C,0,-3.846995,0.215851,-0.004913\
 C,0,-2.72148,-0.488325,0.065129\C,0,-1.384093,0.073581,0.034084\C,0,-0
 .256562,-0.65527,0.011578\H,0,-4.806966,-0.278033,-0.005169\H,0,-3.854
 863,1.312128,-0.010554\H,0,-2.772988,-1.566378,0.066257\H,0,-1.292439,
 1.15745,-0.012632\H,0,-0.337933,-1.732794,0.037677\H,0,0.765916,-0.241
 826,-0.008539\\Version=ES64L-G09RevD.01\State=1-A\HF=-155.7001241\MP2=
 -155.9260224\RMSD=3.927e-09\PG=C01 [X(C4H6)]\\@

 Normal termination of Gaussian 09 at Wed Aug 26 16:19:25 2020.
