 Gaussian 09, Revision D.01,
 Gaussian 09:  ES64L-G09RevD.01 24-Apr-2013

 --------------------
 #p B2PLYPD3/Def2QZVP
 --------------------

 ---------
 butadiene
 ---------
 Symbolic Z-matrix:
 Charge =  0 Multiplicity = 1

                         Standard orientation:
 ---------------------------------------------------------------------
 Center     Atomic      Atomic             Coordinates (Angstroms)
 Number     Number       Type             X           Y           Z
 ---------------------------------------------------------------------
      1          6           0        1.817504    0.083846    0.087110
      2          6           0        0.576446   -0.388940   -0.039846
      3          6           0       -0.583988    0.455340   -0.091502
      4          6           0       -1.819698   -0.155197    0.056940
      5          1           0        2.683967   -0.560212   -0.161296
      6          1           0        1.964342    1.150636    0.187108
      7          1           0        0.375785   -1.485087   -0.241937
      8          1           0       -0.444381    1.519568   -0.083232
      9          1           0       -1.946123   -1.151182    0.290740
     10          1           0       -2.575178    0.555986   -0.067591
 ---------------------------------------------------------------------

 SCF Done:  E(RB2PLYPD3) =  -155.680262068     A.U. after   12 cycles
 E2(B2PLYPD3) =    -0.2276234890D+00 E(B2PLYPD3) =    -0.15590788555656D+03

 The electronic state is 1-A.
 Alpha  occ. eigenvalues --  -10.62867 -10.62494 -10.61406 -10.61359  -0.93076
 Alpha  occ. eigenvalues --   -0.84403  -0.70330  -0.64163  -0.54756  -0.53362
 Alpha  occ. eigenvalues --   -0.47803  -0.45054  -0.41416  -0.37305  -0.26944
 Alpha virt. eigenvalues --    0.00905   0.07099   0.07268   0.07949   0.09164
 Alpha virt. eigenvalues --    0.11920   0.12159   0.15145   0.15357   0.16103
 Alpha virt. eigenvalues --    0.18759   0.19918   0.21154   0.22468   0.24247

 Mulliken charges:
               1
     1  C   -0.184556
     2  C   -0.012596
     3  C   -0.053590
     4  C   -0.180523
     5  H    0.081760
     6  H    0.060216
     7  H    0.053748
     8  H    0.065116
     9  H    0.087236
    10  H    0.083190
 Sum of Mulliken charges =   0.00000

 Dipole moment (field-independent basis, Debye):
    X=             -0.1048    Y=              0.0779    Z=             -0.1263  Tot=              0.1817
 Quadrupole moment (field-independent basis, Debye-Ang):
   XX=            -24.5955   YY=            -22.7871   ZZ=            -29.1940
   XY=              0.3663   XZ=             -0.6845   YZ=              0.0766

 1\1\GINC-NODE15\SP\RB2PLYPD3-FC\def2QZVP\C4H6\BOITTIER\26-Aug-2020\0\\
 #p B2PLYPD3/Def2QZVP\\butadiene\\0,1\C,0,-3.823756,0.206679,-0.057177\
 C,0,-2.692213,-0.486314,0.081533\C,0,-1.393721,0.12651,0.102758\C,0,-0
 .295653,-0.709294,-0.029333\H,0,-4.793351,-0.255372,0.214241\H,0,-3.76
 896,1.278437,-0.191099\H,0,-2.698749,-1.59381,0.318292\H,0,-1.3315,1.1
 97252,0.060579\H,0,-0.360152,-1.718104,-0.23126\H,0,0.58077,-0.148913,
 0.070134\\Version=ES64L-G09RevD.01\State=1-A\HF=-155.6802621\MP2=-155.
 9078856\RMSD=4.925e-09\PG=C01 [X(C4H6)]\\@

 Normal termination of Gaussian 09 at Wed Aug 26 14:51:49 2020.
