 Gaussian 09, Revision D.01,
 Gaussian 09:  ES64L-G09RevD.01 24-Apr-2013

 --------------------
 #p B2PLYPD3/Def2QZVP
 --------------------

 ---------
 butadiene
 ---------
 Symbolic Z-matrix:
 Charge =  0 Multiplicity = 1

                         Standard orientation:
 ---------------------------------------------------------------------
 Center     Atomic      Atomic             Coordinates (Angstroms)
 Number     Number       Type             X           Y           Z
 ---------------------------------------------------------------------
      1          6           0        1.847616    0.099688   -0.007012
      2          6           0        0.607352   -0.378460   -0.003528
      3          6           0       -0.605887    0.403496    0.013631
      4          6           0       -1.839052   -0.119091   -0.021652
      5          1           0        2.701603   -0.555747    0.019496
      6          1           0        2.017536    1.176698   -0.047421
      7          1           0        0.470595   -1.450307    0.061109
      8          1           0       -0.537004    1.480891    0.059591
      9          1           0       -2.009402   -1.182642   -0.003260
     10          1           0       -2.703502    0.497311    0.021854
 ---------------------------------------------------------------------

 SCF Done:  E(RB2PLYPD3) =  -155.700794560     A.U. after   11 cycles
 E2(B2PLYPD3) =    -0.2254937078D+00 E(B2PLYPD3) =    -0.15592628826829D+03

 The electronic state is 1-A.
 Alpha  occ. eigenvalues --  -10.62468 -10.62291 -10.61466 -10.61323  -0.93113
 Alpha  occ. eigenvalues --   -0.85088  -0.70431  -0.64078  -0.54749  -0.54210
 Alpha  occ. eigenvalues --   -0.46757  -0.45591  -0.41266  -0.38168  -0.27694
 Alpha virt. eigenvalues --    0.01626   0.07026   0.07500   0.08034   0.09789
 Alpha virt. eigenvalues --    0.11668   0.12434   0.14753   0.15863   0.16238
 Alpha virt. eigenvalues --    0.18850   0.20481   0.21555   0.22679   0.23910

 Mulliken charges:
               1
     1  C   -0.177616
     2  C   -0.026291
     3  C   -0.032262
     4  C   -0.173754
     5  H    0.088895
     6  H    0.065633
     7  H    0.053075
     8  H    0.053727
     9  H    0.063913
    10  H    0.084679
 Sum of Mulliken charges =   0.00000

 Dipole moment (field-independent basis, Debye):
    X=             -0.0340    Y=             -0.0035    Z=              0.1076  Tot=              0.1129
 Quadrupole moment (field-independent basis, Debye-Ang):
   XX=            -23.3737   YY=            -23.1394   ZZ=            -29.2128
   XY=              0.0150   XZ=             -0.0941   YZ=             -0.0633

 1\1\GINC-NODE02\SP\RB2PLYPD3-FC\def2QZVP\C4H6\BOITTIER\26-Aug-2020\0\\
 #p B2PLYPD3/Def2QZVP\\butadiene\\0,1\C,0,-3.851218,0.212582,0.025319\C
 ,0,-2.716295,-0.479334,0.034987\C,0,-1.382995,0.072668,-0.001089\C,0,-
 0.262846,-0.660714,0.048458\H,0,-4.808615,-0.28024,0.01481\H,0,-3.8259
 31,1.303293,0.038186\H,0,-2.773382,-1.559654,-0.002258\H,0,-1.25855,1.
 143538,-0.074492\H,0,-0.285225,-1.73771,0.057259\H,0,0.697612,-0.20991
 6,-0.010024\\Version=ES64L-G09RevD.01\State=1-A\HF=-155.7007946\MP2=-1
 55.9262883\RMSD=5.260e-09\PG=C01 [X(C4H6)]\\@

 Normal termination of Gaussian 09 at Wed Aug 26 08:48:22 2020.
