 Gaussian 09, Revision D.01,
 Gaussian 09:  ES64L-G09RevD.01 24-Apr-2013

 --------------------
 #p B2PLYPD3/Def2QZVP
 --------------------

 ---------
 butadiene
 ---------
 Symbolic Z-matrix:
 Charge =  0 Multiplicity = 1

                         Standard orientation:
 ---------------------------------------------------------------------
 Center     Atomic      Atomic             Coordinates (Angstroms)
 Number     Number       Type             X           Y           Z
 ---------------------------------------------------------------------
      1          6           0        1.830294    0.102532    0.003892
      2          6           0        0.606074   -0.385710   -0.008286
      3          6           0       -0.601795    0.415089   -0.019390
      4          6           0       -1.832659   -0.114565    0.016415
      5          1           0        2.674608   -0.569819    0.007056
      6          1           0        1.988377    1.178670    0.103448
      7          1           0        0.472788   -1.450453   -0.048255
      8          1           0       -0.462014    1.489493   -0.079699
      9          1           0       -1.938432   -1.231499    0.035510
     10          1           0       -2.746812    0.479528    0.026161
 ---------------------------------------------------------------------

 SCF Done:  E(RB2PLYPD3) =  -155.699329436     A.U. after   11 cycles
 E2(B2PLYPD3) =    -0.2257207227D+00 E(B2PLYPD3) =    -0.15592505015824D+03

 The electronic state is 1-A.
 Alpha  occ. eigenvalues --  -10.62579 -10.62140 -10.61979 -10.61242  -0.93227
 Alpha  occ. eigenvalues --   -0.84962  -0.69811  -0.64018  -0.54566  -0.53784
 Alpha  occ. eigenvalues --   -0.46756  -0.45228  -0.41114  -0.38260  -0.27788
 Alpha virt. eigenvalues --    0.01871   0.07016   0.07337   0.08048   0.09637
 Alpha virt. eigenvalues --    0.11717   0.12389   0.14583   0.15841   0.16067
 Alpha virt. eigenvalues --    0.18665   0.20485   0.21327   0.22733   0.24067

 Mulliken charges:
               1
     1  C   -0.178539
     2  C   -0.019297
     3  C   -0.036235
     4  C   -0.172441
     5  H    0.086301
     6  H    0.065411
     7  H    0.052182
     8  H    0.054408
     9  H    0.059494
    10  H    0.088715
 Sum of Mulliken charges =   0.00000

 Dipole moment (field-independent basis, Debye):
    X=             -0.0125    Y=             -0.0001    Z=              0.0261  Tot=              0.0289
 Quadrupole moment (field-independent basis, Debye-Ang):
   XX=            -23.6315   YY=            -23.1100   ZZ=            -29.2536
   XY=             -0.0424   XZ=              0.0942   YZ=              0.0606

 1\1\GINC-NODE29\SP\RB2PLYPD3-FC\def2QZVP\C4H6\BOITTIER\26-Aug-2020\0\\
 #p B2PLYPD3/Def2QZVP\\butadiene\\0,1\C,0,-3.834322,0.213145,0.012341\C
 ,0,-2.717816,-0.486646,0.043181\C,0,-1.385613,0.083851,0.03233\C,0,-0.
 270163,-0.65936,0.016532\H,0,-4.785777,-0.296185,0.028065\H,0,-3.79662
 4,1.296497,-0.121464\H,0,-2.778037,-1.556209,0.117003\H,0,-1.329742,1.
 167233,0.058414\H,0,-0.36701,-1.777147,0.032888\H,0,0.735882,-0.239937
 ,-0.009444\\Version=ES64L-G09RevD.01\State=1-A\HF=-155.6993294\MP2=-15
 5.9250502\RMSD=5.436e-09\PG=C01 [X(C4H6)]\\@

 Normal termination of Gaussian 09 at Wed Aug 26 19:35:28 2020.
