 Gaussian 09, Revision D.01,
 Gaussian 09:  ES64L-G09RevD.01 24-Apr-2013

 --------------------
 #p B2PLYPD3/Def2QZVP
 --------------------

 ---------
 butadiene
 ---------
 Symbolic Z-matrix:
 Charge =  0 Multiplicity = 1

                         Standard orientation:
 ---------------------------------------------------------------------
 Center     Atomic      Atomic             Coordinates (Angstroms)
 Number     Number       Type             X           Y           Z
 ---------------------------------------------------------------------
      1          6           0       -1.836139   -0.119806    0.002105
      2          6           0       -0.592948    0.420082   -0.016600
      3          6           0        0.598671   -0.390218    0.009204
      4          6           0        1.835418    0.093368   -0.010327
      5          1           0       -2.739472    0.492897    0.012313
      6          1           0       -2.000048   -1.188273   -0.001111
      7          1           0       -0.451968    1.498519    0.033356
      8          1           0        0.433321   -1.440010    0.009528
      9          1           0        1.994012    1.164717    0.028464
     10          1           0        2.734144   -0.548409    0.011154
 ---------------------------------------------------------------------

 SCF Done:  E(RB2PLYPD3) =  -155.699334470     A.U. after   11 cycles
 E2(B2PLYPD3) =    -0.2261189033D+00 E(B2PLYPD3) =    -0.15592545337367D+03

 The electronic state is 1-A.
 Alpha  occ. eigenvalues --  -10.62843 -10.62051 -10.61983 -10.61616  -0.93162
 Alpha  occ. eigenvalues --   -0.84571  -0.70181  -0.64423  -0.54508  -0.53743
 Alpha  occ. eigenvalues --   -0.46661  -0.45516  -0.41312  -0.38207  -0.27470
 Alpha virt. eigenvalues --    0.01520   0.06992   0.07407   0.08074   0.09531
 Alpha virt. eigenvalues --    0.11678   0.12481   0.14680   0.15797   0.16189
 Alpha virt. eigenvalues --    0.18750   0.20397   0.21781   0.22959   0.23612

 Mulliken charges:
               1
     1  C   -0.178015
     2  C   -0.033496
     3  C   -0.024173
     4  C   -0.174531
     5  H    0.083503
     6  H    0.066719
     7  H    0.056511
     8  H    0.057039
     9  H    0.062413
    10  H    0.084031
 Sum of Mulliken charges =   0.00000

 Dipole moment (field-independent basis, Debye):
    X=             -0.0263    Y=             -0.0200    Z=              0.0816  Tot=              0.0880
 Quadrupole moment (field-independent basis, Debye-Ang):
   XX=            -23.4552   YY=            -23.1488   ZZ=            -29.3167
   XY=              0.2220   XZ=              0.0293   YZ=              0.0810

 1\1\GINC-NODE20\SP\RB2PLYPD3-FC\def2QZVP\C4H6\BOITTIER\26-Aug-2020\0\\
 #p B2PLYPD3/Def2QZVP\\butadiene\\0,1\C,0,-3.835746,0.238952,0.015379\C
 ,0,-2.712352,-0.518837,0.048488\C,0,-1.392611,0.058773,0.005405\C,0,-0
 .265243,-0.642482,0.038012\H,0,-4.836005,-0.198075,0.018242\H,0,-3.801
 272,1.319148,-0.006662\H,0,-2.771328,-1.605722,0.024004\H,0,-1.362982,
 1.120797,-0.01974\H,0,-0.305573,-1.725366,0.024549\H,0,0.735718,-0.176
 774,0.002782\\Version=ES64L-G09RevD.01\State=1-A\HF=-155.6993345\MP2=-
 155.9254534\RMSD=5.347e-09\PG=C01 [X(C4H6)]\\@

 Normal termination of Gaussian 09 at Wed Aug 26 18:42:24 2020.
