 Gaussian 09, Revision D.01,
 Gaussian 09:  ES64L-G09RevD.01 24-Apr-2013

 --------------------
 #p B2PLYPD3/Def2QZVP
 --------------------

 ---------
 butadiene
 ---------
 Symbolic Z-matrix:
 Charge =  0 Multiplicity = 1

                         Standard orientation:
 ---------------------------------------------------------------------
 Center     Atomic      Atomic             Coordinates (Angstroms)
 Number     Number       Type             X           Y           Z
 ---------------------------------------------------------------------
      1          6           0       -1.851015    0.116931   -0.045401
      2          6           0       -0.639682   -0.404091    0.034613
      3          6           0        0.614971    0.333799    0.030812
      4          6           0        1.851760   -0.076778   -0.078497
      5          1           0       -2.816094   -0.426056   -0.066589
      6          1           0       -1.846321    1.255414   -0.062283
      7          1           0       -0.548246   -1.507124    0.270635
      8          1           0        0.493158    1.471763    0.179243
      9          1           0        2.167286   -1.114344   -0.121849
     10          1           0        2.694012    0.501182    0.151677
 ---------------------------------------------------------------------

 SCF Done:  E(RB2PLYPD3) =  -155.682466124     A.U. after   11 cycles
 E2(B2PLYPD3) =    -0.2262801653D+00 E(B2PLYPD3) =    -0.15590874628970D+03

 The electronic state is 1-A.
 Alpha  occ. eigenvalues --  -10.63196 -10.63102 -10.62598 -10.60873  -0.93072
 Alpha  occ. eigenvalues --   -0.85644  -0.70328  -0.62650  -0.55476  -0.52993
 Alpha  occ. eigenvalues --   -0.48324  -0.43840  -0.40050  -0.37419  -0.28536
 Alpha virt. eigenvalues --    0.01611   0.06956   0.07197   0.07731   0.09961
 Alpha virt. eigenvalues --    0.11318   0.12617   0.14463   0.15320   0.16514
 Alpha virt. eigenvalues --    0.18970   0.19312   0.21244   0.22674   0.23553

 Mulliken charges:
               1
     1  C   -0.162049
     2  C   -0.033501
     3  C   -0.024260
     4  C   -0.153622
     5  H    0.098427
     6  H    0.053155
     7  H    0.052094
     8  H    0.037991
     9  H    0.050271
    10  H    0.081493
 Sum of Mulliken charges =   0.00000

 Dipole moment (field-independent basis, Debye):
    X=             -0.0593    Y=             -0.0830    Z=              0.3419  Tot=              0.3568
 Quadrupole moment (field-independent basis, Debye-Ang):
   XX=            -22.7030   YY=            -23.9527   ZZ=            -29.1166
   XY=              0.0248   XZ=              0.4648   YZ=              0.0669

 1\1\GINC-NODE10\SP\RB2PLYPD3-FC\def2QZVP\C4H6\BOITTIER\26-Aug-2020\0\\
 #p B2PLYPD3/Def2QZVP\\butadiene\\0,1\C,0,-3.850985,0.223313,-0.025789\
 C,0,-2.748739,-0.49726,0.079194\C,0,-1.384776,0.010305,0.054001\C,0,-0
 .23857,-0.613079,-0.034177\H,0,-4.895905,-0.1438,-0.031417\H,0,-3.6481
 55,1.342164,-0.084801\H,0,-2.850342,-1.589788,0.356335\H,0,-1.306313,1
 .156831,0.159607\H,0,-0.108609,-1.690612,-0.03758\H,0,0.691864,-0.1823
 78,0.178415\\Version=ES64L-G09RevD.01\State=1-A\HF=-155.6824661\MP2=-1
 55.9087463\RMSD=7.323e-09\PG=C01 [X(C4H6)]\\@

 Normal termination of Gaussian 09 at Wed Aug 26 13:06:53 2020.
