 Gaussian 09, Revision D.01,
 Gaussian 09:  ES64L-G09RevD.01 24-Apr-2013

 --------------------
 #p B2PLYPD3/Def2QZVP
 --------------------

 ---------
 butadiene
 ---------
 Symbolic Z-matrix:
 Charge =  0 Multiplicity = 1

                         Standard orientation:
 ---------------------------------------------------------------------
 Center     Atomic      Atomic             Coordinates (Angstroms)
 Number     Number       Type             X           Y           Z
 ---------------------------------------------------------------------
      1          6           0        1.846802    0.097390    0.011794
      2          6           0        0.605526   -0.377436   -0.027338
      3          6           0       -0.617824    0.400788   -0.017978
      4          6           0       -1.836999   -0.122801    0.001389
      5          1           0        2.697152   -0.555498    0.059438
      6          1           0        2.031316    1.179272    0.014354
      7          1           0        0.460303   -1.432579   -0.024337
      8          1           0       -0.505339    1.485057    0.029345
      9          1           0       -1.981281   -1.199926    0.085257
     10          1           0       -2.687180    0.536033    0.028737
 ---------------------------------------------------------------------

 SCF Done:  E(RB2PLYPD3) =  -155.700406893     A.U. after   11 cycles
 E2(B2PLYPD3) =    -0.2253520369D+00 E(B2PLYPD3) =    -0.15592575893005D+03

 The electronic state is 1-A.
 Alpha  occ. eigenvalues --  -10.62369 -10.62096 -10.61492 -10.61462  -0.93161
 Alpha  occ. eigenvalues --   -0.85195  -0.70218  -0.63993  -0.54661  -0.54064
 Alpha  occ. eigenvalues --   -0.46867  -0.45673  -0.40971  -0.38216  -0.27848
 Alpha virt. eigenvalues --    0.01787   0.06996   0.07442   0.08072   0.09814
 Alpha virt. eigenvalues --    0.11725   0.12345   0.14753   0.15807   0.16123
 Alpha virt. eigenvalues --    0.18789   0.20507   0.21485   0.22698   0.24007

 Mulliken charges:
               1
     1  C   -0.177212
     2  C   -0.027822
     3  C   -0.027729
     4  C   -0.176386
     5  H    0.088467
     6  H    0.063446
     7  H    0.052318
     8  H    0.050321
     9  H    0.067535
    10  H    0.087061
 Sum of Mulliken charges =   0.00000

 Dipole moment (field-independent basis, Debye):
    X=             -0.0182    Y=             -0.0063    Z=              0.1488  Tot=              0.1500
 Quadrupole moment (field-independent basis, Debye-Ang):
   XX=            -23.5444   YY=            -23.1078   ZZ=            -29.1972
   XY=              0.0146   XZ=             -0.0752   YZ=             -0.0540

 1\1\GINC-NODE33\SP\RB2PLYPD3-FC\def2QZVP\C4H6\BOITTIER\26-Aug-2020\0\\
 #p B2PLYPD3/Def2QZVP\\butadiene\\0,1\C,0,-3.852196,0.210925,0.00485\C,
 0,-2.715642,-0.476973,0.057749\C,0,-1.372937,0.069503,0.029212\C,0,-0.
 267058,-0.663928,0.02489\H,0,-4.805717,-0.280444,-0.026502\H,0,-3.8403
 76,1.307924,-0.026344\H,0,-2.761361,-1.540794,0.08264\H,0,-1.289986,1.
 154808,-0.046717\H,0,-0.31793,-1.751308,-0.030481\H,0,0.687084,-0.1686
 34,-0.01888\\Version=ES64L-G09RevD.01\State=1-A\HF=-155.7004069\MP2=-1
 55.9257589\RMSD=3.421e-09\PG=C01 [X(C4H6)]\\@

 Normal termination of Gaussian 09 at Wed Aug 26 19:44:11 2020.
