 Gaussian 09, Revision D.01,
 Gaussian 09:  ES64L-G09RevD.01 24-Apr-2013

 --------------------
 #p B2PLYPD3/Def2QZVP
 --------------------

 ---------
 butadiene
 ---------
 Symbolic Z-matrix:
 Charge =  0 Multiplicity = 1

                         Standard orientation:
 ---------------------------------------------------------------------
 Center     Atomic      Atomic             Coordinates (Angstroms)
 Number     Number       Type             X           Y           Z
 ---------------------------------------------------------------------
      1          6           0       -1.830253    0.115146   -0.024349
      2          6           0       -0.599460   -0.414962    0.008012
      3          6           0        0.598267    0.400604    0.016274
      4          6           0        1.834544   -0.104398   -0.007495
      5          1           0       -2.727359   -0.511020    0.062595
      6          1           0       -1.974828    1.196309   -0.031065
      7          1           0       -0.491578   -1.501900    0.020014
      8          1           0        0.428847    1.489039    0.043878
      9          1           0        2.000692   -1.156833   -0.031373
     10          1           0        2.745643    0.506057   -0.018695
 ---------------------------------------------------------------------

 SCF Done:  E(RB2PLYPD3) =  -155.699702421     A.U. after   11 cycles
 E2(B2PLYPD3) =    -0.2261233383D+00 E(B2PLYPD3) =    -0.15592582575966D+03

 The electronic state is 1-A.
 Alpha  occ. eigenvalues --  -10.62771 -10.62656 -10.61809 -10.61517  -0.93016
 Alpha  occ. eigenvalues --   -0.84698  -0.69971  -0.64025  -0.54490  -0.53750
 Alpha  occ. eigenvalues --   -0.46537  -0.45366  -0.41191  -0.38173  -0.27581
 Alpha virt. eigenvalues --    0.01674   0.07006   0.07330   0.08001   0.09491
 Alpha virt. eigenvalues --    0.11672   0.12503   0.14626   0.15876   0.16150
 Alpha virt. eigenvalues --    0.18762   0.20393   0.21738   0.22882   0.23610

 Mulliken charges:
               1
     1  C   -0.174090
     2  C   -0.029784
     3  C   -0.028148
     4  C   -0.173790
     5  H    0.083643
     6  H    0.063412
     7  H    0.055989
     8  H    0.053619
     9  H    0.065650
    10  H    0.083498
 Sum of Mulliken charges =   0.00000

 Dipole moment (field-independent basis, Debye):
    X=              0.0087    Y=             -0.0277    Z=              0.0582  Tot=              0.0650
 Quadrupole moment (field-independent basis, Debye-Ang):
   XX=            -23.4873   YY=            -23.1247   ZZ=            -29.3313
   XY=             -0.2069   XZ=             -0.2567   YZ=             -0.0261

 1\1\GINC-NODE28\SP\RB2PLYPD3-FC\def2QZVP\C4H6\BOITTIER\26-Aug-2020\0\\
 #p B2PLYPD3/Def2QZVP\\butadiene\\0,1\C,0,-3.831559,0.229412,-0.001517\
 C,0,-2.716941,-0.51372,0.046388\C,0,-1.391306,0.071253,0.030085\C,0,-0
 .267063,-0.649837,0.021135\H,0,-4.826717,-0.221051,0.104242\H,0,-3.778
 005,1.318208,-0.040439\H,0,-2.807596,-1.601391,0.090774\H,0,-1.360678,
 1.172704,0.025255\H,0,-0.29437,-1.715198,0.028617\H,0,0.739437,-0.2151
 35,-0.008447\\Version=ES64L-G09RevD.01\State=1-A\HF=-155.6997024\MP2=-
 155.9258258\RMSD=3.376e-09\PG=C01 [X(C4H6)]\\@

 Normal termination of Gaussian 09 at Wed Aug 26 21:05:03 2020.
