 Gaussian 09, Revision D.01,
 Gaussian 09:  ES64L-G09RevD.01 24-Apr-2013

 --------------------
 #p B2PLYPD3/Def2QZVP
 --------------------

 ---------
 butadiene
 ---------
 Symbolic Z-matrix:
 Charge =  0 Multiplicity = 1

                         Standard orientation:
 ---------------------------------------------------------------------
 Center     Atomic      Atomic             Coordinates (Angstroms)
 Number     Number       Type             X           Y           Z
 ---------------------------------------------------------------------
      1          6           0       -1.847495   -0.118111    0.055580
      2          6           0       -0.604603    0.422573   -0.041172
      3          6           0        0.609691   -0.380387   -0.042099
      4          6           0        1.873116    0.085791    0.024563
      5          1           0       -2.773655    0.460992   -0.087886
      6          1           0       -2.039286   -1.206274    0.074269
      7          1           0       -0.522936    1.538582   -0.021098
      8          1           0        0.384739   -1.440495   -0.069582
      9          1           0        2.040132    1.128485    0.098201
     10          1           0        2.726748   -0.540487    0.024862
 ---------------------------------------------------------------------

 SCF Done:  E(RB2PLYPD3) =  -155.694409087     A.U. after   11 cycles
 E2(B2PLYPD3) =    -0.2269181609D+00 E(B2PLYPD3) =    -0.15592132724772D+03

 The electronic state is 1-A.
 Alpha  occ. eigenvalues --  -10.63490 -10.62913 -10.62461 -10.61407  -0.92565
 Alpha  occ. eigenvalues --   -0.84470  -0.70600  -0.63833  -0.54803  -0.53394
 Alpha  occ. eigenvalues --   -0.46906  -0.45399  -0.41038  -0.37758  -0.27460
 Alpha virt. eigenvalues --    0.01044   0.06977   0.07380   0.08039   0.09426
 Alpha virt. eigenvalues --    0.11577   0.12533   0.14572   0.15776   0.16235
 Alpha virt. eigenvalues --    0.19018   0.20047   0.22024   0.22735   0.23224

 Mulliken charges:
               1
     1  C   -0.166556
     2  C   -0.033622
     3  C   -0.030186
     4  C   -0.176980
     5  H    0.080537
     6  H    0.057053
     7  H    0.054613
     8  H    0.055096
     9  H    0.068282
    10  H    0.091763
 Sum of Mulliken charges =   0.00000

 Dipole moment (field-independent basis, Debye):
    X=             -0.0114    Y=             -0.0106    Z=             -0.0369  Tot=              0.0400
 Quadrupole moment (field-independent basis, Debye-Ang):
   XX=            -23.1381   YY=            -23.3311   ZZ=            -29.4183
   XY=              0.3185   XZ=              0.3998   YZ=              0.0243

 1\1\GINC-NODE14\SP\RB2PLYPD3-FC\def2QZVP\C4H6\BOITTIER\26-Aug-2020\0\\
 #p B2PLYPD3/Def2QZVP\\butadiene\\0,1\C,0,-3.850892,0.236557,-0.031641\
 C,0,-2.726305,-0.518072,0.079348\C,0,-1.38635,0.050414,0.054832\C,0,-0
 .229136,-0.63943,0.000246\H,0,-4.865868,-0.16012,0.130182\H,0,-3.84189
 8,1.340454,-0.082257\H,0,-2.848908,-1.630435,0.092196\H,0,-1.414751,1.
 134097,0.051243\H,0,-0.254853,-1.696794,-0.042735\H,0,0.724057,-0.1790
 67,-0.019768\\Version=ES64L-G09RevD.01\State=1-A\HF=-155.6944091\MP2=-
 155.9213272\RMSD=5.741e-09\PG=C01 [X(C4H6)]\\@

 Normal termination of Gaussian 09 at Wed Aug 26 10:57:44 2020.
