 Gaussian 09, Revision D.01,
 Gaussian 09:  ES64L-G09RevD.01 24-Apr-2013

 --------------------
 #p B2PLYPD3/Def2QZVP
 --------------------

 ---------
 butadiene
 ---------
 Symbolic Z-matrix:
 Charge =  0 Multiplicity = 1

                         Standard orientation:
 ---------------------------------------------------------------------
 Center     Atomic      Atomic             Coordinates (Angstroms)
 Number     Number       Type             X           Y           Z
 ---------------------------------------------------------------------
      1          6           0        1.842574    0.113035   -0.023609
      2          6           0        0.616599   -0.403598    0.037987
      3          6           0       -0.612101    0.379227    0.019466
      4          6           0       -1.845833   -0.108010   -0.018782
      5          1           0        2.721294   -0.504138   -0.041308
      6          1           0        1.947939    1.217556   -0.000804
      7          1           0        0.506669   -1.464449   -0.011550
      8          1           0       -0.461383    1.452707    0.007344
      9          1           0       -2.052055   -1.150811   -0.016905
     10          1           0       -2.669897    0.565214   -0.027148
 ---------------------------------------------------------------------

 SCF Done:  E(RB2PLYPD3) =  -155.700118101     A.U. after   11 cycles
 E2(B2PLYPD3) =    -0.2252503704D+00 E(B2PLYPD3) =    -0.15592536847109D+03

 The electronic state is 1-A.
 Alpha  occ. eigenvalues --  -10.62362 -10.62195 -10.61704 -10.61007  -0.93055
 Alpha  occ. eigenvalues --   -0.85238  -0.70277  -0.64129  -0.54842  -0.54071
 Alpha  occ. eigenvalues --   -0.46987  -0.45686  -0.40993  -0.38143  -0.27877
 Alpha virt. eigenvalues --    0.01822   0.07006   0.07491   0.08113   0.09754
 Alpha virt. eigenvalues --    0.11719   0.12407   0.14747   0.15790   0.16132
 Alpha virt. eigenvalues --    0.18813   0.20358   0.21556   0.22867   0.24077

 Mulliken charges:
               1
     1  C   -0.174322
     2  C   -0.031730
     3  C   -0.025924
     4  C   -0.179705
     5  H    0.090285
     6  H    0.060517
     7  H    0.054397
     8  H    0.049884
     9  H    0.069987
    10  H    0.086611
 Sum of Mulliken charges =   0.00000

 Dipole moment (field-independent basis, Debye):
    X=              0.0019    Y=             -0.0424    Z=             -0.0412  Tot=              0.0592
 Quadrupole moment (field-independent basis, Debye-Ang):
   XX=            -23.4472   YY=            -23.1195   ZZ=            -29.1952
   XY=              0.0233   XZ=             -0.0395   YZ=              0.0624

 1\1\GINC-NODE29\SP\RB2PLYPD3-FC\def2QZVP\C4H6\BOITTIER\26-Aug-2020\0\\
 #p B2PLYPD3/Def2QZVP\\butadiene\\0,1\C,0,-3.844416,0.226992,0.043225\C
 ,0,-2.73028,-0.501442,0.000785\C,0,-1.381771,0.050244,-0.004547\C,0,-0
 .254344,-0.647384,0.051843\H,0,-4.818893,-0.222915,0.079861\H,0,-3.751
 55,1.331268,-0.016267\H,0,-2.810766,-1.562705,0.085558\H,0,-1.338911,1
 .133215,-0.02818\H,0,-0.237082,-1.709731,0.084793\H,0,0.676441,-0.1317
 63,0.039313\\Version=ES64L-G09RevD.01\State=1-A\HF=-155.7001181\MP2=-1
 55.9253685\RMSD=3.783e-09\PG=C01 [X(C4H6)]\\@

 Normal termination of Gaussian 09 at Wed Aug 26 21:05:58 2020.
