 Gaussian 09, Revision D.01,
 Gaussian 09:  ES64L-G09RevD.01 24-Apr-2013

 --------------------
 #p B2PLYPD3/Def2QZVP
 --------------------

 ---------
 butadiene
 ---------
 Symbolic Z-matrix:
 Charge =  0 Multiplicity = 1

                         Standard orientation:
 ---------------------------------------------------------------------
 Center     Atomic      Atomic             Coordinates (Angstroms)
 Number     Number       Type             X           Y           Z
 ---------------------------------------------------------------------
      1          6           0       -1.826922   -0.092288    0.002645
      2          6           0       -0.586839    0.378115   -0.035347
      3          6           0        0.607996   -0.418285   -0.017641
      4          6           0        1.826573    0.111386    0.004104
      5          1           0       -2.669741    0.562186    0.090798
      6          1           0       -2.011798   -1.159373    0.055066
      7          1           0       -0.448825    1.473320    0.049657
      8          1           0        0.385782   -1.484595   -0.031295
      9          1           0        1.926274    1.240954   -0.008526
     10          1           0        2.693461   -0.506063    0.121735
 ---------------------------------------------------------------------

 SCF Done:  E(RB2PLYPD3) =  -155.696567560     A.U. after   11 cycles
 E2(B2PLYPD3) =    -0.2259326989D+00 E(B2PLYPD3) =    -0.15592250025887D+03

 The electronic state is 1-A.
 Alpha  occ. eigenvalues --  -10.62404 -10.62224 -10.61998 -10.61197  -0.93440
 Alpha  occ. eigenvalues --   -0.85012  -0.70236  -0.63637  -0.54956  -0.53452
 Alpha  occ. eigenvalues --   -0.46960  -0.45248  -0.40833  -0.38462  -0.27742
 Alpha virt. eigenvalues --    0.01751   0.07026   0.07204   0.08110   0.09708
 Alpha virt. eigenvalues --    0.11772   0.12380   0.14672   0.15559   0.16187
 Alpha virt. eigenvalues --    0.18643   0.20130   0.21744   0.22808   0.24088

 Mulliken charges:
               1
     1  C   -0.182591
     2  C   -0.007808
     3  C   -0.035440
     4  C   -0.170627
     5  H    0.087099
     6  H    0.059322
     7  H    0.042884
     8  H    0.051414
     9  H    0.064367
    10  H    0.091380
 Sum of Mulliken charges =   0.00000

 Dipole moment (field-independent basis, Debye):
    X=              0.0043    Y=             -0.0339    Z=              0.2217  Tot=              0.2244
 Quadrupole moment (field-independent basis, Debye-Ang):
   XX=            -23.6944   YY=            -23.1758   ZZ=            -29.2126
   XY=              0.1098   XZ=             -0.0795   YZ=              0.0127

 1\1\GINC-NODE25\SP\RB2PLYPD3-FC\def2QZVP\C4H6\BOITTIER\26-Aug-2020\0\\
 #p B2PLYPD3/Def2QZVP\\butadiene\\0,1\C,0,-3.833397,0.212092,0.009789\C
 ,0,-2.701834,-0.47878,0.06258\C,0,-1.380195,0.081838,0.028304\C,0,-0.2
 80865,-0.664753,0.022784\H,0,-4.783039,-0.276921,-0.064356\H,0,-3.8175
 21,1.293327,-0.069433\H,0,-2.769249,-1.582359,0.004992\H,0,-1.401019,1
 .170862,0.015059\H,0,-0.392097,-1.792578,0.063549\H,0,0.685151,-0.2216
 6,-0.107816\\Version=ES64L-G09RevD.01\State=1-A\HF=-155.6965676\MP2=-1
 55.9225003\RMSD=4.652e-09\PG=C01 [X(C4H6)]\\@

 Normal termination of Gaussian 09 at Wed Aug 26 10:26:15 2020.
