 Gaussian 09, Revision D.01,
 Gaussian 09:  ES64L-G09RevD.01 24-Apr-2013

 --------------------
 #p B2PLYPD3/Def2QZVP
 --------------------

 ---------
 butadiene
 ---------
 Symbolic Z-matrix:
 Charge =  0 Multiplicity = 1

                         Standard orientation:
 ---------------------------------------------------------------------
 Center     Atomic      Atomic             Coordinates (Angstroms)
 Number     Number       Type             X           Y           Z
 ---------------------------------------------------------------------
      1          6           0        1.837464    0.086112    0.006758
      2          6           0        0.596068   -0.394132   -0.015425
      3          6           0       -0.602802    0.428910   -0.028757
      4          6           0       -1.846306   -0.120223   -0.013490
      5          1           0        2.696554   -0.534262    0.014429
      6          1           0        1.992595    1.189598    0.007809
      7          1           0        0.450330   -1.418969    0.113216
      8          1           0       -0.398053    1.486444    0.048124
      9          1           0       -1.909353   -1.217727   -0.030433
     10          1           0       -2.738614    0.490911    0.152335
 ---------------------------------------------------------------------

 SCF Done:  E(RB2PLYPD3) =  -155.694763477     A.U. after   11 cycles
 E2(B2PLYPD3) =    -0.2263844667D+00 E(B2PLYPD3) =    -0.15592114794343D+03

 The electronic state is 1-A.
 Alpha  occ. eigenvalues --  -10.62874 -10.62307 -10.61887 -10.61510  -0.93039
 Alpha  occ. eigenvalues --   -0.84562  -0.70069  -0.64554  -0.54662  -0.53520
 Alpha  occ. eigenvalues --   -0.46811  -0.45564  -0.41515  -0.37821  -0.27488
 Alpha virt. eigenvalues --    0.01470   0.07064   0.07344   0.08181   0.09315
 Alpha virt. eigenvalues --    0.11731   0.12504   0.14526   0.15631   0.16141
 Alpha virt. eigenvalues --    0.18597   0.19966   0.21661   0.23224   0.24146

 Mulliken charges:
               1
     1  C   -0.180001
     2  C   -0.022733
     3  C   -0.036853
     4  C   -0.176987
     5  H    0.089449
     6  H    0.056377
     7  H    0.057772
     8  H    0.056676
     9  H    0.066633
    10  H    0.089668
 Sum of Mulliken charges =   0.00000

 Dipole moment (field-independent basis, Debye):
    X=              0.0408    Y=             -0.0267    Z=              0.2557  Tot=              0.2603
 Quadrupole moment (field-independent basis, Debye-Ang):
   XX=            -23.6626   YY=            -23.1633   ZZ=            -29.2996
   XY=              0.0437   XZ=             -0.3425   YZ=              0.0698

 1\1\GINC-NODE11\SP\RB2PLYPD3-FC\def2QZVP\C4H6\BOITTIER\26-Aug-2020\0\\
 #p B2PLYPD3/Def2QZVP\\butadiene\\0,1\C,0,-3.844622,0.206579,0.010279\C
 ,0,-2.712124,-0.492237,0.046247\C,0,-1.382687,0.09709,0.033807\C,0,-0.
 26097,-0.670917,0.034434\H,0,-4.802869,-0.245731,0.022004\H,0,-3.79494
 1,1.319275,-0.024193\H,0,-2.757433,-1.529788,-0.051297\H,0,-1.390671,1
 .171474,-0.075032\H,0,-0.399981,-1.76038,0.084667\H,0,0.727164,-0.2389
 37,-0.150447\\Version=ES64L-G09RevD.01\State=1-A\HF=-155.6947635\MP2=-
 155.9211479\RMSD=6.624e-09\PG=C01 [X(C4H6)]\\@

 Normal termination of Gaussian 09 at Wed Aug 26 09:27:57 2020.
