 Gaussian 09, Revision D.01,
 Gaussian 09:  ES64L-G09RevD.01 24-Apr-2013

 --------------------
 #p B2PLYPD3/Def2QZVP
 --------------------

 ---------
 butadiene
 ---------
 Symbolic Z-matrix:
 Charge =  0 Multiplicity = 1

                         Standard orientation:
 ---------------------------------------------------------------------
 Center     Atomic      Atomic             Coordinates (Angstroms)
 Number     Number       Type             X           Y           Z
 ---------------------------------------------------------------------
      1          6           0        1.876769    0.093607    0.047650
      2          6           0        0.622860   -0.401242   -0.064626
      3          6           0       -0.613988    0.392945   -0.119125
      4          6           0       -1.859368   -0.112883    0.021841
      5          1           0        2.701530   -0.488501    0.165339
      6          1           0        1.874717    1.241633    0.096567
      7          1           0        0.456209   -1.491306   -0.057577
      8          1           0       -0.388684    1.493050    0.041278
      9          1           0       -2.098791   -1.170387    0.187808
     10          1           0       -2.702620    0.580946    0.252150
 ---------------------------------------------------------------------

 SCF Done:  E(RB2PLYPD3) =  -155.681549550     A.U. after   11 cycles
 E2(B2PLYPD3) =    -0.2279279279D+00 E(B2PLYPD3) =    -0.15590947747778D+03

 The electronic state is 1-A.
 Alpha  occ. eigenvalues --  -10.63803 -10.63117 -10.62736 -10.61963  -0.92402
 Alpha  occ. eigenvalues --   -0.84593  -0.70339  -0.63053  -0.55578  -0.52250
 Alpha  occ. eigenvalues --   -0.47724  -0.44402  -0.40341  -0.37733  -0.27698
 Alpha virt. eigenvalues --    0.01021   0.06920   0.07056   0.08075   0.09159
 Alpha virt. eigenvalues --    0.11587   0.12375   0.14438   0.15535   0.16107
 Alpha virt. eigenvalues --    0.18946   0.19921   0.21405   0.22866   0.23515

 Mulliken charges:
               1
     1  C   -0.179218
     2  C   -0.024845
     3  C   -0.025914
     4  C   -0.163561
     5  H    0.103611
     6  H    0.053208
     7  H    0.043614
     8  H    0.046630
     9  H    0.068830
    10  H    0.077645
 Sum of Mulliken charges =   0.00000

 Dipole moment (field-independent basis, Debye):
    X=             -0.0335    Y=             -0.1189    Z=              0.5081  Tot=              0.5229
 Quadrupole moment (field-independent basis, Debye-Ang):
   XX=            -23.7167   YY=            -23.4338   ZZ=            -29.3993
   XY=              0.0583   XZ=             -0.5051   YZ=              0.0828

 1\1\GINC-NODE10\SP\RB2PLYPD3-FC\def2QZVP\C4H6\BOITTIER\26-Aug-2020\0\\
 #p B2PLYPD3/Def2QZVP\\butadiene\\0,1\C,0,-3.878355,0.216068,-0.034929\
 C,0,-2.733204,-0.492245,0.094263\C,0,-1.372927,0.067029,0.113069\C,0,-
 0.240654,-0.660599,-0.010298\H,0,-4.795701,-0.211722,-0.126601\H,0,-3.
 669774,1.341978,-0.130747\H,0,-2.765958,-1.593886,0.131358\H,0,-1.3977
 09,1.182475,-0.091598\H,0,-0.197535,-1.749701,-0.133506\H,0,0.711579,-
 0.140187,-0.270947\\Version=ES64L-G09RevD.01\State=1-A\HF=-155.6815495
 \MP2=-155.9094775\RMSD=5.806e-09\PG=C01 [X(C4H6)]\\@

 Normal termination of Gaussian 09 at Wed Aug 26 12:22:45 2020.
