 Gaussian 09, Revision D.01,
 Gaussian 09:  ES64L-G09RevD.01 24-Apr-2013

 --------------------
 #p B2PLYPD3/Def2QZVP
 --------------------

 ---------
 butadiene
 ---------
 Symbolic Z-matrix:
 Charge =  0 Multiplicity = 1

                         Standard orientation:
 ---------------------------------------------------------------------
 Center     Atomic      Atomic             Coordinates (Angstroms)
 Number     Number       Type             X           Y           Z
 ---------------------------------------------------------------------
      1          6           0        1.831424    0.099904   -0.023922
      2          6           0        0.616362   -0.391492    0.041433
      3          6           0       -0.599033    0.411821    0.004641
      4          6           0       -1.830426   -0.122153   -0.032713
      5          1           0        2.732734   -0.524174   -0.065738
      6          1           0        1.898866    1.182170    0.014096
      7          1           0        0.407845   -1.434943    0.012027
      8          1           0       -0.512250    1.528949    0.070606
      9          1           0       -1.913083   -1.199041    0.048527
     10          1           0       -2.724077    0.458560   -0.016160
 ---------------------------------------------------------------------

 SCF Done:  E(RB2PLYPD3) =  -155.696583194     A.U. after   11 cycles
 E2(B2PLYPD3) =    -0.2257229663D+00 E(B2PLYPD3) =    -0.15592230616010D+03

 The electronic state is 1-A.
 Alpha  occ. eigenvalues --  -10.62932 -10.62001 -10.61425 -10.61408  -0.93251
 Alpha  occ. eigenvalues --   -0.85140  -0.69904  -0.63960  -0.54759  -0.53826
 Alpha  occ. eigenvalues --   -0.47018  -0.45219  -0.41041  -0.38207  -0.27868
 Alpha virt. eigenvalues --    0.01925   0.07066   0.07330   0.08075   0.09555
 Alpha virt. eigenvalues --    0.11727   0.12585   0.14494   0.15634   0.16247
 Alpha virt. eigenvalues --    0.18703   0.20175   0.21414   0.23370   0.24007

 Mulliken charges:
               1
     1  C   -0.171364
     2  C   -0.026091
     3  C   -0.023786
     4  C   -0.180236
     5  H    0.090673
     6  H    0.064765
     7  H    0.053401
     8  H    0.043754
     9  H    0.059152
    10  H    0.089733
 Sum of Mulliken charges =   0.00000

 Dipole moment (field-independent basis, Debye):
    X=             -0.0048    Y=             -0.0230    Z=              0.0932  Tot=              0.0961
 Quadrupole moment (field-independent basis, Debye-Ang):
   XX=            -23.4771   YY=            -23.2520   ZZ=            -29.2226
   XY=             -0.1360   XZ=             -0.2868   YZ=              0.0801

 1\1\GINC-NODE27\SP\RB2PLYPD3-FC\def2QZVP\C4H6\BOITTIER\26-Aug-2020\0\\
 #p B2PLYPD3/Def2QZVP\\butadiene\\0,1\C,0,-3.834528,0.208858,0.044241\C
 ,0,-2.726166,-0.492133,-0.003327\C,0,-1.387501,0.083873,0.003382\C,0,-
 0.269901,-0.658161,0.06002\H,0,-4.831799,-0.243679,0.109366\H,0,-3.709
 51,1.283842,-0.033685\H,0,-2.705527,-1.554256,0.064514\H,0,-1.275537,1
 .195558,-0.103753\H,0,-0.379811,-1.734879,0.018566\H,0,0.712327,-0.246
 ,0.021745\\Version=ES64L-G09RevD.01\State=1-A\HF=-155.6965832\MP2=-155
 .9223062\RMSD=6.554e-09\PG=C01 [X(C4H6)]\\@

 Normal termination of Gaussian 09 at Wed Aug 26 10:30:36 2020.
