 Gaussian 09, Revision D.01,
 Gaussian 09:  ES64L-G09RevD.01 24-Apr-2013

 --------------------
 #p B2PLYPD3/Def2QZVP
 --------------------

 ---------
 butadiene
 ---------
 Symbolic Z-matrix:
 Charge =  0 Multiplicity = 1

                         Standard orientation:
 ---------------------------------------------------------------------
 Center     Atomic      Atomic             Coordinates (Angstroms)
 Number     Number       Type             X           Y           Z
 ---------------------------------------------------------------------
      1          6           0       -1.855836   -0.134639   -0.017619
      2          6           0       -0.625367    0.435867    0.010604
      3          6           0        0.626549   -0.384303   -0.023336
      4          6           0        1.862602    0.101519    0.007716
      5          1           0       -2.724229    0.470494    0.133102
      6          1           0       -1.972374   -1.194854   -0.003298
      7          1           0       -0.535377    1.516402   -0.053624
      8          1           0        0.405692   -1.455951    0.002876
      9          1           0        2.072147    1.140409   -0.027907
     10          1           0        2.706451   -0.587158    0.084663
 ---------------------------------------------------------------------

 SCF Done:  E(RB2PLYPD3) =  -155.696546605     A.U. after   11 cycles
 E2(B2PLYPD3) =    -0.2260441567D+00 E(B2PLYPD3) =    -0.15592259076183D+03

 The electronic state is 1-A.
 Alpha  occ. eigenvalues --  -10.63170 -10.62911 -10.61561 -10.61388  -0.92245
 Alpha  occ. eigenvalues --   -0.84910  -0.69989  -0.64152  -0.54373  -0.53801
 Alpha  occ. eigenvalues --   -0.46779  -0.46265  -0.40838  -0.37414  -0.27826
 Alpha virt. eigenvalues --    0.01700   0.06983   0.07459   0.08132   0.09174
 Alpha virt. eigenvalues --    0.11691   0.12411   0.14695   0.15563   0.16206
 Alpha virt. eigenvalues --    0.18926   0.19990   0.21815   0.23335   0.23642

 Mulliken charges:
               1
     1  C   -0.174352
     2  C   -0.042018
     3  C   -0.032143
     4  C   -0.176794
     5  H    0.085037
     6  H    0.065493
     7  H    0.060355
     8  H    0.055309
     9  H    0.073941
    10  H    0.085172
 Sum of Mulliken charges =   0.00000

 Dipole moment (field-independent basis, Debye):
    X=             -0.0087    Y=              0.0257    Z=              0.1155  Tot=              0.1187
 Quadrupole moment (field-independent basis, Debye-Ang):
   XX=            -23.5649   YY=            -23.0199   ZZ=            -29.3414
   XY=              0.3023   XZ=             -0.1661   YZ=             -0.0997

 1\1\GINC-NODE33\SP\RB2PLYPD3-FC\def2QZVP\C4H6\BOITTIER\26-Aug-2020\0\\
 #p B2PLYPD3/Def2QZVP\\butadiene\\0,1\C,0,-3.855524,0.246976,0.028571\C
 ,0,-2.74506,-0.532248,0.026114\C,0,-1.368012,0.054966,0.032729\C,0,-0.
 237127,-0.642057,0.024229\H,0,-4.817557,-0.200826,-0.101719\H,0,-3.783
 313,1.309794,-0.026608\H,0,-2.846807,-1.608467,0.131854\H,0,-1.396511,
 1.146974,-0.035104\H,0,-0.213953,-1.699491,0.100179\H,0,0.714666,-0.11
 6442,-0.076251\\Version=ES64L-G09RevD.01\State=1-A\HF=-155.6965466\MP2
 =-155.9225908\RMSD=6.382e-09\PG=C01 [X(C4H6)]\\@

 Normal termination of Gaussian 09 at Wed Aug 26 09:13:23 2020.
