 Gaussian 09, Revision D.01,
 Gaussian 09:  ES64L-G09RevD.01 24-Apr-2013

 --------------------
 #p B2PLYPD3/Def2QZVP
 --------------------

 ---------
 butadiene
 ---------
 Symbolic Z-matrix:
 Charge =  0 Multiplicity = 1

                         Standard orientation:
 ---------------------------------------------------------------------
 Center     Atomic      Atomic             Coordinates (Angstroms)
 Number     Number       Type             X           Y           Z
 ---------------------------------------------------------------------
      1          6           0        1.857141    0.123606    0.056867
      2          6           0        0.624517   -0.372912   -0.099239
      3          6           0       -0.608864    0.417126   -0.047219
      4          6           0       -1.865590   -0.138605    0.057575
      5          1           0        2.512608   -0.681361    0.178895
      6          1           0        2.120025    1.078095    0.020050
      7          1           0        0.549475   -1.456174    0.004077
      8          1           0       -0.460033    1.524826   -0.114888
      9          1           0       -2.029259   -1.177934   -0.074270
     10          1           0       -2.736041    0.537257    0.178226
 ---------------------------------------------------------------------

 SCF Done:  E(RB2PLYPD3) =  -155.680445286     A.U. after   12 cycles
 E2(B2PLYPD3) =    -0.2268957274D+00 E(B2PLYPD3) =    -0.15590734101315D+03

 The electronic state is 1-A.
 Alpha  occ. eigenvalues --  -10.63659 -10.62530 -10.62246 -10.60181  -0.92529
 Alpha  occ. eigenvalues --   -0.84863  -0.70605  -0.64245  -0.55392  -0.53325
 Alpha  occ. eigenvalues --   -0.47282  -0.45454  -0.41257  -0.37452  -0.27265
 Alpha virt. eigenvalues --    0.01205   0.06946   0.07487   0.08011   0.09128
 Alpha virt. eigenvalues --    0.11698   0.12240   0.15142   0.15502   0.16154
 Alpha virt. eigenvalues --    0.18638   0.19697   0.21688   0.23197   0.24816

 Mulliken charges:
               1
     1  C   -0.175682
     2  C   -0.018460
     3  C   -0.047712
     4  C   -0.185074
     5  H    0.077498
     6  H    0.080737
     7  H    0.048987
     8  H    0.054825
     9  H    0.079976
    10  H    0.084905
 Sum of Mulliken charges =   0.00000

 Dipole moment (field-independent basis, Debye):
    X=              0.0601    Y=              0.0161    Z=              0.0566  Tot=              0.0842
 Quadrupole moment (field-independent basis, Debye-Ang):
   XX=            -24.0247   YY=            -22.7751   ZZ=            -29.3069
   XY=              0.3377   XZ=              0.2584   YZ=             -0.0846

 1\1\GINC-NODE29\SP\RB2PLYPD3-FC\def2QZVP\C4H6\BOITTIER\26-Aug-2020\0\\
 #p B2PLYPD3/Def2QZVP\\butadiene\\0,1\C,0,-3.857743,0.231924,-0.042877\
 C,0,-2.732634,-0.472781,0.123801\C,0,-1.378791,0.085511,0.064512\C,0,-
 0.240322,-0.685437,-0.028789\H,0,-4.645368,-0.445882,-0.15568\H,0,-3.9
 4742,1.218307,-0.020105\H,0,-2.850605,-1.553565,0.035762\H,0,-1.329096
 ,1.202907,0.116348\H,0,-0.263401,-1.735345,0.117965\H,0,0.736139,-0.17
 6202,-0.156204\\Version=ES64L-G09RevD.01\State=1-A\HF=-155.6804453\MP2
 =-155.907341\RMSD=3.631e-09\PG=C01 [X(C4H6)]\\@

 Normal termination of Gaussian 09 at Wed Aug 26 15:38:25 2020.
