 Gaussian 09, Revision D.01,
 Gaussian 09:  ES64L-G09RevD.01 24-Apr-2013

 --------------------
 #p B2PLYPD3/Def2QZVP
 --------------------

 ---------
 butadiene
 ---------
 Symbolic Z-matrix:
 Charge =  0 Multiplicity = 1

                         Standard orientation:
 ---------------------------------------------------------------------
 Center     Atomic      Atomic             Coordinates (Angstroms)
 Number     Number       Type             X           Y           Z
 ---------------------------------------------------------------------
      1          6           0       -1.842320    0.105482    0.008013
      2          6           0       -0.599594   -0.405352   -0.033611
      3          6           0        0.596532    0.420208   -0.018091
      4          6           0        1.828138   -0.117199    0.021161
      5          1           0       -2.710006   -0.535211    0.096956
      6          1           0       -1.999158    1.164512    0.041547
      7          1           0       -0.431101   -1.454057   -0.017798
      8          1           0        0.499107    1.502215   -0.045720
      9          1           0        1.991653   -1.191524    0.005820
     10          1           0        2.752971    0.495230    0.054363
 ---------------------------------------------------------------------

 SCF Done:  E(RB2PLYPD3) =  -155.699407298     A.U. after   11 cycles
 E2(B2PLYPD3) =    -0.2261312278D+00 E(B2PLYPD3) =    -0.15592553852541D+03

 The electronic state is 1-A.
 Alpha  occ. eigenvalues --  -10.62712 -10.62468 -10.61948 -10.61492  -0.92933
 Alpha  occ. eigenvalues --   -0.84551  -0.69988  -0.64516  -0.54401  -0.53850
 Alpha  occ. eigenvalues --   -0.46464  -0.45637  -0.41454  -0.38016  -0.27446
 Alpha virt. eigenvalues --    0.01625   0.06997   0.07429   0.08062   0.09342
 Alpha virt. eigenvalues --    0.11681   0.12492   0.14642   0.15903   0.16156
 Alpha virt. eigenvalues --    0.18761   0.20528   0.21586   0.23091   0.23662

 Mulliken charges:
               1
     1  C   -0.176302
     2  C   -0.034843
     3  C   -0.030774
     4  C   -0.174720
     5  H    0.084467
     6  H    0.068347
     7  H    0.061793
     8  H    0.058708
     9  H    0.063389
    10  H    0.079936
 Sum of Mulliken charges =   0.00000

 Dipole moment (field-independent basis, Debye):
    X=              0.0269    Y=             -0.0089    Z=              0.0880  Tot=              0.0924
 Quadrupole moment (field-independent basis, Debye-Ang):
   XX=            -23.5829   YY=            -23.0329   ZZ=            -29.3359
   XY=             -0.2062   XZ=             -0.2419   YZ=             -0.0299

 1\1\GINC-NODE25\SP\RB2PLYPD3-FC\def2QZVP\C4H6\BOITTIER\26-Aug-2020\0\\
 #p B2PLYPD3/Def2QZVP\\butadiene\\0,1\C,0,-3.842858,0.222588,0.031904\C
 ,0,-2.713563,-0.506181,0.006585\C,0,-1.387549,0.088861,-0.004242\C,0,-
 0.273538,-0.661475,0.05212\H,0,-4.811767,-0.247027,0.141243\H,0,-3.804
 956,1.293023,0.031646\H,0,-2.737847,-1.567033,0.055836\H,0,-1.287408,1
 .169188,-0.066366\H,0,-0.30754,-1.747584,0.07105\H,0,0.747155,-0.22617
 3,0.065766\\Version=ES64L-G09RevD.01\State=1-A\HF=-155.6994073\MP2=-15
 5.9255385\RMSD=3.923e-09\PG=C01 [X(C4H6)]\\@

 Normal termination of Gaussian 09 at Wed Aug 26 19:10:09 2020.
