 Gaussian 09, Revision D.01,
 Gaussian 09:  ES64L-G09RevD.01 24-Apr-2013

 --------------------
 #p B2PLYPD3/Def2QZVP
 --------------------

 ---------
 butadiene
 ---------
 Symbolic Z-matrix:
 Charge =  0 Multiplicity = 1

                         Standard orientation:
 ---------------------------------------------------------------------
 Center     Atomic      Atomic             Coordinates (Angstroms)
 Number     Number       Type             X           Y           Z
 ---------------------------------------------------------------------
      1          6           0        1.832342    0.111588    0.001244
      2          6           0        0.598717   -0.414395   -0.012401
      3          6           0       -0.595587    0.403474   -0.033122
      4          6           0       -1.822801   -0.105351    0.018293
      5          1           0        2.697111   -0.510608    0.065200
      6          1           0        1.990556    1.170973    0.053100
      7          1           0        0.441208   -1.468880   -0.028414
      8          1           0       -0.486708    1.486418    0.001394
      9          1           0       -2.027531   -1.174911    0.027385
     10          1           0       -2.690658    0.525116    0.037251
 ---------------------------------------------------------------------

 SCF Done:  E(RB2PLYPD3) =  -155.700670059     A.U. after   11 cycles
 E2(B2PLYPD3) =    -0.2254831813D+00 E(B2PLYPD3) =    -0.15592615324031D+03

 The electronic state is 1-A.
 Alpha  occ. eigenvalues --  -10.62383 -10.62313 -10.61292 -10.61272  -0.93157
 Alpha  occ. eigenvalues --   -0.84893  -0.70308  -0.64380  -0.54782  -0.54052
 Alpha  occ. eigenvalues --   -0.46639  -0.45719  -0.41362  -0.38207  -0.27573
 Alpha virt. eigenvalues --    0.01790   0.07049   0.07423   0.08136   0.09509
 Alpha virt. eigenvalues --    0.11716   0.12501   0.14824   0.15808   0.16296
 Alpha virt. eigenvalues --    0.18756   0.20320   0.21983   0.22968   0.23809

 Mulliken charges:
               1
     1  C   -0.175043
     2  C   -0.036445
     3  C   -0.025021
     4  C   -0.175902
     5  H    0.083825
     6  H    0.067570
     7  H    0.061040
     8  H    0.055449
     9  H    0.062466
    10  H    0.082063
 Sum of Mulliken charges =   0.00000

 Dipole moment (field-independent basis, Debye):
    X=             -0.0231    Y=             -0.0075    Z=              0.1130  Tot=              0.1156
 Quadrupole moment (field-independent basis, Debye-Ang):
   XX=            -23.5413   YY=            -23.0132   ZZ=            -29.2103
   XY=              0.2329   XZ=              0.1166   YZ=              0.0651

 1\1\GINC-NODE01\SP\RB2PLYPD3-FC\def2QZVP\C4H6\BOITTIER\26-Aug-2020\0\\
 #p B2PLYPD3/Def2QZVP\\butadiene\\0,1\C,0,-3.831389,0.230751,0.011419\C
 ,0,-2.715102,-0.511765,0.046762\C,0,-1.391004,0.073426,0.042842\C,0,-0
 .278096,-0.653292,0.012554\H,0,-4.795808,-0.224123,-0.033634\H,0,-3.79
 2822,1.298767,-0.077306\H,0,-2.753587,-1.576069,0.099495\H,0,-1.299559
 ,1.156135,-0.029219\H,0,-0.273011,-1.741928,0.040854\H,0,0.690591,-0.1
 93707,-0.025533\\Version=ES64L-G09RevD.01\State=1-A\HF=-155.7006701\MP
 2=-155.9261532\RMSD=5.279e-09\PG=C01 [X(C4H6)]\\@

 Normal termination of Gaussian 09 at Wed Aug 26 21:25:59 2020.
