 Gaussian 09, Revision D.01,
 Gaussian 09:  ES64L-G09RevD.01 24-Apr-2013

 --------------------
 #p B2PLYPD3/Def2QZVP
 --------------------

 ---------
 butadiene
 ---------
 Symbolic Z-matrix:
 Charge =  0 Multiplicity = 1

                         Standard orientation:
 ---------------------------------------------------------------------
 Center     Atomic      Atomic             Coordinates (Angstroms)
 Number     Number       Type             X           Y           Z
 ---------------------------------------------------------------------
      1          6           0       -1.806475   -0.103213   -0.079477
      2          6           0       -0.599296    0.404819    0.050370
      3          6           0        0.600754   -0.372482    0.015008
      4          6           0        1.832424    0.102434   -0.039203
      5          1           0       -2.797466    0.436575    0.068982
      6          1           0       -1.854937   -1.249419   -0.069270
      7          1           0       -0.468386    1.529052    0.234205
      8          1           0        0.440949   -1.464710    0.213888
      9          1           0        2.011689    1.180557   -0.196980
     10          1           0        2.503711   -0.621404    0.068990
 ---------------------------------------------------------------------

 SCF Done:  E(RB2PLYPD3) =  -155.677385920     A.U. after   12 cycles
 E2(B2PLYPD3) =    -0.2265163138D+00 E(B2PLYPD3) =    -0.15590390223383D+03

 The electronic state is 1-A.
 Alpha  occ. eigenvalues --  -10.62679 -10.62455 -10.62288 -10.60573  -0.93681
 Alpha  occ. eigenvalues --   -0.85561  -0.70000  -0.62575  -0.55111  -0.53355
 Alpha  occ. eigenvalues --   -0.46881  -0.44839  -0.40580  -0.37886  -0.28141
 Alpha virt. eigenvalues --    0.01786   0.06849   0.07184   0.07927   0.09746
 Alpha virt. eigenvalues --    0.11658   0.12220   0.14436   0.15558   0.16215
 Alpha virt. eigenvalues --    0.18557   0.19731   0.21044   0.22219   0.24580

 Mulliken charges:
               1
     1  C   -0.153562
     2  C   -0.033742
     3  C   -0.009723
     4  C   -0.193061
     5  H    0.083399
     6  H    0.046114
     7  H    0.045417
     8  H    0.040109
     9  H    0.081324
    10  H    0.093725
 Sum of Mulliken charges =   0.00000

 Dipole moment (field-independent basis, Debye):
    X=              0.0138    Y=              0.0154    Z=              0.3182  Tot=              0.3189
 Quadrupole moment (field-independent basis, Debye-Ang):
   XX=            -23.9411   YY=            -23.2861   ZZ=            -29.1194
   XY=             -0.0028   XZ=             -0.3293   YZ=             -0.2089

 1\1\GINC-NODE34\SP\RB2PLYPD3-FC\def2QZVP\C4H6\BOITTIER\26-Aug-2020\0\\
 #p B2PLYPD3/Def2QZVP\\butadiene\\0,1\C,0,-3.81189,0.221973,0.083091\C,
 0,-2.717818,-0.502189,-0.02098\C,0,-1.39609,0.044123,-0.0089\C,0,-0.27
 1574,-0.644906,0.069821\H,0,-4.884955,-0.133428,-0.049939\H,0,-3.65055
 4,1.356561,0.029031\H,0,-2.794424,-1.637661,-0.161222\H,0,-1.354405,1.
 138734,-0.250025\H,0,-0.291626,-1.730783,0.269439\H,0,0.520255,-0.0602
 47,-0.062297\\Version=ES64L-G09RevD.01\State=1-A\HF=-155.6773859\MP2=-
 155.9039022\RMSD=4.951e-09\PG=C01 [X(C4H6)]\\@

 Normal termination of Gaussian 09 at Wed Aug 26 11:31:42 2020.
