 Gaussian 09, Revision D.01,
 Gaussian 09:  ES64L-G09RevD.01 24-Apr-2013

 --------------------
 #p B2PLYPD3/Def2QZVP
 --------------------

 ---------
 butadiene
 ---------
 Symbolic Z-matrix:
 Charge =  0 Multiplicity = 1

                         Standard orientation:
 ---------------------------------------------------------------------
 Center     Atomic      Atomic             Coordinates (Angstroms)
 Number     Number       Type             X           Y           Z
 ---------------------------------------------------------------------
      1          6           0       -1.829488   -0.126236   -0.013637
      2          6           0       -0.608838    0.420726    0.013352
      3          6           0        0.606124   -0.387793    0.023106
      4          6           0        1.838395    0.098400   -0.024318
      5          1           0       -2.697072    0.492654   -0.037515
      6          1           0       -1.980375   -1.181332    0.000469
      7          1           0       -0.495928    1.500603   -0.002315
      8          1           0        0.462750   -1.474603    0.046052
      9          1           0        1.997444    1.178270    0.067128
     10          1           0        2.676027   -0.546169   -0.064835
 ---------------------------------------------------------------------

 SCF Done:  E(RB2PLYPD3) =  -155.700286270     A.U. after   11 cycles
 E2(B2PLYPD3) =    -0.2253851486D+00 E(B2PLYPD3) =    -0.15592567141870D+03

 The electronic state is 1-A.
 Alpha  occ. eigenvalues --  -10.62607 -10.62395 -10.61202 -10.61122  -0.92980
 Alpha  occ. eigenvalues --   -0.85128  -0.70183  -0.63983  -0.54780  -0.54094
 Alpha  occ. eigenvalues --   -0.46793  -0.45691  -0.41256  -0.38037  -0.27732
 Alpha virt. eigenvalues --    0.01901   0.07063   0.07379   0.08118   0.09542
 Alpha virt. eigenvalues --    0.11729   0.12449   0.14761   0.15875   0.16174
 Alpha virt. eigenvalues --    0.18737   0.20459   0.21605   0.23057   0.23998

 Mulliken charges:
               1
     1  C   -0.176052
     2  C   -0.033366
     3  C   -0.025281
     4  C   -0.178941
     5  H    0.084842
     6  H    0.069177
     7  H    0.055997
     8  H    0.050146
     9  H    0.064522
    10  H    0.088956
 Sum of Mulliken charges =   0.00000

 Dipole moment (field-independent basis, Debye):
    X=             -0.0424    Y=             -0.0154    Z=              0.0371  Tot=              0.0584
 Quadrupole moment (field-independent basis, Debye-Ang):
   XX=            -23.5768   YY=            -23.0068   ZZ=            -29.2145
   XY=              0.0845   XZ=              0.0746   YZ=              0.0527

 1\1\GINC-NODE36\SP\RB2PLYPD3-FC\def2QZVP\C4H6\BOITTIER\26-Aug-2020\0\\
 #p B2PLYPD3/Def2QZVP\\butadiene\\0,1\C,0,-3.829629,0.238564,0.033103\C
 ,0,-2.727192,-0.519314,0.021462\C,0,-1.386801,0.057244,-0.007902\C,0,-
 0.261746,-0.641062,0.05329\H,0,-4.79418,-0.213564,0.07205\H,0,-3.78858
 3,1.302891,-0.008353\H,0,-2.810043,-1.601147,0.065079\H,0,-1.332699,1.
 151181,-0.059005\H,0,-0.299596,-1.733914,-0.010124\H,0,0.678188,-0.156
 655,0.078025\\Version=ES64L-G09RevD.01\State=1-A\HF=-155.7002863\MP2=-
 155.9256714\RMSD=5.824e-09\PG=C01 [X(C4H6)]\\@

 Normal termination of Gaussian 09 at Wed Aug 26 21:51:17 2020.
