 Gaussian 09, Revision D.01,
 Gaussian 09:  ES64L-G09RevD.01 24-Apr-2013

 --------------------
 #p B2PLYPD3/Def2QZVP
 --------------------

 ---------
 butadiene
 ---------
 Symbolic Z-matrix:
 Charge =  0 Multiplicity = 1

                         Standard orientation:
 ---------------------------------------------------------------------
 Center     Atomic      Atomic             Coordinates (Angstroms)
 Number     Number       Type             X           Y           Z
 ---------------------------------------------------------------------
      1          6           0       -1.839587   -0.123589   -0.006418
      2          6           0       -0.616114    0.416482   -0.012086
      3          6           0        0.613759   -0.383134    0.003967
      4          6           0        1.851384    0.100850   -0.005895
      5          1           0       -2.711532    0.495613    0.033762
      6          1           0       -2.018368   -1.190533   -0.021705
      7          1           0       -0.512187    1.481681    0.077623
      8          1           0        0.476011   -1.466680    0.041337
      9          1           0        2.008092    1.154896   -0.037416
     10          1           0        2.701331   -0.538630    0.028989
 ---------------------------------------------------------------------

 SCF Done:  E(RB2PLYPD3) =  -155.700908521     A.U. after   11 cycles
 E2(B2PLYPD3) =    -0.2252857673D+00 E(B2PLYPD3) =    -0.15592619428821D+03

 The electronic state is 1-A.
 Alpha  occ. eigenvalues --  -10.62610 -10.62487 -10.61485 -10.60985  -0.92808
 Alpha  occ. eigenvalues --   -0.85148  -0.70257  -0.64154  -0.54741  -0.54158
 Alpha  occ. eigenvalues --   -0.47003  -0.45695  -0.41100  -0.37927  -0.27832
 Alpha virt. eigenvalues --    0.01842   0.07041   0.07492   0.08097   0.09580
 Alpha virt. eigenvalues --    0.11674   0.12468   0.14748   0.15794   0.16228
 Alpha virt. eigenvalues --    0.18853   0.20385   0.21762   0.22933   0.23851

 Mulliken charges:
               1
     1  C   -0.173169
     2  C   -0.038973
     3  C   -0.025899
     4  C   -0.178829
     5  H    0.083706
     6  H    0.067744
     7  H    0.059375
     8  H    0.051237
     9  H    0.065334
    10  H    0.089472
 Sum of Mulliken charges =   0.00000

 Dipole moment (field-independent basis, Debye):
    X=             -0.0437    Y=              0.0039    Z=              0.1034  Tot=              0.1123
 Quadrupole moment (field-independent basis, Debye-Ang):
   XX=            -23.3613   YY=            -23.0923   ZZ=            -29.2170
   XY=              0.1351   XZ=             -0.0810   YZ=              0.0395

 1\1\GINC-NODE03\SP\RB2PLYPD3-FC\def2QZVP\C4H6\BOITTIER\26-Aug-2020\0\\
 #p B2PLYPD3/Def2QZVP\\butadiene\\0,1\C,0,-3.841156,0.234639,0.020912\C
 ,0,-2.733113,-0.513907,0.043583\C,0,-1.380765,0.05374,0.009488\C,0,-0.
 248819,-0.642037,0.034917\H,0,-4.809346,-0.220602,-0.00509\H,0,-3.8274
 63,1.316401,0.007847\H,0,-2.820333,-1.582599,-0.017969\H,0,-1.323865,1
 .143163,-0.056554\H,0,-0.281832,-1.705963,0.094385\H,0,0.701151,-0.164
 903,-0.014701\\Version=ES64L-G09RevD.01\State=1-A\HF=-155.7009085\MP2=
 -155.9261943\RMSD=4.792e-09\PG=C01 [X(C4H6)]\\@

 Normal termination of Gaussian 09 at Wed Aug 26 19:19:56 2020.
