 Gaussian 09, Revision D.01,
 Gaussian 09:  ES64L-G09RevD.01 24-Apr-2013

 --------------------
 #p B2PLYPD3/Def2QZVP
 --------------------

 ---------
 butadiene
 ---------
 Symbolic Z-matrix:
 Charge =  0 Multiplicity = 1

                         Standard orientation:
 ---------------------------------------------------------------------
 Center     Atomic      Atomic             Coordinates (Angstroms)
 Number     Number       Type             X           Y           Z
 ---------------------------------------------------------------------
      1          6           0        1.852603   -0.129680    0.091651
      2          6           0        0.604158    0.448744   -0.124647
      3          6           0       -0.608879   -0.370134   -0.087603
      4          6           0       -1.887154    0.061163    0.049145
      5          1           0        2.811549    0.438055    0.150348
      6          1           0        1.978936   -1.200745   -0.031883
      7          1           0        0.562552    1.513007    0.039617
      8          1           0       -0.290313   -1.413007   -0.014306
      9          1           0       -2.107735    1.104896    0.095353
     10          1           0       -2.719359   -0.502763    0.189591
 ---------------------------------------------------------------------

 SCF Done:  E(RB2PLYPD3) =  -155.681503362     A.U. after   12 cycles
 E2(B2PLYPD3) =    -0.2281020717D+00 E(B2PLYPD3) =    -0.15590960543352D+03

 The electronic state is 1-A.
 Alpha  occ. eigenvalues --  -10.63612 -10.63462 -10.63049 -10.61224  -0.92304
 Alpha  occ. eigenvalues --   -0.84149  -0.71114  -0.64438  -0.55331  -0.53010
 Alpha  occ. eigenvalues --   -0.46783  -0.45398  -0.41293  -0.37502  -0.27201
 Alpha virt. eigenvalues --    0.00519   0.07049   0.07476   0.08207   0.08714
 Alpha virt. eigenvalues --    0.11524   0.12791   0.14512   0.15530   0.16422
 Alpha virt. eigenvalues --    0.19144   0.19369   0.22501   0.22641   0.23995

 Mulliken charges:
               1
     1  C   -0.170345
     2  C   -0.039516
     3  C   -0.030535
     4  C   -0.169347
     5  H    0.080027
     6  H    0.061392
     7  H    0.065848
     8  H    0.052578
     9  H    0.060856
    10  H    0.089041
 Sum of Mulliken charges =   0.00000

 Dipole moment (field-independent basis, Debye):
    X=              0.0773    Y=              0.0277    Z=              0.2542  Tot=              0.2672
 Quadrupole moment (field-independent basis, Debye-Ang):
   XX=            -22.8270   YY=            -23.5995   ZZ=            -29.4253
   XY=             -0.3994   XZ=             -0.3387   YZ=              0.1996

 1\1\GINC-NODE15\SP\RB2PLYPD3-FC\def2QZVP\C4H6\BOITTIER\26-Aug-2020\0\\
 #p B2PLYPD3/Def2QZVP\\butadiene\\0,1\C,0,-3.853018,0.25767,0.111279\C,
 0,-2.732643,-0.547314,-0.080388\C,0,-1.389525,0.035037,-0.063309\C,0,-
 0.212397,-0.619581,0.093373\H,0,-4.900052,-0.121663,0.18319\H,0,-3.780
 082,1.329166,-0.046768\H,0,-2.887566,-1.595225,0.117732\H,0,-1.510535,
 1.120535,-0.024685\H,0,-0.187738,-1.684055,0.173734\H,0,0.709555,-0.21
 4274,0.219995\\Version=ES64L-G09RevD.01\State=1-A\HF=-155.6815034\MP2=
 -155.9096054\RMSD=4.325e-09\PG=C01 [X(C4H6)]\\@

 Normal termination of Gaussian 09 at Wed Aug 26 12:58:46 2020.
