 Gaussian 09, Revision D.01,
 Gaussian 09:  ES64L-G09RevD.01 24-Apr-2013

 --------------------
 #p B2PLYPD3/Def2QZVP
 --------------------

 ---------
 butadiene
 ---------
 Symbolic Z-matrix:
 Charge =  0 Multiplicity = 1

                         Standard orientation:
 ---------------------------------------------------------------------
 Center     Atomic      Atomic             Coordinates (Angstroms)
 Number     Number       Type             X           Y           Z
 ---------------------------------------------------------------------
      1          6           0       -1.823695    0.110394    0.002834
      2          6           0       -0.593969   -0.394145   -0.010738
      3          6           0        0.606442    0.407668   -0.029290
      4          6           0        1.810945   -0.114377    0.016086
      5          1           0       -2.652155   -0.562924    0.048813
      6          1           0       -2.036421    1.170011   -0.052354
      7          1           0       -0.456403   -1.457624    0.071589
      8          1           0        0.488871    1.499555    0.104191
      9          1           0        1.926472   -1.221401   -0.066650
     10          1           0        2.731301    0.515146    0.021060
 ---------------------------------------------------------------------

 SCF Done:  E(RB2PLYPD3) =  -155.697461264     A.U. after   11 cycles
 E2(B2PLYPD3) =    -0.2255595086D+00 E(B2PLYPD3) =    -0.15592302077213D+03

 The electronic state is 1-A.
 Alpha  occ. eigenvalues --  -10.62219 -10.62148 -10.61820 -10.61166  -0.93438
 Alpha  occ. eigenvalues --   -0.85145  -0.69724  -0.63803  -0.54377  -0.54023
 Alpha  occ. eigenvalues --   -0.46528  -0.45263  -0.40968  -0.38383  -0.27894
 Alpha virt. eigenvalues --    0.02064   0.07064   0.07279   0.07973   0.09562
 Alpha virt. eigenvalues --    0.11770   0.12335   0.14755   0.15521   0.16147
 Alpha virt. eigenvalues --    0.18628   0.19938   0.21615   0.23009   0.24189

 Mulliken charges:
               1
     1  C   -0.179490
     2  C   -0.031810
     3  C   -0.024719
     4  C   -0.170791
     5  H    0.083299
     6  H    0.070295
     7  H    0.055278
     8  H    0.054915
     9  H    0.059877
    10  H    0.083147
 Sum of Mulliken charges =   0.00000

 Dipole moment (field-independent basis, Debye):
    X=              0.0012    Y=              0.0079    Z=              0.0774  Tot=              0.0778
 Quadrupole moment (field-independent basis, Debye-Ang):
   XX=            -23.7450   YY=            -23.0595   ZZ=            -29.1833
   XY=             -0.0765   XZ=             -0.0680   YZ=              0.0460

 1\1\GINC-NODE14\SP\RB2PLYPD3-FC\def2QZVP\C4H6\BOITTIER\26-Aug-2020\0\\
 #p B2PLYPD3/Def2QZVP\\butadiene\\0,1\C,0,-3.825968,0.22254,0.025833\C,
 0,-2.707819,-0.496286,0.025971\C,0,-1.382261,0.074485,-0.010804\C,0,-0
 .291889,-0.655563,0.048663\H,0,-4.762381,-0.288507,0.087307\H,0,-3.843
 735,1.301504,-0.055454\H,0,-2.764581,-1.564795,0.134398\H,0,-1.299981,
 1.172535,0.095842\H,0,-0.378748,-1.766897,-0.006885\H,0,0.727152,-0.20
 2964,0.0393\\Version=ES64L-G09RevD.01\State=1-A\HF=-155.6974613\MP2=-1
 55.9230208\RMSD=6.460e-09\PG=C01 [X(C4H6)]\\@

 Normal termination of Gaussian 09 at Wed Aug 26 08:46:51 2020.
