 Gaussian 09, Revision D.01,
 Gaussian 09:  ES64L-G09RevD.01 24-Apr-2013

 --------------------
 #p B2PLYPD3/Def2QZVP
 --------------------

 ---------
 butadiene
 ---------
 Symbolic Z-matrix:
 Charge =  0 Multiplicity = 1

                         Standard orientation:
 ---------------------------------------------------------------------
 Center     Atomic      Atomic             Coordinates (Angstroms)
 Number     Number       Type             X           Y           Z
 ---------------------------------------------------------------------
      1          6           0        1.848914   -0.120812   -0.018745
      2          6           0        0.608931    0.412012    0.017992
      3          6           0       -0.617281   -0.394567    0.006563
      4          6           0       -1.846561    0.105189   -0.025330
      5          1           0        2.722531    0.519310   -0.013892
      6          1           0        2.035235   -1.169412   -0.025259
      7          1           0        0.463994    1.479933    0.090655
      8          1           0       -0.471558   -1.468881    0.065386
      9          1           0       -2.005065    1.175275   -0.050428
     10          1           0       -2.709155   -0.547158    0.050657
 ---------------------------------------------------------------------

 SCF Done:  E(RB2PLYPD3) =  -155.700377156     A.U. after   11 cycles
 E2(B2PLYPD3) =    -0.2257256599D+00 E(B2PLYPD3) =    -0.15592610281549D+03

 The electronic state is 1-A.
 Alpha  occ. eigenvalues --  -10.62861 -10.62436 -10.61645 -10.61400  -0.92715
 Alpha  occ. eigenvalues --   -0.84866  -0.70167  -0.64173  -0.54481  -0.53901
 Alpha  occ. eigenvalues --   -0.46864  -0.45909  -0.41022  -0.37816  -0.27727
 Alpha virt. eigenvalues --    0.01709   0.07002   0.07448   0.08077   0.09505
 Alpha virt. eigenvalues --    0.11691   0.12403   0.14749   0.15854   0.16052
 Alpha virt. eigenvalues --    0.18852   0.20469   0.21593   0.22899   0.23751

 Mulliken charges:
               1
     1  C   -0.176772
     2  C   -0.039938
     3  C   -0.025850
     4  C   -0.176687
     5  H    0.083612
     6  H    0.070898
     7  H    0.058261
     8  H    0.054273
     9  H    0.065313
    10  H    0.086889
 Sum of Mulliken charges =   0.00000

 Dipole moment (field-independent basis, Debye):
    X=              0.0200    Y=             -0.0134    Z=              0.1218  Tot=              0.1242
 Quadrupole moment (field-independent basis, Debye-Ang):
   XX=            -23.4917   YY=            -23.0630   ZZ=            -29.2958
   XY=             -0.2430   XZ=             -0.1496   YZ=             -0.0442

 1\1\GINC-NODE14\SP\RB2PLYPD3-FC\def2QZVP\C4H6\BOITTIER\26-Aug-2020\0\\
 #p B2PLYPD3/Def2QZVP\\butadiene\\0,1\C,0,-3.850156,0.234635,0.000188\C
 ,0,-2.7256,-0.51046,0.055128\C,0,-1.374764,0.062797,0.024875\C,0,-0.25
 4964,-0.649759,0.010268\H,0,-4.824297,-0.238263,0.020262\H,0,-3.845636
 ,1.299061,-0.035821\H,0,-2.774151,-1.584642,0.157678\H,0,-1.325555,1.1
 47049,0.053582\H,0,-0.290768,-1.731208,0.015193\H,0,0.710698,-0.160626
 ,0.070634\\Version=ES64L-G09RevD.01\State=1-A\HF=-155.7003772\MP2=-155
 .9261028\RMSD=6.089e-09\PG=C01 [X(C4H6)]\\@

 Normal termination of Gaussian 09 at Wed Aug 26 19:25:30 2020.
