 Gaussian 09, Revision D.01,
 Gaussian 09:  ES64L-G09RevD.01 24-Apr-2013

 --------------------
 #p B2PLYPD3/Def2QZVP
 --------------------

 ---------
 butadiene
 ---------
 Symbolic Z-matrix:
 Charge =  0 Multiplicity = 1

                         Standard orientation:
 ---------------------------------------------------------------------
 Center     Atomic      Atomic             Coordinates (Angstroms)
 Number     Number       Type             X           Y           Z
 ---------------------------------------------------------------------
      1          6           0        1.841698    0.104656   -0.028406
      2          6           0        0.613376   -0.357930    0.022143
      3          6           0       -0.598689    0.416682    0.101776
      4          6           0       -1.841633   -0.145680   -0.066860
      5          1           0        2.590650   -0.574704   -0.062012
      6          1           0        2.083615    1.075416   -0.122048
      7          1           0        0.611650   -1.460278    0.106807
      8          1           0       -0.565096    1.551278   -0.011809
      9          1           0       -2.034836   -1.177677   -0.037494
     10          1           0       -2.774490    0.479596   -0.045361
 ---------------------------------------------------------------------

 SCF Done:  E(RB2PLYPD3) =  -155.679882888     A.U. after   12 cycles
 E2(B2PLYPD3) =    -0.2263497659D+00 E(B2PLYPD3) =    -0.15590623265340D+03

 The electronic state is 1-A.
 Alpha  occ. eigenvalues --  -10.63803 -10.62349 -10.62231 -10.59327  -0.93037
 Alpha  occ. eigenvalues --   -0.85189  -0.70908  -0.63989  -0.55588  -0.53978
 Alpha  occ. eigenvalues --   -0.46322  -0.45290  -0.41284  -0.38152  -0.27517
 Alpha virt. eigenvalues --    0.01212   0.06984   0.07423   0.07897   0.09543
 Alpha virt. eigenvalues --    0.11551   0.12533   0.14919   0.15456   0.16832
 Alpha virt. eigenvalues --    0.18744   0.19395   0.21663   0.23319   0.24277

 Mulliken charges:
               1
     1  C   -0.174091
     2  C   -0.009456
     3  C   -0.052053
     4  C   -0.163431
     5  H    0.079513
     6  H    0.066288
     7  H    0.046952
     8  H    0.060079
     9  H    0.073745
    10  H    0.072453
 Sum of Mulliken charges =   0.00000

 Dipole moment (field-independent basis, Debye):
    X=             -0.0012    Y=             -0.0412    Z=             -0.0831  Tot=              0.0928
 Quadrupole moment (field-independent basis, Debye-Ang):
   XX=            -23.2864   YY=            -23.0857   ZZ=            -29.1930
   XY=              0.1033   XZ=             -0.0953   YZ=             -0.2622

 1\1\GINC-NODE20\SP\RB2PLYPD3-FC\def2QZVP\C4H6\BOITTIER\26-Aug-2020\0\\
 #p B2PLYPD3/Def2QZVP\\butadiene\\0,1\C,0,-3.846445,0.206682,0.053468\C
 ,0,-2.717186,-0.462846,0.010779\C,0,-1.389225,0.088267,-0.080104\C,0,-
 0.262424,-0.678694,0.097915\H,0,-4.701888,-0.331742,0.097127\H,0,-3.91
 597,1.206017,0.131969\H,0,-2.90703,-1.549919,-0.056853\H,0,-1.225106,1
 .213069,0.015929\H,0,-0.251369,-1.728888,0.084599\H,0,0.764768,-0.2252
 68,0.067303\\Version=ES64L-G09RevD.01\State=1-A\HF=-155.6798829\MP2=-1
 55.9062327\RMSD=4.276e-09\PG=C01 [X(C4H6)]\\@

 Normal termination of Gaussian 09 at Wed Aug 26 15:25:07 2020.
