 Gaussian 09, Revision D.01,
 Gaussian 09:  ES64L-G09RevD.01 24-Apr-2013

 --------------------
 #p B2PLYPD3/Def2QZVP
 --------------------

 ---------
 butadiene
 ---------
 Symbolic Z-matrix:
 Charge =  0 Multiplicity = 1

                         Standard orientation:
 ---------------------------------------------------------------------
 Center     Atomic      Atomic             Coordinates (Angstroms)
 Number     Number       Type             X           Y           Z
 ---------------------------------------------------------------------
      1          6           0       -1.833758    0.111414   -0.000971
      2          6           0       -0.602451   -0.406177   -0.019277
      3          6           0        0.605043    0.388441   -0.014737
      4          6           0        1.838237   -0.110368    0.011195
      5          1           0       -2.741556   -0.483488    0.052243
      6          1           0       -1.986522    1.201379    0.061590
      7          1           0       -0.528550   -1.482957   -0.025985
      8          1           0        0.489641    1.472934    0.000266
      9          1           0        2.043322   -1.176133    0.070666
     10          1           0        2.681243    0.568407   -0.016043
 ---------------------------------------------------------------------

 SCF Done:  E(RB2PLYPD3) =  -155.700243117     A.U. after   11 cycles
 E2(B2PLYPD3) =    -0.2257495890D+00 E(B2PLYPD3) =    -0.15592599270607D+03

 The electronic state is 1-A.
 Alpha  occ. eigenvalues --  -10.62499 -10.62421 -10.61736 -10.61476  -0.93097
 Alpha  occ. eigenvalues --   -0.84959  -0.70011  -0.63993  -0.54509  -0.54114
 Alpha  occ. eigenvalues --   -0.46533  -0.45219  -0.41223  -0.38246  -0.27685
 Alpha virt. eigenvalues --    0.01724   0.06996   0.07419   0.07974   0.09689
 Alpha virt. eigenvalues --    0.11643   0.12393   0.14676   0.15881   0.16269
 Alpha virt. eigenvalues --    0.18805   0.20432   0.21604   0.22590   0.23808

 Mulliken charges:
               1
     1  C   -0.169212
     2  C   -0.032112
     3  C   -0.029226
     4  C   -0.176129
     5  H    0.083719
     6  H    0.057850
     7  H    0.056617
     8  H    0.054812
     9  H    0.069566
    10  H    0.084116
 Sum of Mulliken charges =   0.00000

 Dipole moment (field-independent basis, Debye):
    X=             -0.0103    Y=             -0.0170    Z=              0.1108  Tot=              0.1126
 Quadrupole moment (field-independent basis, Debye-Ang):
   XX=            -23.4855   YY=            -23.0931   ZZ=            -29.2675
   XY=             -0.0349   XZ=             -0.1749   YZ=             -0.0252

 1\1\GINC-NODE06\SP\RB2PLYPD3-FC\def2QZVP\C4H6\BOITTIER\26-Aug-2020\0\\
 #p B2PLYPD3/Def2QZVP\\butadiene\\0,1\C,0,-3.836931,0.22415,0.0223\C,0,
 -2.718037,-0.505523,0.019577\C,0,-1.387975,0.060241,0.001537\C,0,-0.26
 3657,-0.650028,0.042489\H,0,-4.83616,-0.197117,0.092393\H,0,-3.792161,
 1.325205,0.053086\H,0,-2.837777,-1.577911,0.044203\H,0,-1.30765,1.1478
 72,-0.015039\H,0,-0.252041,-1.733136,0.133002\H,0,0.686936,-0.133948,-
 0.004105\\Version=ES64L-G09RevD.01\State=1-A\HF=-155.7002431\MP2=-155.
 9259927\RMSD=2.613e-09\PG=C01 [X(C4H6)]\\@

 Normal termination of Gaussian 09 at Wed Aug 26 21:06:38 2020.
