 Gaussian 09, Revision D.01,
 Gaussian 09:  ES64L-G09RevD.01 24-Apr-2013

 --------------------
 #p B2PLYPD3/Def2QZVP
 --------------------

 ---------
 butadiene
 ---------
 Symbolic Z-matrix:
 Charge =  0 Multiplicity = 1

                         Standard orientation:
 ---------------------------------------------------------------------
 Center     Atomic      Atomic             Coordinates (Angstroms)
 Number     Number       Type             X           Y           Z
 ---------------------------------------------------------------------
      1          6           0       -1.831518    0.112617   -0.020596
      2          6           0       -0.600258   -0.405580    0.007617
      3          6           0        0.598464    0.405183    0.020223
      4          6           0        1.826187   -0.109393   -0.013076
      5          1           0       -2.685154   -0.554472    0.001526
      6          1           0       -2.041687    1.178493   -0.052547
      7          1           0       -0.461041   -1.469793    0.116568
      8          1           0        0.482994    1.496020    0.071461
      9          1           0        2.003501   -1.172673   -0.091450
     10          1           0        2.744130    0.505467   -0.010562
 ---------------------------------------------------------------------

 SCF Done:  E(RB2PLYPD3) =  -155.700009954     A.U. after   11 cycles
 E2(B2PLYPD3) =    -0.2258087076D+00 E(B2PLYPD3) =    -0.15592581866170D+03

 The electronic state is 1-A.
 Alpha  occ. eigenvalues --  -10.62537 -10.62445 -10.61612 -10.61574  -0.93097
 Alpha  occ. eigenvalues --   -0.84800  -0.69993  -0.64087  -0.54469  -0.53917
 Alpha  occ. eigenvalues --   -0.46583  -0.45418  -0.41097  -0.38149  -0.27656
 Alpha virt. eigenvalues --    0.01796   0.07026   0.07374   0.07982   0.09527
 Alpha virt. eigenvalues --    0.11657   0.12398   0.14760   0.15741   0.16209
 Alpha virt. eigenvalues --    0.18764   0.20387   0.21713   0.22755   0.23686

 Mulliken charges:
               1
     1  C   -0.176973
     2  C   -0.034998
     3  C   -0.028245
     4  C   -0.172684
     5  H    0.081911
     6  H    0.070547
     7  H    0.061334
     8  H    0.055789
     9  H    0.062751
    10  H    0.080566
 Sum of Mulliken charges =   0.00000

 Dipole moment (field-independent basis, Debye):
    X=             -0.0007    Y=             -0.0081    Z=              0.0457  Tot=              0.0464
 Quadrupole moment (field-independent basis, Debye-Ang):
   XX=            -23.5435   YY=            -23.0671   ZZ=            -29.2645
   XY=             -0.2710   XZ=             -0.1465   YZ=             -0.0273

 1\1\GINC-NODE10\SP\RB2PLYPD3-FC\def2QZVP\C4H6\BOITTIER\26-Aug-2020\0\\
 #p B2PLYPD3/Def2QZVP\\butadiene\\0,1\C,0,-3.831853,0.227891,0.000686\C
 ,0,-2.71524,-0.504547,0.045813\C,0,-1.389014,0.074605,0.034086\C,0,-0.
 275526,-0.655514,0.017617\H,0,-4.792451,-0.27177,0.042905\H,0,-3.84483
 2,1.312728,-0.064465\H,0,-2.771344,-1.572482,0.187827\H,0,-1.303922,1.
 169295,0.051376\H,0,-0.29493,-1.735202,-0.027608\H,0,0.738929,-0.21813
 ,0.001687\\Version=ES64L-G09RevD.01\State=1-A\HF=-155.70001\MP2=-155.9
 258187\RMSD=4.828e-09\PG=C01 [X(C4H6)]\\@

 Normal termination of Gaussian 09 at Wed Aug 26 20:52:27 2020.
