 Gaussian 09, Revision D.01,
 Gaussian 09:  ES64L-G09RevD.01 24-Apr-2013

 --------------------
 #p B2PLYPD3/Def2QZVP
 --------------------

 ---------
 butadiene
 ---------
 Symbolic Z-matrix:
 Charge =  0 Multiplicity = 1

                         Standard orientation:
 ---------------------------------------------------------------------
 Center     Atomic      Atomic             Coordinates (Angstroms)
 Number     Number       Type             X           Y           Z
 ---------------------------------------------------------------------
      1          6           0       -1.850371    0.106668   -0.020636
      2          6           0       -0.628581   -0.371640    0.022136
      3          6           0        0.615318    0.413124    0.012815
      4          6           0        1.837879   -0.140077   -0.003077
      5          1           0       -2.658327   -0.583008   -0.010349
      6          1           0       -2.012248    1.132699   -0.078786
      7          1           0       -0.451794   -1.434941    0.058594
      8          1           0        0.600253    1.544022    0.121940
      9          1           0        1.981821   -1.209294   -0.050818
     10          1           0        2.694822    0.502080   -0.108007
 ---------------------------------------------------------------------

 SCF Done:  E(RB2PLYPD3) =  -155.695646967     A.U. after   11 cycles
 E2(B2PLYPD3) =    -0.2253443647D+00 E(B2PLYPD3) =    -0.15592099133127D+03

 The electronic state is 1-A.
 Alpha  occ. eigenvalues --  -10.63136 -10.62222 -10.61476 -10.60512  -0.92865
 Alpha  occ. eigenvalues --   -0.85451  -0.70120  -0.63660  -0.54807  -0.54251
 Alpha  occ. eigenvalues --   -0.46567  -0.45928  -0.40962  -0.37897  -0.27985
 Alpha virt. eigenvalues --    0.01958   0.07037   0.07401   0.08000   0.09639
 Alpha virt. eigenvalues --    0.11734   0.12348   0.14748   0.15629   0.16200
 Alpha virt. eigenvalues --    0.18780   0.19978   0.21871   0.22865   0.24111

 Mulliken charges:
               1
     1  C   -0.179302
     2  C   -0.025950
     3  C   -0.032823
     4  C   -0.177954
     5  H    0.089391
     6  H    0.075249
     7  H    0.052642
     8  H    0.048632
     9  H    0.065118
    10  H    0.084997
 Sum of Mulliken charges =   0.00000

 Dipole moment (field-independent basis, Debye):
    X=              0.0089    Y=             -0.0182    Z=             -0.0500  Tot=              0.0539
 Quadrupole moment (field-independent basis, Debye-Ang):
   XX=            -23.6469   YY=            -22.9999   ZZ=            -29.1809
   XY=             -0.0003   XZ=             -0.1832   YZ=             -0.0070

 1\1\GINC-NODE12\SP\RB2PLYPD3-FC\def2QZVP\C4H6\BOITTIER\26-Aug-2020\0\\
 #p B2PLYPD3/Def2QZVP\\butadiene\\0,1\C,0,-3.853496,0.208979,0.00011\C,
 0,-2.732762,-0.472437,0.05494\C,0,-1.371865,0.084703,0.026974\C,0,-0.2
 63559,-0.671996,0.024979\H,0,-4.768571,-0.329976,0.026883\H,0,-3.83558
 8,1.245845,-0.083039\H,0,-2.742519,-1.549101,0.117315\H,0,-1.190567,1.
 203427,0.108552\H,0,-0.307014,-1.750822,0.003313\H,0,0.691174,-0.19058
 1,-0.095236\\Version=ES64L-G09RevD.01\State=1-A\HF=-155.695647\MP2=-15
 5.9209913\RMSD=5.750e-09\PG=C01 [X(C4H6)]\\@

 Normal termination of Gaussian 09 at Wed Aug 26 09:09:12 2020.
