 Gaussian 09, Revision D.01,
 Gaussian 09:  ES64L-G09RevD.01 24-Apr-2013

 --------------------
 #p B2PLYPD3/Def2QZVP
 --------------------

 ---------
 butadiene
 ---------
 Symbolic Z-matrix:
 Charge =  0 Multiplicity = 1

                         Standard orientation:
 ---------------------------------------------------------------------
 Center     Atomic      Atomic             Coordinates (Angstroms)
 Number     Number       Type             X           Y           Z
 ---------------------------------------------------------------------
      1          6           0       -1.846749    0.111828    0.012844
      2          6           0       -0.611366   -0.411773   -0.008956
      3          6           0        0.613819    0.399301   -0.026262
      4          6           0        1.849356   -0.113903    0.022705
      5          1           0       -2.724479   -0.508654    0.052315
      6          1           0       -1.988602    1.206229   -0.014731
      7          1           0       -0.494219   -1.491638   -0.039084
      8          1           0        0.453515    1.486191   -0.014346
      9          1           0        2.042005   -1.165877   -0.027401
     10          1           0        2.681410    0.561027    0.041257
 ---------------------------------------------------------------------

 SCF Done:  E(RB2PLYPD3) =  -155.699970461     A.U. after   11 cycles
 E2(B2PLYPD3) =    -0.2259769293D+00 E(B2PLYPD3) =    -0.15592594739078D+03

 The electronic state is 1-A.
 Alpha  occ. eigenvalues --  -10.62872 -10.62717 -10.61775 -10.61369  -0.92611
 Alpha  occ. eigenvalues --   -0.84839  -0.70029  -0.63878  -0.54436  -0.53892
 Alpha  occ. eigenvalues --   -0.46626  -0.45764  -0.41100  -0.37826  -0.27686
 Alpha virt. eigenvalues --    0.01726   0.07008   0.07361   0.08079   0.09431
 Alpha virt. eigenvalues --    0.11674   0.12352   0.14694   0.15817   0.16120
 Alpha virt. eigenvalues --    0.18794   0.20404   0.21532   0.22996   0.23821

 Mulliken charges:
               1
     1  C   -0.175911
     2  C   -0.032131
     3  C   -0.031964
     4  C   -0.177802
     5  H    0.088405
     6  H    0.062646
     7  H    0.054910
     8  H    0.053527
     9  H    0.072630
    10  H    0.085691
 Sum of Mulliken charges =   0.00000

 Dipole moment (field-independent basis, Debye):
    X=             -0.0016    Y=             -0.0252    Z=             -0.0302  Tot=              0.0394
 Quadrupole moment (field-independent basis, Debye-Ang):
   XX=            -23.5654   YY=            -23.0046   ZZ=            -29.3560
   XY=             -0.1568   XZ=             -0.0453   YZ=              0.0503

 1\1\GINC-NODE36\SP\RB2PLYPD3-FC\def2QZVP\C4H6\BOITTIER\26-Aug-2020\0\\
 #p B2PLYPD3/Def2QZVP\\butadiene\\0,1\C,0,-3.849232,0.227581,0.032262\C
 ,0,-2.727666,-0.509197,0.025088\C,0,-1.377096,0.068642,-0.010708\C,0,-
 0.253294,-0.656195,0.052606\H,0,-4.823764,-0.224493,0.085949\H,0,-3.79
 2885,1.328675,-0.022634\H,0,-2.805898,-1.592991,0.021906\H,0,-1.340122
 ,1.166626,-0.025963\H,0,-0.252313,-1.726573,0.02886\H,0,0.686233,-0.14
 096,0.055513\\Version=ES64L-G09RevD.01\State=1-A\HF=-155.6999705\MP2=-
 155.9259474\RMSD=4.072e-09\PG=C01 [X(C4H6)]\\@

 Normal termination of Gaussian 09 at Wed Aug 26 16:23:23 2020.
