 Gaussian 09, Revision D.01,
 Gaussian 09:  ES64L-G09RevD.01 24-Apr-2013

 --------------------
 #p B2PLYPD3/Def2QZVP
 --------------------

 ---------
 butadiene
 ---------
 Symbolic Z-matrix:
 Charge =  0 Multiplicity = 1

                         Standard orientation:
 ---------------------------------------------------------------------
 Center     Atomic      Atomic             Coordinates (Angstroms)
 Number     Number       Type             X           Y           Z
 ---------------------------------------------------------------------
      1          6           0       -1.886534    0.088347   -0.028159
      2          6           0       -0.616492   -0.342776    0.089365
      3          6           0        0.611874    0.400125    0.021403
      4          6           0        1.835410   -0.130724   -0.060020
      5          1           0       -2.701521   -0.558221   -0.152724
      6          1           0       -2.022735    1.099517   -0.193189
      7          1           0       -0.442409   -1.397606    0.096986
      8          1           0        0.655753    1.556334    0.234489
      9          1           0        1.992236   -1.200404   -0.029635
     10          1           0        2.853131    0.410543   -0.091464
 ---------------------------------------------------------------------

 SCF Done:  E(RB2PLYPD3) =  -155.680833340     A.U. after   11 cycles
 E2(B2PLYPD3) =    -0.2269237310D+00 E(B2PLYPD3) =    -0.15590775707122D+03

 The electronic state is 1-A.
 Alpha  occ. eigenvalues --  -10.63661 -10.62717 -10.62579 -10.61008  -0.93059
 Alpha  occ. eigenvalues --   -0.85085  -0.70881  -0.63474  -0.55262  -0.53557
 Alpha  occ. eigenvalues --   -0.47313  -0.44930  -0.40592  -0.37690  -0.27738
 Alpha virt. eigenvalues --    0.01062   0.06923   0.07395   0.07745   0.09630
 Alpha virt. eigenvalues --    0.11405   0.12735   0.14322   0.15509   0.16664
 Alpha virt. eigenvalues --    0.19010   0.19875   0.21920   0.22254   0.23412

 Mulliken charges:
               1
     1  C   -0.170415
     2  C   -0.034275
     3  C   -0.027863
     4  C   -0.165134
     5  H    0.090875
     6  H    0.070580
     7  H    0.052739
     8  H    0.049937
     9  H    0.055112
    10  H    0.078445
 Sum of Mulliken charges =   0.00000

 Dipole moment (field-independent basis, Debye):
    X=              0.1073    Y=             -0.1132    Z=             -0.0715  Tot=              0.1716
 Quadrupole moment (field-independent basis, Debye-Ang):
   XX=            -22.8414   YY=            -23.7245   ZZ=            -29.2080
   XY=              0.0476   XZ=              0.7221   YZ=              0.0739

 1\1\GINC-NODE37\SP\RB2PLYPD3-FC\def2QZVP\C4H6\BOITTIER\26-Aug-2020\0\\
 #p B2PLYPD3/Def2QZVP\\butadiene\\0,1\C,0,-3.889299,0.193939,-0.019752\
 C,0,-2.71295,-0.447709,0.111305\C,0,-1.374802,0.072271,0.045094\C,0,-0
 .260305,-0.661792,-0.022147\H,0,-4.8026,-0.304282,-0.143962\H,0,-3.848
 725,1.211612,-0.195666\H,0,-2.722838,-1.516616,0.130527\H,0,-1.133997,
 1.205994,0.24717\H,0,-0.289872,-1.742113,0.019857\H,0,0.835472,-0.3038
 39,-0.051415\\Version=ES64L-G09RevD.01\State=1-A\HF=-155.6808333\MP2=-
 155.9077571\RMSD=8.246e-09\PG=C01 [X(C4H6)]\\@

 Normal termination of Gaussian 09 at Wed Aug 26 13:30:57 2020.
