 Gaussian 09, Revision D.01,
 Gaussian 09:  ES64L-G09RevD.01 24-Apr-2013

 --------------------
 #p B2PLYPD3/Def2QZVP
 --------------------

 ---------
 butadiene
 ---------
 Symbolic Z-matrix:
 Charge =  0 Multiplicity = 1

                         Standard orientation:
 ---------------------------------------------------------------------
 Center     Atomic      Atomic             Coordinates (Angstroms)
 Number     Number       Type             X           Y           Z
 ---------------------------------------------------------------------
      1          6           0       -1.834845   -0.114064   -0.004037
      2          6           0       -0.597647    0.415909   -0.001400
      3          6           0        0.601200   -0.391360   -0.018350
      4          6           0        1.832725    0.100515    0.007585
      5          1           0       -2.749722    0.491533    0.074704
      6          1           0       -1.997586   -1.200790    0.009460
      7          1           0       -0.461904    1.515038   -0.027365
      8          1           0        0.490459   -1.483217   -0.013707
      9          1           0        2.050422    1.155451   -0.012784
     10          1           0        2.659731   -0.544014    0.066897
 ---------------------------------------------------------------------

 SCF Done:  E(RB2PLYPD3) =  -155.698897295     A.U. after   11 cycles
 E2(B2PLYPD3) =    -0.2259490782D+00 E(B2PLYPD3) =    -0.15592484637328D+03

 The electronic state is 1-A.
 Alpha  occ. eigenvalues --  -10.62973 -10.62426 -10.62070 -10.60906  -0.93032
 Alpha  occ. eigenvalues --   -0.84841  -0.70219  -0.63778  -0.54739  -0.53832
 Alpha  occ. eigenvalues --   -0.46572  -0.45312  -0.41191  -0.38197  -0.27597
 Alpha virt. eigenvalues --    0.01674   0.07027   0.07312   0.08013   0.09588
 Alpha virt. eigenvalues --    0.11621   0.12451   0.14725   0.15871   0.16201
 Alpha virt. eigenvalues --    0.18754   0.20496   0.21800   0.22667   0.23752

 Mulliken charges:
               1
     1  C   -0.170256
     2  C   -0.035893
     3  C   -0.021721
     4  C   -0.176950
     5  H    0.083152
     6  H    0.063611
     7  H    0.055963
     8  H    0.052171
     9  H    0.064826
    10  H    0.085096
 Sum of Mulliken charges =   0.00000

 Dipole moment (field-independent basis, Debye):
    X=              0.0239    Y=             -0.0069    Z=              0.0752  Tot=              0.0793
 Quadrupole moment (field-independent basis, Debye-Ang):
   XX=            -23.4425   YY=            -23.0914   ZZ=            -29.2918
   XY=              0.2168   XZ=             -0.0614   YZ=             -0.0554

 1\1\GINC-NODE27\SP\RB2PLYPD3-FC\def2QZVP\C4H6\BOITTIER\26-Aug-2020\0\\
 #p B2PLYPD3/Def2QZVP\\butadiene\\0,1\C,0,-3.835305,0.232617,0.018417\C
 ,0,-2.71546,-0.513807,0.036779\C,0,-1.389492,0.061485,0.029601\C,0,-0.
 268365,-0.647248,0.023381\H,0,-4.845525,-0.198341,-0.042225\H,0,-3.797
 272,1.329724,-0.032071\H,0,-2.782254,-1.617762,0.100077\H,0,-1.299363,
 1.154452,-0.012078\H,0,-0.246543,-1.722905,0.079808\H,0,0.662053,-0.16
 6647,-0.055485\\Version=ES64L-G09RevD.01\State=1-A\HF=-155.6988973\MP2
 =-155.9248464\RMSD=5.563e-09\PG=C01 [X(C4H6)]\\@

 Normal termination of Gaussian 09 at Wed Aug 26 22:01:15 2020.
