 Gaussian 09, Revision D.01,
 Gaussian 09:  ES64L-G09RevD.01 24-Apr-2013

 --------------------
 #p B2PLYPD3/Def2QZVP
 --------------------

 ---------
 butadiene
 ---------
 Symbolic Z-matrix:
 Charge =  0 Multiplicity = 1

                         Standard orientation:
 ---------------------------------------------------------------------
 Center     Atomic      Atomic             Coordinates (Angstroms)
 Number     Number       Type             X           Y           Z
 ---------------------------------------------------------------------
      1          6           0        1.817505    0.096180   -0.044615
      2          6           0        0.600963   -0.359617    0.061939
      3          6           0       -0.595641    0.457957    0.094510
      4          6           0       -1.834756   -0.144485   -0.080592
      5          1           0        2.673342   -0.607550   -0.121057
      6          1           0        1.995809    1.114062   -0.032298
      7          1           0        0.609701   -1.479097    0.010045
      8          1           0       -0.497982    1.584424   -0.047516
      9          1           0       -1.842144   -1.199481    0.079733
     10          1           0       -2.867150    0.287433   -0.076356
 ---------------------------------------------------------------------

 SCF Done:  E(RB2PLYPD3) =  -155.678459672     A.U. after   12 cycles
 E2(B2PLYPD3) =    -0.2276397701D+00 E(B2PLYPD3) =    -0.15590609944249D+03

 The electronic state is 1-A.
 Alpha  occ. eigenvalues --  -10.64411 -10.62672 -10.62343 -10.60553  -0.93123
 Alpha  occ. eigenvalues --   -0.84696  -0.69763  -0.63743  -0.54510  -0.53761
 Alpha  occ. eigenvalues --   -0.45832  -0.44460  -0.41251  -0.38263  -0.27525
 Alpha virt. eigenvalues --    0.01222   0.06975   0.07268   0.07803   0.09153
 Alpha virt. eigenvalues --    0.11561   0.12773   0.14294   0.15521   0.16627
 Alpha virt. eigenvalues --    0.18751   0.19211   0.21958   0.22391   0.24994

 Mulliken charges:
               1
     1  C   -0.174600
     2  C   -0.002698
     3  C   -0.054093
     4  C   -0.161793
     5  H    0.078858
     6  H    0.064234
     7  H    0.045723
     8  H    0.061966
     9  H    0.063305
    10  H    0.079098
 Sum of Mulliken charges =   0.00000

 Dipole moment (field-independent basis, Debye):
    X=             -0.0113    Y=             -0.0209    Z=             -0.0569  Tot=              0.0616
 Quadrupole moment (field-independent basis, Debye-Ang):
   XX=            -23.3546   YY=            -23.3051   ZZ=            -29.3734
   XY=             -0.0941   XZ=             -0.2341   YZ=             -0.1739

 1\1\GINC-NODE33\SP\RB2PLYPD3-FC\def2QZVP\C4H6\BOITTIER\26-Aug-2020\0\\
 #p B2PLYPD3/Def2QZVP\\butadiene\\0,1\C,0,-3.827908,0.189956,0.071621\C
 ,0,-2.708684,-0.471479,-0.022817\C,0,-1.389305,0.126379,-0.078987\C,0,
 -0.271589,-0.675591,0.112218\H,0,-4.79177,-0.35334,0.168256\H,0,-3.828
 236,1.222607,0.030877\H,0,-2.90989,-1.570837,0.060444\H,0,-1.290652,1.
 256293,0.031461\H,0,-0.446947,-1.720074,-0.018473\H,0,0.819744,-0.4283
 82,0.095278\\Version=ES64L-G09RevD.01\State=1-A\HF=-155.6784597\MP2=-1
 55.9060994\RMSD=4.268e-09\PG=C01 [X(C4H6)]\\@

 Normal termination of Gaussian 09 at Wed Aug 26 13:16:13 2020.
