 Gaussian 09, Revision D.01,
 Gaussian 09:  ES64L-G09RevD.01 24-Apr-2013

 --------------------
 #p B2PLYPD3/Def2QZVP
 --------------------

 ---------
 butadiene
 ---------
 Symbolic Z-matrix:
 Charge =  0 Multiplicity = 1

                         Standard orientation:
 ---------------------------------------------------------------------
 Center     Atomic      Atomic             Coordinates (Angstroms)
 Number     Number       Type             X           Y           Z
 ---------------------------------------------------------------------
      1          6           0       -1.834745   -0.135787   -0.005842
      2          6           0       -0.619618    0.399589    0.003202
      3          6           0        0.596037   -0.355293   -0.019494
      4          6           0        1.852009    0.091266    0.002279
      5          1           0       -2.687500    0.562960   -0.057721
      6          1           0       -1.996113   -1.208741    0.151563
      7          1           0       -0.479992    1.516753   -0.025872
      8          1           0        0.489942   -1.456404   -0.031851
      9          1           0        2.006706    1.143297    0.117367
     10          1           0        2.704864   -0.556519   -0.034360
 ---------------------------------------------------------------------

 SCF Done:  E(RB2PLYPD3) =  -155.695644231     A.U. after   11 cycles
 E2(B2PLYPD3) =    -0.2261086556D+00 E(B2PLYPD3) =    -0.15592175288664D+03

 The electronic state is 1-A.
 Alpha  occ. eigenvalues --  -10.62814 -10.62328 -10.62022 -10.61195  -0.93267
 Alpha  occ. eigenvalues --   -0.85157  -0.70358  -0.63246  -0.54447  -0.54123
 Alpha  occ. eigenvalues --   -0.46971  -0.45173  -0.40680  -0.38347  -0.27722
 Alpha virt. eigenvalues --    0.01480   0.06975   0.07275   0.07907   0.09927
 Alpha virt. eigenvalues --    0.11723   0.12239   0.14858   0.15815   0.15991
 Alpha virt. eigenvalues --    0.18710   0.20434   0.21229   0.22582   0.23930

 Mulliken charges:
               1
     1  C   -0.174247
     2  C   -0.031411
     3  C   -0.011451
     4  C   -0.182282
     5  H    0.085588
     6  H    0.076594
     7  H    0.045078
     8  H    0.039399
     9  H    0.060041
    10  H    0.092690
 Sum of Mulliken charges =   0.00000

 Dipole moment (field-independent basis, Debye):
    X=             -0.0291    Y=             -0.0064    Z=              0.1170  Tot=              0.1207
 Quadrupole moment (field-independent basis, Debye-Ang):
   XX=            -23.5735   YY=            -23.2177   ZZ=            -29.2337
   XY=             -0.0416   XZ=             -0.0036   YZ=             -0.0827

 1\1\GINC-NODE11\SP\RB2PLYPD3-FC\def2QZVP\C4H6\BOITTIER\26-Aug-2020\0\\
 #p B2PLYPD3/Def2QZVP\\butadiene\\0,1\C,0,-3.832506,0.244137,0.02052\C,
 0,-2.73178,-0.498486,0.033037\C,0,-1.40133,0.028843,0.030615\C,0,-0.24
 47,-0.634142,0.027274\H,0,-4.795512,-0.289752,0.096094\H,0,-3.801561,1
 .322338,-0.175874\H,0,-2.792566,-1.620913,0.102744\H,0,-1.310203,1.131
 016,0.002954\H,0,-0.279761,-1.700367,-0.049415\H,0,0.709769,-0.147211,
 0.042003\\Version=ES64L-G09RevD.01\State=1-A\HF=-155.6956442\MP2=-155.
 9217529\RMSD=4.840e-09\PG=C01 [X(C4H6)]\\@

 Normal termination of Gaussian 09 at Wed Aug 26 22:14:43 2020.
