 Gaussian 09, Revision D.01,
 Gaussian 09:  ES64L-G09RevD.01 24-Apr-2013

 --------------------
 #p B2PLYPD3/Def2QZVP
 --------------------

 ---------
 butadiene
 ---------
 Symbolic Z-matrix:
 Charge =  0 Multiplicity = 1

                         Standard orientation:
 ---------------------------------------------------------------------
 Center     Atomic      Atomic             Coordinates (Angstroms)
 Number     Number       Type             X           Y           Z
 ---------------------------------------------------------------------
      1          6           0        1.838147    0.097823   -0.015242
      2          6           0        0.598344   -0.395560    0.015916
      3          6           0       -0.606144    0.423887   -0.001667
      4          6           0       -1.823525   -0.118855   -0.002908
      5          1           0        2.722649   -0.512102    0.009159
      6          1           0        2.006995    1.158278   -0.056345
      7          1           0        0.452511   -1.450969    0.074513
      8          1           0       -0.526311    1.499974    0.082512
      9          1           0       -1.969960   -1.211506   -0.085526
     10          1           0       -2.726816    0.472548   -0.000902
 ---------------------------------------------------------------------

 SCF Done:  E(RB2PLYPD3) =  -155.700400685     A.U. after   11 cycles
 E2(B2PLYPD3) =    -0.2255390036D+00 E(B2PLYPD3) =    -0.15592593968910D+03

 The electronic state is 1-A.
 Alpha  occ. eigenvalues --  -10.62522 -10.62358 -10.61654 -10.61240  -0.93035
 Alpha  occ. eigenvalues --   -0.84902  -0.70003  -0.64371  -0.54760  -0.53950
 Alpha  occ. eigenvalues --   -0.46771  -0.45271  -0.41360  -0.38082  -0.27701
 Alpha virt. eigenvalues --    0.01872   0.07066   0.07440   0.08073   0.09441
 Alpha virt. eigenvalues --    0.11656   0.12546   0.14616   0.15827   0.16330
 Alpha virt. eigenvalues --    0.18799   0.20343   0.21761   0.22939   0.23731

 Mulliken charges:
               1
     1  C   -0.174569
     2  C   -0.033515
     3  C   -0.033651
     4  C   -0.171380
     5  H    0.084812
     6  H    0.063677
     7  H    0.060374
     8  H    0.060505
     9  H    0.060884
    10  H    0.082863
 Sum of Mulliken charges =   0.00000

 Dipole moment (field-independent basis, Debye):
    X=             -0.0315    Y=              0.0145    Z=              0.0298  Tot=              0.0457
 Quadrupole moment (field-independent basis, Debye-Ang):
   XX=            -23.3905   YY=            -23.1170   ZZ=            -29.2292
   XY=              0.0988   XZ=              0.0650   YZ=              0.0525

 1\1\GINC-NODE34\SP\RB2PLYPD3-FC\def2QZVP\C4H6\BOITTIER\26-Aug-2020\0\\
 #p B2PLYPD3/Def2QZVP\\butadiene\\0,1\C,0,-3.842106,0.211758,0.031307\C
 ,0,-2.711461,-0.497485,0.020038\C,0,-1.379111,0.091904,0.012491\C,0,-0
 .279283,-0.660723,0.035237\H,0,-4.822016,-0.22948,0.025646\H,0,-3.8171
 98,1.286059,0.035705\H,0,-2.758166,-1.56328,-0.002072\H,0,-1.264303,1.
 161282,-0.108639\H,0,-0.331564,-1.758426,0.155534\H,0,0.715677,-0.2419
 76,0.015185\\Version=ES64L-G09RevD.01\State=1-A\HF=-155.7004007\MP2=-1
 55.9259397\RMSD=2.412e-09\PG=C01 [X(C4H6)]\\@

 Normal termination of Gaussian 09 at Wed Aug 26 19:40:57 2020.
