 Gaussian 09, Revision D.01,
 Gaussian 09:  ES64L-G09RevD.01 24-Apr-2013

 --------------------
 #p B2PLYPD3/Def2QZVP
 --------------------

 ---------
 butadiene
 ---------
 Symbolic Z-matrix:
 Charge =  0 Multiplicity = 1

                         Standard orientation:
 ---------------------------------------------------------------------
 Center     Atomic      Atomic             Coordinates (Angstroms)
 Number     Number       Type             X           Y           Z
 ---------------------------------------------------------------------
      1          6           0       -1.834750   -0.128785    0.046465
      2          6           0       -0.591246    0.435488   -0.064266
      3          6           0        0.574024   -0.400011   -0.039550
      4          6           0        1.810803    0.092732    0.020972
      5          1           0       -2.616671    0.571490    0.081398
      6          1           0       -1.958550   -1.240564    0.111706
      7          1           0       -0.356798    1.516050   -0.220175
      8          1           0        0.440977   -1.456086   -0.061985
      9          1           0        1.966528    1.182244    0.346997
     10          1           0        2.771528   -0.569673   -0.039670
 ---------------------------------------------------------------------

 SCF Done:  E(RB2PLYPD3) =  -155.679995090     A.U. after   12 cycles
 E2(B2PLYPD3) =    -0.2280421515D+00 E(B2PLYPD3) =    -0.15590803724126D+03

 The electronic state is 1-A.
 Alpha  occ. eigenvalues --  -10.63238 -10.62800 -10.62254 -10.61971  -0.93194
 Alpha  occ. eigenvalues --   -0.84110  -0.69483  -0.63777  -0.53995  -0.52960
 Alpha  occ. eigenvalues --   -0.45948  -0.45480  -0.41195  -0.37794  -0.27092
 Alpha virt. eigenvalues --    0.01229   0.06954   0.07069   0.07857   0.09024
 Alpha virt. eigenvalues --    0.11779   0.12088   0.14572   0.15241   0.16262
 Alpha virt. eigenvalues --    0.18514   0.19766   0.21302   0.22478   0.23603

 Mulliken charges:
               1
     1  C   -0.186850
     2  C   -0.041849
     3  C   -0.018405
     4  C   -0.179581
     5  H    0.091085
     6  H    0.080132
     7  H    0.062106
     8  H    0.058767
     9  H    0.060197
    10  H    0.074397
 Sum of Mulliken charges =   0.00000

 Dipole moment (field-independent basis, Debye):
    X=             -0.0640    Y=             -0.0562    Z=              0.1309  Tot=              0.1562
 Quadrupole moment (field-independent basis, Debye-Ang):
   XX=            -24.4133   YY=            -22.9833   ZZ=            -29.3804
   XY=              0.1079   XZ=              0.1013   YZ=              0.1490

 1\1\GINC-NODE26\SP\RB2PLYPD3-FC\def2QZVP\C4H6\BOITTIER\26-Aug-2020\0\\
 #p B2PLYPD3/Def2QZVP\\butadiene\\0,1\C,0,-3.82569,0.252611,-0.028542\C
 ,0,-2.709249,-0.531538,0.096513\C,0,-1.408357,0.070274,0.05152\C,0,-0.
 285878,-0.646543,0.003603\H,0,-4.724963,-0.289601,-0.046399\H,0,-3.739
 577,1.365991,-0.121299\H,0,-2.680437,-1.632762,0.279174\H,0,-1.341372,
 1.132817,0.047787\H,0,-0.33815,-1.75356,-0.295327\H,0,0.782066,-0.1743
 56,0.048156\\Version=ES64L-G09RevD.01\State=1-A\HF=-155.6799951\MP2=-1
 55.9080372\RMSD=3.582e-09\PG=C01 [X(C4H6)]\\@

 Normal termination of Gaussian 09 at Wed Aug 26 12:27:25 2020.
