 Gaussian 09, Revision D.01,
 Gaussian 09:  ES64L-G09RevD.01 24-Apr-2013

 --------------------
 #p B2PLYPD3/Def2QZVP
 --------------------

 ---------
 butadiene
 ---------
 Symbolic Z-matrix:
 Charge =  0 Multiplicity = 1

                         Standard orientation:
 ---------------------------------------------------------------------
 Center     Atomic      Atomic             Coordinates (Angstroms)
 Number     Number       Type             X           Y           Z
 ---------------------------------------------------------------------
      1          6           0       -1.813661   -0.140801   -0.061301
      2          6           0       -0.597221    0.455979    0.043604
      3          6           0        0.588773   -0.391794    0.065978
      4          6           0        1.848983    0.083023   -0.068129
      5          1           0       -2.722695    0.487591    0.054043
      6          1           0       -1.888808   -1.195383   -0.128852
      7          1           0       -0.489741    1.491869    0.036421
      8          1           0        0.245985   -1.402050    0.194627
      9          1           0        1.983685    1.184538    0.018797
     10          1           0        2.710331   -0.605008   -0.055952
 ---------------------------------------------------------------------

 SCF Done:  E(RB2PLYPD3) =  -155.687417220     A.U. after   11 cycles
 E2(B2PLYPD3) =    -0.2273335706D+00 E(B2PLYPD3) =    -0.15591475079089D+03

 The electronic state is 1-A.
 Alpha  occ. eigenvalues --  -10.62709 -10.62363 -10.62295 -10.61931  -0.93029
 Alpha  occ. eigenvalues --   -0.84121  -0.69857  -0.65136  -0.53800  -0.53347
 Alpha  occ. eigenvalues --   -0.46894  -0.46095  -0.41266  -0.37513  -0.27251
 Alpha virt. eigenvalues --    0.01280   0.07000   0.07352   0.08119   0.09034
 Alpha virt. eigenvalues --    0.11857   0.12372   0.14596   0.15382   0.16289
 Alpha virt. eigenvalues --    0.18508   0.19864   0.21592   0.23085   0.23794

 Mulliken charges:
               1
     1  C   -0.183173
     2  C   -0.029528
     3  C   -0.033689
     4  C   -0.180827
     5  H    0.081440
     6  H    0.069323
     7  H    0.063810
     8  H    0.055856
     9  H    0.069954
    10  H    0.086834
 Sum of Mulliken charges =   0.00000

 Dipole moment (field-independent basis, Debye):
    X=             -0.0946    Y=              0.0232    Z=              0.1887  Tot=              0.2124
 Quadrupole moment (field-independent basis, Debye-Ang):
   XX=            -24.1049   YY=            -23.0117   ZZ=            -29.4008
   XY=              0.2469   XZ=             -0.0260   YZ=              0.1196

 1\1\GINC-NODE31\SP\RB2PLYPD3-FC\def2QZVP\C4H6\BOITTIER\26-Aug-2020\0\\
 #p B2PLYPD3/Def2QZVP\\butadiene\\0,1\C,0,-3.810778,0.261952,0.075791\C
 ,0,-2.726462,-0.552265,-0.014687\C,0,-1.403661,0.0599,-0.050109\C,0,-0
 .253439,-0.638063,0.09618\H,0,-4.82083,-0.188759,-0.029933\H,0,-3.6886
 67,1.313237,0.123148\H,0,-2.813254,-1.589764,0.012404\H,0,-1.552967,1.
 1136,-0.198757\H,0,-0.325769,-1.746887,0.030493\H,0,0.720705,-0.12234,
 0.073155\\Version=ES64L-G09RevD.01\State=1-A\HF=-155.6874172\MP2=-155.
 9147508\RMSD=7.786e-09\PG=C01 [X(C4H6)]\\@

 Normal termination of Gaussian 09 at Wed Aug 26 12:35:17 2020.
