 Gaussian 09, Revision D.01,
 Gaussian 09:  ES64L-G09RevD.01 24-Apr-2013

 --------------------
 #p B2PLYPD3/Def2QZVP
 --------------------

 ---------
 butadiene
 ---------
 Symbolic Z-matrix:
 Charge =  0 Multiplicity = 1

                         Standard orientation:
 ---------------------------------------------------------------------
 Center     Atomic      Atomic             Coordinates (Angstroms)
 Number     Number       Type             X           Y           Z
 ---------------------------------------------------------------------
      1          6           0       -1.839984   -0.103030    0.016473
      2          6           0       -0.600788    0.395657   -0.027936
      3          6           0        0.608583   -0.424381   -0.022174
      4          6           0        1.844375    0.118223    0.001050
      5          1           0       -2.696509    0.529497    0.015427
      6          1           0       -2.028552   -1.157661    0.047490
      7          1           0       -0.475244    1.490635    0.019405
      8          1           0        0.458595   -1.483280   -0.012047
      9          1           0        1.959420    1.205230    0.048194
     10          1           0        2.709173   -0.503236    0.077052
 ---------------------------------------------------------------------

 SCF Done:  E(RB2PLYPD3) =  -155.699697293     A.U. after   11 cycles
 E2(B2PLYPD3) =    -0.2259491393D+00 E(B2PLYPD3) =    -0.15592564643211D+03

 The electronic state is 1-A.
 Alpha  occ. eigenvalues --  -10.62728 -10.62668 -10.61731 -10.61164  -0.92765
 Alpha  occ. eigenvalues --   -0.84772  -0.70218  -0.64161  -0.54704  -0.53855
 Alpha  occ. eigenvalues --   -0.46559  -0.45826  -0.41401  -0.37899  -0.27541
 Alpha virt. eigenvalues --    0.01644   0.07036   0.07386   0.08125   0.09392
 Alpha virt. eigenvalues --    0.11698   0.12474   0.14703   0.15823   0.16199
 Alpha virt. eigenvalues --    0.18784   0.20326   0.21756   0.23056   0.23848

 Mulliken charges:
               1
     1  C   -0.179226
     2  C   -0.022901
     3  C   -0.040528
     4  C   -0.174019
     5  H    0.085797
     6  H    0.064060
     7  H    0.051523
     8  H    0.059953
     9  H    0.067377
    10  H    0.087963
 Sum of Mulliken charges =   0.00000

 Dipole moment (field-independent basis, Debye):
    X=             -0.0162    Y=             -0.0354    Z=              0.1482  Tot=              0.1533
 Quadrupole moment (field-independent basis, Debye-Ang):
   XX=            -23.5591   YY=            -23.0130   ZZ=            -29.3161
   XY=              0.1366   XZ=              0.1762   YZ=              0.0087

 1\1\GINC-NODE10\SP\RB2PLYPD3-FC\def2QZVP\C4H6\BOITTIER\26-Aug-2020\0\\
 #p B2PLYPD3/Def2QZVP\\butadiene\\0,1\C,0,-3.845091,0.217173,0.001079\C
 ,0,-2.716211,-0.495938,0.059124\C,0,-1.378618,0.091608,0.032461\C,0,-0
 .261309,-0.665815,0.024044\H,0,-4.801789,-0.249902,0.018284\H,0,-3.840
 142,1.287357,-0.057639\H,0,-2.79077,-1.596426,0.040537\H,0,-1.334864,1
 .159556,-0.005467\H,0,-0.344754,-1.756564,0.005441\H,0,0.701207,-0.213
 054,-0.067797\\Version=ES64L-G09RevD.01\State=1-A\HF=-155.6996973\MP2=
 -155.9256464\RMSD=5.786e-09\PG=C01 [X(C4H6)]\\@

 Normal termination of Gaussian 09 at Wed Aug 26 09:37:54 2020.
