 Gaussian 09, Revision D.01,
 Gaussian 09:  ES64L-G09RevD.01 24-Apr-2013

 --------------------
 #p B2PLYPD3/Def2QZVP
 --------------------

 ---------
 butadiene
 ---------
 Symbolic Z-matrix:
 Charge =  0 Multiplicity = 1

                         Standard orientation:
 ---------------------------------------------------------------------
 Center     Atomic      Atomic             Coordinates (Angstroms)
 Number     Number       Type             X           Y           Z
 ---------------------------------------------------------------------
      1          6           0       -1.836859   -0.116091   -0.010759
      2          6           0       -0.603899    0.408254    0.004044
      3          6           0        0.600700   -0.404470    0.028313
      4          6           0        1.838943    0.102110   -0.016319
      5          1           0       -2.711511    0.499313   -0.028216
      6          1           0       -1.971504   -1.171585   -0.076167
      7          1           0       -0.517108    1.508905    0.102969
      8          1           0        0.466533   -1.476079    0.072966
      9          1           0        1.999580    1.182321   -0.066846
     10          1           0        2.740695   -0.481696   -0.036382
 ---------------------------------------------------------------------

 SCF Done:  E(RB2PLYPD3) =  -155.699820186     A.U. after   11 cycles
 E2(B2PLYPD3) =    -0.2258772546D+00 E(B2PLYPD3) =    -0.15592569744029D+03

 The electronic state is 1-A.
 Alpha  occ. eigenvalues --  -10.62823 -10.62658 -10.61597 -10.61225  -0.92912
 Alpha  occ. eigenvalues --   -0.84848  -0.70215  -0.64040  -0.54786  -0.53974
 Alpha  occ. eigenvalues --   -0.46666  -0.45338  -0.41399  -0.38013  -0.27604
 Alpha virt. eigenvalues --    0.01683   0.07070   0.07409   0.08016   0.09457
 Alpha virt. eigenvalues --    0.11624   0.12576   0.14615   0.15792   0.16341
 Alpha virt. eigenvalues --    0.18785   0.20366   0.21827   0.22871   0.23646

 Mulliken charges:
               1
     1  C   -0.178565
     2  C   -0.025694
     3  C   -0.037443
     4  C   -0.169736
     5  H    0.086536
     6  H    0.065363
     7  H    0.055097
     8  H    0.057703
     9  H    0.061009
    10  H    0.085731
 Sum of Mulliken charges =   0.00000

 Dipole moment (field-independent basis, Debye):
    X=             -0.0016    Y=             -0.0139    Z=             -0.0119  Tot=              0.0184
 Quadrupole moment (field-independent basis, Debye-Ang):
   XX=            -23.3259   YY=            -23.1575   ZZ=            -29.2742
   XY=              0.0732   XZ=             -0.0433   YZ=              0.0679

 1\1\GINC-NODE35\SP\RB2PLYPD3-FC\def2QZVP\C4H6\BOITTIER\26-Aug-2020\0\\
 #p B2PLYPD3/Def2QZVP\\butadiene\\0,1\C,0,-3.838477,0.227433,0.029079\C
 ,0,-2.71948,-0.509584,0.029337\C,0,-1.388792,0.073295,-0.011781\C,0,-0
 .261282,-0.645781,0.047482\H,0,-4.809214,-0.220669,0.059373\H,0,-3.781
 643,1.291222,0.069043\H,0,-2.83156,-1.610008,-0.043158\H,0,-1.328845,1
 .150228,-0.08223\H,0,-0.296716,-1.735777,0.124063\H,0,0.730537,-0.2327
 19,0.055507\\Version=ES64L-G09RevD.01\State=1-A\HF=-155.6998202\MP2=-1
 55.9256974\RMSD=3.987e-09\PG=C01 [X(C4H6)]\\@

 Normal termination of Gaussian 09 at Wed Aug 26 07:38:56 2020.
