 Gaussian 09, Revision D.01,
 Gaussian 09:  ES64L-G09RevD.01 24-Apr-2013

 --------------------
 #p B2PLYPD3/Def2QZVP
 --------------------

 ---------
 butadiene
 ---------
 Symbolic Z-matrix:
 Charge =  0 Multiplicity = 1

                         Standard orientation:
 ---------------------------------------------------------------------
 Center     Atomic      Atomic             Coordinates (Angstroms)
 Number     Number       Type             X           Y           Z
 ---------------------------------------------------------------------
      1          6           0        1.843964    0.100120    0.014060
      2          6           0        0.613189   -0.380820   -0.004282
      3          6           0       -0.610013    0.415120   -0.023027
      4          6           0       -1.835426   -0.124881    0.004011
      5          1           0        2.691560   -0.535828    0.040843
      6          1           0        1.974493    1.162415   -0.031644
      7          1           0        0.475677   -1.471911   -0.040730
      8          1           0       -0.488397    1.486889    0.010962
      9          1           0       -1.981243   -1.189686    0.007592
     10          1           0       -2.742377    0.490883    0.068408
 ---------------------------------------------------------------------

 SCF Done:  E(RB2PLYPD3) =  -155.700312878     A.U. after   11 cycles
 E2(B2PLYPD3) =    -0.2254152330D+00 E(B2PLYPD3) =    -0.15592572811099D+03

 The electronic state is 1-A.
 Alpha  occ. eigenvalues --  -10.62646 -10.62376 -10.61752 -10.60887  -0.93005
 Alpha  occ. eigenvalues --   -0.85147  -0.70118  -0.64042  -0.54802  -0.53984
 Alpha  occ. eigenvalues --   -0.47043  -0.45467  -0.41044  -0.38113  -0.27828
 Alpha virt. eigenvalues --    0.01854   0.07020   0.07439   0.08067   0.09641
 Alpha virt. eigenvalues --    0.11697   0.12495   0.14675   0.15772   0.16213
 Alpha virt. eigenvalues --    0.18781   0.20434   0.21666   0.22941   0.23898

 Mulliken charges:
               1
     1  C   -0.180733
     2  C   -0.019048
     3  C   -0.037430
     4  C   -0.172371
     5  H    0.091683
     6  H    0.063599
     7  H    0.046986
     8  H    0.056042
     9  H    0.067842
    10  H    0.083429
 Sum of Mulliken charges =   0.00000

 Dipole moment (field-independent basis, Debye):
    X=             -0.0236    Y=             -0.0070    Z=              0.0310  Tot=              0.0395
 Quadrupole moment (field-independent basis, Debye-Ang):
   XX=            -23.4316   YY=            -23.1373   ZZ=            -29.2216
   XY=              0.0568   XZ=             -0.2101   YZ=              0.0356

 1\1\GINC-NODE28\SP\RB2PLYPD3-FC\def2QZVP\C4H6\BOITTIER\26-Aug-2020\0\\
 #p B2PLYPD3/Def2QZVP\\butadiene\\0,1\C,0,-3.848133,0.209269,0.006286\C
 ,0,-2.722104,-0.481642,0.04015\C,0,-1.377029,0.084771,0.033587\C,0,-0.
 267005,-0.664711,0.023982\H,0,-4.79523,-0.266684,-0.000254\H,0,-3.7879
 04,1.27877,0.017982\H,0,-2.780113,-1.57812,0.111485\H,0,-1.306789,1.15
 95,-0.034671\H,0,-0.3124,-1.738068,0.054469\H,0,0.734418,-0.222016,-0.
 059959\\Version=ES64L-G09RevD.01\State=1-A\HF=-155.7003129\MP2=-155.92
 57281\RMSD=5.504e-09\PG=C01 [X(C4H6)]\\@

 Normal termination of Gaussian 09 at Wed Aug 26 22:04:07 2020.
