 Gaussian 09, Revision D.01,
 Gaussian 09:  ES64L-G09RevD.01 24-Apr-2013

 --------------------
 #p B2PLYPD3/Def2QZVP
 --------------------

 ---------
 butadiene
 ---------
 Symbolic Z-matrix:
 Charge =  0 Multiplicity = 1

                         Standard orientation:
 ---------------------------------------------------------------------
 Center     Atomic      Atomic             Coordinates (Angstroms)
 Number     Number       Type             X           Y           Z
 ---------------------------------------------------------------------
      1          6           0       -1.839748   -0.142524    0.068140
      2          6           0       -0.639530    0.429902   -0.066611
      3          6           0        0.613260   -0.345332   -0.074448
      4          6           0        1.842822    0.089518    0.040748
      5          1           0       -2.744060    0.489734    0.134369
      6          1           0       -1.897430   -1.287357   -0.105364
      7          1           0       -0.567025    1.536139   -0.061003
      8          1           0        0.533528   -1.391635    0.048963
      9          1           0        2.267189    1.105153    0.072870
     10          1           0        2.546974   -0.641415    0.103189
 ---------------------------------------------------------------------

 SCF Done:  E(RB2PLYPD3) =  -155.684012553     A.U. after   11 cycles
 E2(B2PLYPD3) =    -0.2258372019D+00 E(B2PLYPD3) =    -0.15590984975497D+03

 The electronic state is 1-A.
 Alpha  occ. eigenvalues --  -10.62958 -10.62603 -10.61984 -10.60538  -0.92946
 Alpha  occ. eigenvalues --   -0.85561  -0.69817  -0.63446  -0.54727  -0.53753
 Alpha  occ. eigenvalues --   -0.46693  -0.45023  -0.40547  -0.38034  -0.28128
 Alpha virt. eigenvalues --    0.01958   0.06940   0.07450   0.07950   0.09492
 Alpha virt. eigenvalues --    0.11389   0.12384   0.14836   0.15632   0.16125
 Alpha virt. eigenvalues --    0.18685   0.19610   0.21761   0.22278   0.25175

 Mulliken charges:
               1
     1  C   -0.168109
     2  C   -0.046203
     3  C   -0.024240
     4  C   -0.167832
     5  H    0.086687
     6  H    0.064851
     7  H    0.056157
     8  H    0.056147
     9  H    0.067190
    10  H    0.075354
 Sum of Mulliken charges =   0.00000

 Dipole moment (field-independent basis, Debye):
    X=              0.0707    Y=              0.0493    Z=              0.0683  Tot=              0.1100
 Quadrupole moment (field-independent basis, Debye-Ang):
   XX=            -23.5393   YY=            -23.0951   ZZ=            -29.1966
   XY=             -0.0543   XZ=              0.3166   YZ=              0.0900

 1\1\GINC-NODE10\SP\RB2PLYPD3-FC\def2QZVP\C4H6\BOITTIER\26-Aug-2020\0\\
 #p B2PLYPD3/Def2QZVP\\butadiene\\0,1\C,0,-3.835208,0.248643,-0.049638\
 C,0,-2.753235,-0.520956,0.10335\C,0,-1.383725,0.021759,0.082526\C,0,-0
 .250557,-0.626152,-0.019109\H,0,-4.836987,-0.216661,-0.092612\H,0,-3.6
 89602,1.391015,0.083991\H,0,-2.876221,-1.62225,0.136152\H,0,-1.27934,1
 .060968,-0.077121\H,0,-0.011444,-1.701071,-0.016429\H,0,0.570557,-0.03
 2956,-0.107893\\Version=ES64L-G09RevD.01\State=1-A\HF=-155.6840126\MP2
 =-155.9098498\RMSD=9.845e-09\PG=C01 [X(C4H6)]\\@

 Normal termination of Gaussian 09 at Wed Aug 26 15:49:27 2020.
