 Gaussian 09, Revision D.01,
 Gaussian 09:  ES64L-G09RevD.01 24-Apr-2013

 --------------------
 #p B2PLYPD3/Def2QZVP
 --------------------

 ---------
 butadiene
 ---------
 Symbolic Z-matrix:
 Charge =  0 Multiplicity = 1

                         Standard orientation:
 ---------------------------------------------------------------------
 Center     Atomic      Atomic             Coordinates (Angstroms)
 Number     Number       Type             X           Y           Z
 ---------------------------------------------------------------------
      1          6           0       -1.816693    0.110593    0.083025
      2          6           0       -0.574763   -0.422654   -0.068160
      3          6           0        0.577803    0.382216   -0.043778
      4          6           0        1.825869   -0.108229    0.047152
      5          1           0       -2.740823   -0.507037   -0.105911
      6          1           0       -1.865039    1.233835    0.100724
      7          1           0       -0.433716   -1.458134   -0.169938
      8          1           0        0.304233    1.372870   -0.048932
      9          1           0        2.082455   -1.077125    0.305332
     10          1           0        2.579596    0.664040   -0.190706
 ---------------------------------------------------------------------

 SCF Done:  E(RB2PLYPD3) =  -155.677481164     A.U. after   12 cycles
 E2(B2PLYPD3) =    -0.2273089261D+00 E(B2PLYPD3) =    -0.15590479008977D+03

 The electronic state is 1-A.
 Alpha  occ. eigenvalues --  -10.62696 -10.61773 -10.61551 -10.61423  -0.93992
 Alpha  occ. eigenvalues --   -0.84285  -0.70533  -0.65327  -0.54817  -0.53273
 Alpha  occ. eigenvalues --   -0.47177  -0.45543  -0.41790  -0.37702  -0.26915
 Alpha virt. eigenvalues --    0.00650   0.06938   0.07551   0.08064   0.09492
 Alpha virt. eigenvalues --    0.12005   0.12191   0.14980   0.15367   0.16075
 Alpha virt. eigenvalues --    0.18654   0.19945   0.20955   0.22753   0.24382

 Mulliken charges:
               1
     1  C   -0.176326
     2  C   -0.028014
     3  C   -0.026251
     4  C   -0.195267
     5  H    0.082282
     6  H    0.053632
     7  H    0.059528
     8  H    0.065001
     9  H    0.087809
    10  H    0.077606
 Sum of Mulliken charges =   0.00000

 Dipole moment (field-independent basis, Debye):
    X=              0.0090    Y=             -0.0645    Z=             -0.1600  Tot=              0.1727
 Quadrupole moment (field-independent basis, Debye-Ang):
   XX=            -24.3979   YY=            -23.1027   ZZ=            -29.0823
   XY=             -0.3653   XZ=              0.3997   YZ=             -0.2367

 1\1\GINC-NODE12\SP\RB2PLYPD3-FC\def2QZVP\C4H6\BOITTIER\26-Aug-2020\0\\
 #p B2PLYPD3/Def2QZVP\\butadiene\\0,1\C,0,-3.814857,0.246331,0.090693\C
 ,0,-2.697526,-0.518731,-0.035209\C,0,-1.412646,0.052139,-0.032358\C,0,
 -0.280835,-0.66364,0.082262\H,0,-4.840002,-0.190122,-0.081833\H,0,-3.6
 48193,1.358127,0.069321\H,0,-2.756564,-1.565028,-0.10039\H,0,-1.492377
 ,1.075973,-0.073217\H,0,-0.213317,-1.654049,0.375149\H,0,0.605982,-0.0
 57924,-0.178015\\Version=ES64L-G09RevD.01\State=1-A\HF=-155.6774812\MP
 2=-155.9047901\RMSD=5.903e-09\PG=C01 [X(C4H6)]\\@

 Normal termination of Gaussian 09 at Wed Aug 26 15:25:46 2020.
