 Gaussian 09, Revision D.01,
 Gaussian 09:  ES64L-G09RevD.01 24-Apr-2013

 --------------------
 #p B2PLYPD3/Def2QZVP
 --------------------

 ---------
 butadiene
 ---------
 Symbolic Z-matrix:
 Charge =  0 Multiplicity = 1

                         Standard orientation:
 ---------------------------------------------------------------------
 Center     Atomic      Atomic             Coordinates (Angstroms)
 Number     Number       Type             X           Y           Z
 ---------------------------------------------------------------------
      1          6           0       -1.822374    0.059599   -0.055428
      2          6           0       -0.607051   -0.362717    0.073179
      3          6           0        0.599073    0.463231   -0.004935
      4          6           0        1.822801   -0.156538   -0.020201
      5          1           0       -2.662418   -0.541169   -0.005633
      6          1           0       -1.914043    1.190592   -0.228552
      7          1           0       -0.386494   -1.428685    0.263506
      8          1           0        0.484515    1.555914    0.328775
      9          1           0        1.821704   -1.210926   -0.269343
     10          1           0        2.702037    0.412817   -0.044444
 ---------------------------------------------------------------------

 SCF Done:  E(RB2PLYPD3) =  -155.681111542     A.U. after   12 cycles
 E2(B2PLYPD3) =    -0.2268176347D+00 E(B2PLYPD3) =    -0.15590792917621D+03

 The electronic state is 1-A.
 Alpha  occ. eigenvalues --  -10.63685 -10.61966 -10.61827 -10.60900  -0.93105
 Alpha  occ. eigenvalues --   -0.85052  -0.70011  -0.62909  -0.55453  -0.53388
 Alpha  occ. eigenvalues --   -0.46778  -0.45039  -0.40944  -0.37364  -0.28015
 Alpha virt. eigenvalues --    0.01666   0.07015   0.07378   0.07831   0.09075
 Alpha virt. eigenvalues --    0.11665   0.12397   0.14533   0.15088   0.16241
 Alpha virt. eigenvalues --    0.18329   0.19399   0.21281   0.23053   0.23931

 Mulliken charges:
               1
     1  C   -0.174006
     2  C   -0.017989
     3  C   -0.042554
     4  C   -0.185890
     5  H    0.097756
     6  H    0.052093
     7  H    0.047042
     8  H    0.061912
     9  H    0.071154
    10  H    0.090483
 Sum of Mulliken charges =   0.00000

 Dipole moment (field-independent basis, Debye):
    X=              0.0352    Y=             -0.0675    Z=              0.0841  Tot=              0.1135
 Quadrupole moment (field-independent basis, Debye-Ang):
   XX=            -23.7581   YY=            -23.4285   ZZ=            -29.0413
   XY=              0.1859   XZ=             -0.1165   YZ=              0.2429

 1\1\GINC-NODE40\SP\RB2PLYPD3-FC\def2QZVP\C4H6\BOITTIER\26-Aug-2020\0\\
 #p B2PLYPD3/Def2QZVP\\butadiene\\0,1\C,0,-3.83331,0.172194,-0.030337\C
 ,0,-2.714057,-0.461689,0.101443\C,0,-1.378788,0.132997,0.021242\C,0,-0
 .286803,-0.697243,0.00999\H,0,-4.767897,-0.267107,0.021019\H,0,-3.7195
 63,1.300423,-0.208323\H,0,-2.689313,-1.549115,0.296507\H,0,-1.294649,1
 .229873,0.350219\H,0,-0.477833,-1.735239,-0.234714\H,0,0.680663,-0.295
 794,-0.015637\\Version=ES64L-G09RevD.01\State=1-A\HF=-155.6811115\MP2=
 -155.9079292\RMSD=4.518e-09\PG=C01 [X(C4H6)]\\@

 Normal termination of Gaussian 09 at Wed Aug 26 12:46:59 2020.
