 Gaussian 09, Revision D.01,
 Gaussian 09:  ES64L-G09RevD.01 24-Apr-2013

 --------------------
 #p B2PLYPD3/Def2QZVP
 --------------------

 ---------
 butadiene
 ---------
 Symbolic Z-matrix:
 Charge =  0 Multiplicity = 1

                         Standard orientation:
 ---------------------------------------------------------------------
 Center     Atomic      Atomic             Coordinates (Angstroms)
 Number     Number       Type             X           Y           Z
 ---------------------------------------------------------------------
      1          6           0        1.822036   -0.116803   -0.009211
      2          6           0        0.599131    0.412795    0.011081
      3          6           0       -0.591634   -0.381685    0.002349
      4          6           0       -1.837272    0.095405   -0.023760
      5          1           0        2.703835    0.483677    0.001238
      6          1           0        1.968664   -1.190050   -0.040426
      7          1           0        0.516743    1.492864    0.068164
      8          1           0       -0.428730   -1.463695    0.051357
      9          1           0       -2.006714    1.143995   -0.042438
     10          1           0       -2.707357   -0.525069    0.079355
 ---------------------------------------------------------------------

 SCF Done:  E(RB2PLYPD3) =  -155.700442393     A.U. after   11 cycles
 E2(B2PLYPD3) =    -0.2254948896D+00 E(B2PLYPD3) =    -0.15592593728271D+03

 The electronic state is 1-A.
 Alpha  occ. eigenvalues --  -10.62413 -10.62281 -10.61330 -10.61116  -0.93386
 Alpha  occ. eigenvalues --   -0.85020  -0.70550  -0.64152  -0.54961  -0.54151
 Alpha  occ. eigenvalues --   -0.46764  -0.45517  -0.41378  -0.38366  -0.27571
 Alpha virt. eigenvalues --    0.01626   0.07063   0.07437   0.08063   0.09761
 Alpha virt. eigenvalues --    0.11700   0.12578   0.14794   0.15875   0.16268
 Alpha virt. eigenvalues --    0.18785   0.20399   0.21867   0.22806   0.23773

 Mulliken charges:
               1
     1  C   -0.174836
     2  C   -0.027514
     3  C   -0.024850
     4  C   -0.176970
     5  H    0.085594
     6  H    0.062695
     7  H    0.054209
     8  H    0.051241
     9  H    0.064075
    10  H    0.086356
 Sum of Mulliken charges =   0.00000

 Dipole moment (field-independent basis, Debye):
    X=              0.0565    Y=              0.0271    Z=              0.1157  Tot=              0.1316
 Quadrupole moment (field-independent basis, Debye-Ang):
   XX=            -23.3653   YY=            -23.1788   ZZ=            -29.1645
   XY=             -0.1198   XZ=             -0.2332   YZ=             -0.0337

 1\1\GINC-NODE39\SP\RB2PLYPD3-FC\def2QZVP\C4H6\BOITTIER\26-Aug-2020\0\\
 #p B2PLYPD3/Def2QZVP\\butadiene\\0,1\C,0,-3.822994,0.232226,0.008349\C
 ,0,-2.7169,-0.510292,0.048425\C,0,-1.401418,0.053563,0.020649\C,0,-0.2
 63499,-0.64285,0.012888\H,0,-4.799352,-0.197143,0.033255\H,0,-3.771848
 ,1.312844,-0.054759\H,0,-2.832406,-1.585161,0.137365\H,0,-1.364531,1.1
 48115,0.037414\H,0,-0.287817,-1.704853,0.025485\H,0,0.705193,-0.188358
 ,0.100871\\Version=ES64L-G09RevD.01\State=1-A\HF=-155.7004424\MP2=-155
 .9259373\RMSD=2.944e-09\PG=C01 [X(C4H6)]\\@

 Normal termination of Gaussian 09 at Wed Aug 26 11:27:14 2020.
