 Gaussian 09, Revision D.01,
 Gaussian 09:  ES64L-G09RevD.01 24-Apr-2013

 --------------------
 #p B2PLYPD3/Def2QZVP
 --------------------

 ---------
 butadiene
 ---------
 Symbolic Z-matrix:
 Charge =  0 Multiplicity = 1

                         Standard orientation:
 ---------------------------------------------------------------------
 Center     Atomic      Atomic             Coordinates (Angstroms)
 Number     Number       Type             X           Y           Z
 ---------------------------------------------------------------------
      1          6           0       -1.846486   -0.123239    0.039801
      2          6           0       -0.612014    0.379578   -0.036883
      3          6           0        0.618495   -0.399457   -0.054142
      4          6           0        1.845552    0.128356    0.020193
      5          1           0       -2.635543    0.583297   -0.053426
      6          1           0       -2.081453   -1.125878    0.156872
      7          1           0       -0.520884    1.457357   -0.055456
      8          1           0        0.560928   -1.513288   -0.082192
      9          1           0        1.920078    1.219659    0.142511
     10          1           0        2.723592   -0.532572    0.077884
 ---------------------------------------------------------------------

 SCF Done:  E(RB2PLYPD3) =  -155.695294970     A.U. after   11 cycles
 E2(B2PLYPD3) =    -0.2258939790D+00 E(B2PLYPD3) =    -0.15592118894873D+03

 The electronic state is 1-A.
 Alpha  occ. eigenvalues --  -10.62766 -10.62532 -10.61902 -10.60786  -0.92851
 Alpha  occ. eigenvalues --   -0.85177  -0.70094  -0.63748  -0.54845  -0.53876
 Alpha  occ. eigenvalues --   -0.46596  -0.45529  -0.41221  -0.37930  -0.27691
 Alpha virt. eigenvalues --    0.01643   0.06963   0.07440   0.07907   0.09681
 Alpha virt. eigenvalues --    0.11725   0.12276   0.14836   0.15852   0.16090
 Alpha virt. eigenvalues --    0.18753   0.20233   0.21406   0.22395   0.24178

 Mulliken charges:
               1
     1  C   -0.179132
     2  C   -0.031307
     3  C   -0.029427
     4  C   -0.174062
     5  H    0.081883
     6  H    0.076281
     7  H    0.053978
     8  H    0.048868
     9  H    0.063936
    10  H    0.088981
 Sum of Mulliken charges =   0.00000

 Dipole moment (field-independent basis, Debye):
    X=             -0.0335    Y=             -0.0372    Z=              0.1290  Tot=              0.1384
 Quadrupole moment (field-independent basis, Debye-Ang):
   XX=            -23.7813   YY=            -22.9671   ZZ=            -29.2440
   XY=             -0.1095   XZ=              0.3229   YZ=             -0.0896

 1\1\GINC-NODE21\SP\RB2PLYPD3-FC\def2QZVP\C4H6\BOITTIER\26-Aug-2020\0\\
 #p B2PLYPD3/Def2QZVP\\butadiene\\0,1\C,0,-3.850819,0.222668,-0.020524\
 C,0,-2.721265,-0.483338,0.070522\C,0,-1.374662,0.071601,0.0636\C,0,-0.
 2576,-0.662195,0.004452\H,0,-4.749451,-0.333884,0.09439\H,0,-3.909837,
 1.246921,-0.167573\H,0,-2.817463,-1.559632,0.121464\H,0,-1.238911,1.17
 8968,0.058155\H,0,-0.373302,-1.753097,-0.085016\H,0,0.721009,-0.164866
 ,-0.073623\\Version=ES64L-G09RevD.01\State=1-A\HF=-155.695295\MP2=-155
 .9211889\RMSD=6.790e-09\PG=C01 [X(C4H6)]\\@

 Normal termination of Gaussian 09 at Wed Aug 26 10:46:05 2020.
