 Gaussian 09, Revision D.01,
 Gaussian 09:  ES64L-G09RevD.01 24-Apr-2013

 --------------------
 #p B2PLYPD3/Def2QZVP
 --------------------

 ---------
 butadiene
 ---------
 Symbolic Z-matrix:
 Charge =  0 Multiplicity = 1

                         Standard orientation:
 ---------------------------------------------------------------------
 Center     Atomic      Atomic             Coordinates (Angstroms)
 Number     Number       Type             X           Y           Z
 ---------------------------------------------------------------------
      1          6           0        1.828407    0.098572   -0.018263
      2          6           0        0.596201   -0.395352    0.022905
      3          6           0       -0.587959    0.410409    0.014282
      4          6           0       -1.835613   -0.107358   -0.017085
      5          1           0        2.675981   -0.549654   -0.044256
      6          1           0        2.027967    1.182658   -0.033595
      7          1           0        0.457598   -1.467845    0.086895
      8          1           0       -0.428348    1.465588    0.054084
      9          1           0       -2.004557   -1.174423   -0.071514
     10          1           0       -2.734865    0.506045   -0.002648
 ---------------------------------------------------------------------

 SCF Done:  E(RB2PLYPD3) =  -155.699998137     A.U. after   11 cycles
 E2(B2PLYPD3) =    -0.2258687924D+00 E(B2PLYPD3) =    -0.15592586692968D+03

 The electronic state is 1-A.
 Alpha  occ. eigenvalues --  -10.62433 -10.62155 -10.61826 -10.61425  -0.93305
 Alpha  occ. eigenvalues --   -0.84673  -0.70447  -0.64291  -0.54817  -0.53778
 Alpha  occ. eigenvalues --   -0.46726  -0.45535  -0.41416  -0.38253  -0.27437
 Alpha virt. eigenvalues --    0.01536   0.07031   0.07395   0.08105   0.09647
 Alpha virt. eigenvalues --    0.11684   0.12445   0.14779   0.15875   0.16146
 Alpha virt. eigenvalues --    0.18756   0.20548   0.21706   0.22748   0.23725

 Mulliken charges:
               1
     1  C   -0.177961
     2  C   -0.022973
     3  C   -0.033892
     4  C   -0.177121
     5  H    0.085810
     6  H    0.063008
     7  H    0.054581
     8  H    0.059052
     9  H    0.065524
    10  H    0.083972
 Sum of Mulliken charges =   0.00000

 Dipole moment (field-independent basis, Debye):
    X=              0.0131    Y=             -0.0127    Z=              0.0135  Tot=              0.0227
 Quadrupole moment (field-independent basis, Debye-Ang):
   XX=            -23.4720   YY=            -23.1167   ZZ=            -29.2516
   XY=              0.2383   XZ=             -0.0353   YZ=              0.0448

 1\1\GINC-NODE27\SP\RB2PLYPD3-FC\def2QZVP\C4H6\BOITTIER\26-Aug-2020\0\\
 #p B2PLYPD3/Def2QZVP\\butadiene\\0,1\C,0,-3.830351,0.221202,0.036504\C
 ,0,-2.71139,-0.493896,0.013072\C,0,-1.398242,0.077933,-0.001525\C,0,-0
 .26823,-0.661185,0.048319\H,0,-4.783386,-0.257304,0.081347\H,0,-3.8251
 95,1.323431,0.017403\H,0,-2.77449,-1.574944,-0.016934\H,0,-1.359422,1.
 142636,-0.074753\H,0,-0.300025,-1.738838,0.136557\H,0,0.72917,-0.22611
 2,0.016212\\Version=ES64L-G09RevD.01\State=1-A\HF=-155.6999981\MP2=-15
 5.9258669\RMSD=5.702e-09\PG=C01 [X(C4H6)]\\@

 Normal termination of Gaussian 09 at Wed Aug 26 09:22:14 2020.
