 Gaussian 09, Revision D.01,
 Gaussian 09:  ES64L-G09RevD.01 24-Apr-2013

 --------------------
 #p B2PLYPD3/Def2QZVP
 --------------------

 ---------
 butadiene
 ---------
 Symbolic Z-matrix:
 Charge =  0 Multiplicity = 1

                         Standard orientation:
 ---------------------------------------------------------------------
 Center     Atomic      Atomic             Coordinates (Angstroms)
 Number     Number       Type             X           Y           Z
 ---------------------------------------------------------------------
      1          6           0        1.837784    0.100114    0.010617
      2          6           0        0.602882   -0.394893   -0.046199
      3          6           0       -0.605573    0.421115   -0.026407
      4          6           0       -1.813971   -0.131207    0.032226
      5          1           0        2.720467   -0.529421    0.156837
      6          1           0        1.995097    1.178104    0.080535
      7          1           0        0.441323   -1.448065   -0.082266
      8          1           0       -0.577440    1.538727   -0.097380
      9          1           0       -1.967312   -1.167674    0.037026
     10          1           0       -2.738869    0.457551    0.083824
 ---------------------------------------------------------------------

 SCF Done:  E(RB2PLYPD3) =  -155.697016830     A.U. after   11 cycles
 E2(B2PLYPD3) =    -0.2256951154D+00 E(B2PLYPD3) =    -0.15592271194528D+03

 The electronic state is 1-A.
 Alpha  occ. eigenvalues --  -10.62858 -10.62457 -10.61589 -10.61145  -0.93066
 Alpha  occ. eigenvalues --   -0.84985  -0.69859  -0.64237  -0.54547  -0.54024
 Alpha  occ. eigenvalues --   -0.46515  -0.45259  -0.41290  -0.38064  -0.27754
 Alpha virt. eigenvalues --    0.01931   0.07021   0.07424   0.07935   0.09429
 Alpha virt. eigenvalues --    0.11648   0.12564   0.14588   0.15875   0.16249
 Alpha virt. eigenvalues --    0.18792   0.20464   0.21614   0.22970   0.23640

 Mulliken charges:
               1
     1  C   -0.167961
     2  C   -0.040223
     3  C   -0.025356
     4  C   -0.173853
     5  H    0.082648
     6  H    0.064209
     7  H    0.062664
     8  H    0.055690
     9  H    0.064345
    10  H    0.077839
 Sum of Mulliken charges =   0.00000

 Dipole moment (field-independent basis, Debye):
    X=             -0.0835    Y=             -0.0458    Z=              0.1139  Tot=              0.1485
 Quadrupole moment (field-independent basis, Debye-Ang):
   XX=            -23.5302   YY=            -23.1002   ZZ=            -29.2109
   XY=              0.1149   XZ=              0.3596   YZ=             -0.0342

 1\1\GINC-NODE19\SP\RB2PLYPD3-FC\def2QZVP\C4H6\BOITTIER\26-Aug-2020\0\\
 #p B2PLYPD3/Def2QZVP\\butadiene\\0,1\C,0,-3.840639,0.208944,0.000027\C
 ,0,-2.712939,-0.49529,0.074805\C,0,-1.379066,0.093134,0.040691\C,0,-0.
 287568,-0.665685,0.001338\H,0,-4.820816,-0.257835,-0.13486\H,0,-3.8045
 33,1.295667,-0.097074\H,0,-2.740461,-1.559192,0.137476\H,0,-1.208847,1
 .199492,0.084075\H,0,-0.320207,-1.712718,0.022706\H,0,0.726994,-0.2514
 45,-0.060331\\Version=ES64L-G09RevD.01\State=1-A\HF=-155.6970168\MP2=-
 155.9227119\RMSD=3.351e-09\PG=C01 [X(C4H6)]\\@

 Normal termination of Gaussian 09 at Wed Aug 26 09:31:06 2020.
