 Gaussian 09, Revision D.01,
 Gaussian 09:  ES64L-G09RevD.01 24-Apr-2013

 --------------------
 #p B2PLYPD3/Def2QZVP
 --------------------

 ---------
 butadiene
 ---------
 Symbolic Z-matrix:
 Charge =  0 Multiplicity = 1

                         Standard orientation:
 ---------------------------------------------------------------------
 Center     Atomic      Atomic             Coordinates (Angstroms)
 Number     Number       Type             X           Y           Z
 ---------------------------------------------------------------------
      1          6           0       -1.837841   -0.121942   -0.007972
      2          6           0       -0.609181    0.407428    0.033692
      3          6           0        0.591993   -0.389919    0.004962
      4          6           0        1.850939    0.094648   -0.029715
      5          1           0       -2.680445    0.582517   -0.073046
      6          1           0       -2.090809   -1.182428   -0.101049
      7          1           0       -0.479961    1.483058    0.081318
      8          1           0        0.486431   -1.454461    0.130393
      9          1           0        2.082584    1.151117   -0.053950
     10          1           0        2.706745   -0.521089    0.010532
 ---------------------------------------------------------------------

 SCF Done:  E(RB2PLYPD3) =  -155.697566709     A.U. after   11 cycles
 E2(B2PLYPD3) =    -0.2261001184D+00 E(B2PLYPD3) =    -0.15592366682724D+03

 The electronic state is 1-A.
 Alpha  occ. eigenvalues --  -10.62653 -10.62495 -10.61972 -10.61359  -0.92941
 Alpha  occ. eigenvalues --   -0.84692  -0.70531  -0.64143  -0.54608  -0.53982
 Alpha  occ. eigenvalues --   -0.46852  -0.45296  -0.41264  -0.37965  -0.27477
 Alpha virt. eigenvalues --    0.01412   0.06998   0.07469   0.08009   0.09542
 Alpha virt. eigenvalues --    0.11557   0.12417   0.14906   0.15793   0.16168
 Alpha virt. eigenvalues --    0.18880   0.20463   0.21755   0.22620   0.23543

 Mulliken charges:
               1
     1  C   -0.169931
     2  C   -0.038491
     3  C   -0.030337
     4  C   -0.178710
     5  H    0.076738
     6  H    0.074111
     7  H    0.061725
     8  H    0.060408
     9  H    0.060411
    10  H    0.084077
 Sum of Mulliken charges =   0.00000

 Dipole moment (field-independent basis, Debye):
    X=             -0.0019    Y=              0.0030    Z=              0.0162  Tot=              0.0166
 Quadrupole moment (field-independent basis, Debye-Ang):
   XX=            -23.4476   YY=            -23.0763   ZZ=            -29.2795
   XY=              0.3447   XZ=              0.4207   YZ=             -0.0664

 1\1\GINC-NODE31\SP\RB2PLYPD3-FC\def2QZVP\C4H6\BOITTIER\26-Aug-2020\0\\
 #p B2PLYPD3/Def2QZVP\\butadiene\\0,1\C,0,-3.83581,0.241063,0.030506\C,
 0,-2.725356,-0.505807,0.004999\C,0,-1.39819,0.05814,0.005648\C,0,-0.24
 9191,-0.647784,0.054909\H,0,-4.792777,-0.294354,0.120069\H,0,-3.889392
 ,1.332417,0.088486\H,0,-2.795864,-1.587858,-0.006898\H,0,-1.307726,1.1
 19323,-0.155075\H,0,-0.214974,-1.727461,0.114068\H,0,0.704671,-0.20114
 9,-0.0069\\Version=ES64L-G09RevD.01\State=1-A\HF=-155.6975667\MP2=-155
 .9236668\RMSD=2.796e-09\PG=C01 [X(C4H6)]\\@

 Normal termination of Gaussian 09 at Wed Aug 26 08:38:56 2020.
