 Gaussian 09, Revision D.01,
 Gaussian 09:  ES64L-G09RevD.01 24-Apr-2013

 --------------------
 #p B2PLYPD3/Def2QZVP
 --------------------

 ---------
 butadiene
 ---------
 Symbolic Z-matrix:
 Charge =  0 Multiplicity = 1

                         Standard orientation:
 ---------------------------------------------------------------------
 Center     Atomic      Atomic             Coordinates (Angstroms)
 Number     Number       Type             X           Y           Z
 ---------------------------------------------------------------------
      1          6           0        1.833624    0.107025    0.002410
      2          6           0        0.596261   -0.408891   -0.009897
      3          6           0       -0.599415    0.406678   -0.015790
      4          6           0       -1.834256   -0.113105    0.008365
      5          1           0        2.698445   -0.520035   -0.014262
      6          1           0        1.980763    1.199449    0.107075
      7          1           0        0.455515   -1.485761   -0.012850
      8          1           0       -0.440355    1.463546   -0.059419
      9          1           0       -2.002241   -1.153498    0.051331
     10          1           0       -2.669412    0.546055    0.017599
 ---------------------------------------------------------------------

 SCF Done:  E(RB2PLYPD3) =  -155.699774626     A.U. after   11 cycles
 E2(B2PLYPD3) =    -0.2257034701D+00 E(B2PLYPD3) =    -0.15592547809650D+03

 The electronic state is 1-A.
 Alpha  occ. eigenvalues --  -10.62442 -10.62284 -10.61633 -10.61053  -0.93088
 Alpha  occ. eigenvalues --   -0.84821  -0.70361  -0.64327  -0.54625  -0.54113
 Alpha  occ. eigenvalues --   -0.46645  -0.45921  -0.41482  -0.38076  -0.27471
 Alpha virt. eigenvalues --    0.01663   0.07050   0.07403   0.08156   0.09491
 Alpha virt. eigenvalues --    0.11771   0.12422   0.14835   0.15834   0.16129
 Alpha virt. eigenvalues --    0.18698   0.20511   0.21596   0.23082   0.23923

 Mulliken charges:
               1
     1  C   -0.179160
     2  C   -0.029802
     3  C   -0.028806
     4  C   -0.181818
     5  H    0.087647
     6  H    0.063029
     7  H    0.053680
     8  H    0.057876
     9  H    0.071841
    10  H    0.085513
 Sum of Mulliken charges =   0.00000

 Dipole moment (field-independent basis, Debye):
    X=             -0.0133    Y=             -0.0201    Z=              0.0701  Tot=              0.0741
 Quadrupole moment (field-independent basis, Debye-Ang):
   XX=            -23.6855   YY=            -22.9703   ZZ=            -29.2426
   XY=              0.1601   XZ=              0.0283   YZ=              0.0360

 1\1\GINC-NODE33\SP\RB2PLYPD3-FC\def2QZVP\C4H6\BOITTIER\26-Aug-2020\0\\
 #p B2PLYPD3/Def2QZVP\\butadiene\\0,1\C,0,-3.835364,0.226956,0.013498\C
 ,0,-2.713458,-0.506358,0.044584\C,0,-1.388564,0.076056,0.027845\C,0,-0
 .269974,-0.661723,0.0226\H,0,-4.800384,-0.23017,0.047683\H,0,-3.780191
 ,1.324076,-0.125347\H,0,-2.772419,-1.590168,0.08127\H,0,-1.35111,1.145
 009,0.038298\H,0,-0.295633,-1.716104,0.012318\H,0,0.671792,-0.16739,-0
 .005213\\Version=ES64L-G09RevD.01\State=1-A\HF=-155.6997746\MP2=-155.9
 254781\RMSD=5.266e-09\PG=C01 [X(C4H6)]\\@

 Normal termination of Gaussian 09 at Wed Aug 26 20:25:11 2020.
