 Gaussian 09, Revision D.01,
 Gaussian 09:  ES64L-G09RevD.01 24-Apr-2013

 --------------------
 #p B2PLYPD3/Def2QZVP
 --------------------

 ---------
 butadiene
 ---------
 Symbolic Z-matrix:
 Charge =  0 Multiplicity = 1

                         Standard orientation:
 ---------------------------------------------------------------------
 Center     Atomic      Atomic             Coordinates (Angstroms)
 Number     Number       Type             X           Y           Z
 ---------------------------------------------------------------------
      1          6           0       -1.816649    0.088396    0.044040
      2          6           0       -0.603625   -0.372258   -0.051368
      3          6           0        0.593783    0.419240   -0.021409
      4          6           0        1.814876   -0.135106    0.024780
      5          1           0       -2.697436   -0.557803   -0.041035
      6          1           0       -1.952434    1.166750    0.109756
      7          1           0       -0.469422   -1.419824   -0.071249
      8          1           0        0.481140    1.524544   -0.091124
      9          1           0        1.968397   -1.200621    0.138977
     10          1           0        2.739447    0.485320   -0.021588
 ---------------------------------------------------------------------

 SCF Done:  E(RB2PLYPD3) =  -155.696571083     A.U. after   11 cycles
 E2(B2PLYPD3) =    -0.2254917157D+00 E(B2PLYPD3) =    -0.15592206279916D+03

 The electronic state is 1-A.
 Alpha  occ. eigenvalues --  -10.62800 -10.61990 -10.61364 -10.61027  -0.93630
 Alpha  occ. eigenvalues --   -0.85094  -0.69799  -0.64125  -0.54715  -0.53788
 Alpha  occ. eigenvalues --   -0.46734  -0.45135  -0.41010  -0.38492  -0.27831
 Alpha virt. eigenvalues --    0.01912   0.07011   0.07376   0.07952   0.09806
 Alpha virt. eigenvalues --    0.11745   0.12384   0.14739   0.15699   0.16200
 Alpha virt. eigenvalues --    0.18760   0.20150   0.21637   0.22469   0.23974

 Mulliken charges:
               1
     1  C   -0.170409
     2  C   -0.019478
     3  C   -0.033683
     4  C   -0.177040
     5  H    0.085538
     6  H    0.057840
     7  H    0.054740
     8  H    0.052858
     9  H    0.069089
    10  H    0.080544
 Sum of Mulliken charges =   0.00000

 Dipole moment (field-independent basis, Debye):
    X=              0.0223    Y=             -0.0482    Z=             -0.0245  Tot=              0.0585
 Quadrupole moment (field-independent basis, Debye-Ang):
   XX=            -23.6482   YY=            -23.1430   ZZ=            -29.1428
   XY=             -0.0504   XZ=              0.1111   YZ=             -0.0834

 1\1\GINC-NODE40\SP\RB2PLYPD3-FC\def2QZVP\C4H6\BOITTIER\26-Aug-2020\0\\
 #p B2PLYPD3/Def2QZVP\\butadiene\\0,1\C,0,-3.821925,0.200166,0.060041\C
 ,0,-2.711777,-0.474256,-0.01383\C,0,-1.391572,0.089843,-0.011633\C,0,-
 0.289702,-0.672585,0.059684\H,0,-4.804803,-0.280139,-0.002052\H,0,-3.7
 61553,1.287103,0.082992\H,0,-2.767978,-1.528853,0.007805\H,0,-1.304179
 ,1.193815,-0.125001\H,0,-0.329544,-1.743049,0.216051\H,0,0.731052,-0.2
 3062,-0.008431\\Version=ES64L-G09RevD.01\State=1-A\HF=-155.6965711\MP2
 =-155.9220628\RMSD=6.714e-09\PG=C01 [X(C4H6)]\\@

 Normal termination of Gaussian 09 at Wed Aug 26 10:22:19 2020.
