 Gaussian 09, Revision D.01,
 Gaussian 09:  ES64L-G09RevD.01 24-Apr-2013

 --------------------
 #p B2PLYPD3/Def2QZVP
 --------------------

 ---------
 butadiene
 ---------
 Symbolic Z-matrix:
 Charge =  0 Multiplicity = 1

                         Standard orientation:
 ---------------------------------------------------------------------
 Center     Atomic      Atomic             Coordinates (Angstroms)
 Number     Number       Type             X           Y           Z
 ---------------------------------------------------------------------
      1          6           0       -1.828737    0.104596   -0.022015
      2          6           0       -0.599345   -0.395027    0.005046
      3          6           0        0.603802    0.398175    0.018847
      4          6           0        1.826398   -0.118308   -0.008744
      5          1           0       -2.721913   -0.518817    0.069303
      6          1           0       -1.974664    1.182789   -0.029217
      7          1           0       -0.439209   -1.461962    0.034241
      8          1           0        0.481165    1.503091    0.003430
      9          1           0        1.955083   -1.179884   -0.063813
     10          1           0        2.686834    0.538161    0.027252
 ---------------------------------------------------------------------

 SCF Done:  E(RB2PLYPD3) =  -155.700026661     A.U. after   11 cycles
 E2(B2PLYPD3) =    -0.2255723772D+00 E(B2PLYPD3) =    -0.15592559903820D+03

 The electronic state is 1-A.
 Alpha  occ. eigenvalues --  -10.62443 -10.62206 -10.61547 -10.61267  -0.93354
 Alpha  occ. eigenvalues --   -0.85092  -0.70055  -0.63904  -0.54528  -0.54083
 Alpha  occ. eigenvalues --   -0.46651  -0.45547  -0.41063  -0.38369  -0.27760
 Alpha virt. eigenvalues --    0.01832   0.07019   0.07340   0.08030   0.09743
 Alpha virt. eigenvalues --    0.11769   0.12425   0.14743   0.15812   0.16026
 Alpha virt. eigenvalues --    0.18706   0.20494   0.21490   0.22836   0.23981

 Mulliken charges:
               1
     1  C   -0.173299
     2  C   -0.028499
     3  C   -0.020079
     4  C   -0.181442
     5  H    0.085644
     6  H    0.062889
     7  H    0.052075
     8  H    0.046573
     9  H    0.067593
    10  H    0.088543
 Sum of Mulliken charges =   0.00000

 Dipole moment (field-independent basis, Debye):
    X=              0.0152    Y=             -0.0086    Z=              0.0526  Tot=              0.0554
 Quadrupole moment (field-independent basis, Debye-Ang):
   XX=            -23.6275   YY=            -23.1117   ZZ=            -29.2090
   XY=             -0.0648   XZ=             -0.2349   YZ=             -0.0256

 1\1\GINC-NODE34\SP\RB2PLYPD3-FC\def2QZVP\C4H6\BOITTIER\26-Aug-2020\0\\
 #p B2PLYPD3/Def2QZVP\\butadiene\\0,1\C,0,-3.832264,0.217955,0.000502\C
 ,0,-2.712851,-0.493988,0.043074\C,0,-1.386443,0.069436,0.03224\C,0,-0.
 277057,-0.659527,0.020709\H,0,-4.822603,-0.231194,0.111133\H,0,-3.7816
 2,1.304061,-0.040183\H,0,-2.747367,-1.570915,0.105392\H,0,-1.308123,1.
 177367,-0.017487\H,0,-0.342015,-1.728091,-0.001362\H,0,0.687745,-0.168
 089,0.036304\\Version=ES64L-G09RevD.01\State=1-A\HF=-155.7000267\MP2=-
 155.925599\RMSD=3.508e-09\PG=C01 [X(C4H6)]\\@

 Normal termination of Gaussian 09 at Wed Aug 26 19:23:27 2020.
