 Gaussian 09, Revision D.01,
 Gaussian 09:  ES64L-G09RevD.01 24-Apr-2013

 --------------------
 #p B2PLYPD3/Def2QZVP
 --------------------

 ---------
 butadiene
 ---------
 Symbolic Z-matrix:
 Charge =  0 Multiplicity = 1

                         Standard orientation:
 ---------------------------------------------------------------------
 Center     Atomic      Atomic             Coordinates (Angstroms)
 Number     Number       Type             X           Y           Z
 ---------------------------------------------------------------------
      1          6           0        1.846260    0.114310    0.014786
      2          6           0        0.613808   -0.417135   -0.018882
      3          6           0       -0.602553    0.387683   -0.009605
      4          6           0       -1.851162   -0.097141    0.008109
      5          1           0        2.756431   -0.506658    0.017838
      6          1           0        1.985910    1.212392    0.063504
      7          1           0        0.430370   -1.474352   -0.091513
      8          1           0       -0.469722    1.460706   -0.060184
      9          1           0       -2.042405   -1.168260    0.117821
     10          1           0       -2.698698    0.549868   -0.013915
 ---------------------------------------------------------------------

 SCF Done:  E(RB2PLYPD3) =  -155.699314379     A.U. after   11 cycles
 E2(B2PLYPD3) =    -0.2261305332D+00 E(B2PLYPD3) =    -0.15592544491217D+03

 The electronic state is 1-A.
 Alpha  occ. eigenvalues --  -10.62730 -10.62507 -10.62293 -10.61506  -0.92806
 Alpha  occ. eigenvalues --   -0.84675  -0.70117  -0.64067  -0.54578  -0.53513
 Alpha  occ. eigenvalues --   -0.47015  -0.45399  -0.41011  -0.37945  -0.27654
 Alpha virt. eigenvalues --    0.01572   0.06995   0.07378   0.08087   0.09493
 Alpha virt. eigenvalues --    0.11652   0.12368   0.14632   0.15823   0.16059
 Alpha virt. eigenvalues --    0.18804   0.20511   0.21433   0.22664   0.23782

 Mulliken charges:
               1
     1  C   -0.170524
     2  C   -0.039539
     3  C   -0.023832
     4  C   -0.181219
     5  H    0.086393
     6  H    0.065975
     7  H    0.059489
     8  H    0.052536
     9  H    0.062928
    10  H    0.087794
 Sum of Mulliken charges =   0.00000

 Dipole moment (field-independent basis, Debye):
    X=              0.0153    Y=              0.0038    Z=              0.0170  Tot=              0.0232
 Quadrupole moment (field-independent basis, Debye-Ang):
   XX=            -23.4312   YY=            -23.1737   ZZ=            -29.3389
   XY=              0.1703   XZ=             -0.0277   YZ=             -0.0478

 1\1\GINC-NODE06\SP\RB2PLYPD3-FC\def2QZVP\C4H6\BOITTIER\26-Aug-2020\0\\
 #p B2PLYPD3/Def2QZVP\\butadiene\\0,1\C,0,-3.845989,0.232802,0.00402\C,
 0,-2.730208,-0.512199,0.054146\C,0,-1.388126,0.058136,0.024363\C,0,-0.
 248188,-0.645375,0.021861\H,0,-4.853668,-0.212665,0.016835\H,0,-3.7844
 04,1.336243,-0.075251\H,0,-2.741235,-1.582752,0.156254\H,0,-1.324021,1
 .138433,0.045054\H,0,-0.254717,-1.736017,-0.057909\H,0,0.702685,-0.162
 43,0.0272\\Version=ES64L-G09RevD.01\State=1-A\HF=-155.6993144\MP2=-155
 .9254449\RMSD=4.239e-09\PG=C01 [X(C4H6)]\\@

 Normal termination of Gaussian 09 at Wed Aug 26 21:31:40 2020.
