 Gaussian 09, Revision D.01,
 Gaussian 09:  ES64L-G09RevD.01 24-Apr-2013

 --------------------
 #p B2PLYPD3/Def2QZVP
 --------------------

 ---------
 butadiene
 ---------
 Symbolic Z-matrix:
 Charge =  0 Multiplicity = 1

                         Standard orientation:
 ---------------------------------------------------------------------
 Center     Atomic      Atomic             Coordinates (Angstroms)
 Number     Number       Type             X           Y           Z
 ---------------------------------------------------------------------
      1          6           0       -1.863174   -0.156434    0.034587
      2          6           0       -0.604784    0.460778   -0.034481
      3          6           0        0.630432   -0.369319   -0.067747
      4          6           0        1.873196    0.073080    0.066537
      5          1           0       -2.764977    0.467356   -0.041585
      6          1           0       -1.951548   -1.196778    0.332065
      7          1           0       -0.524983    1.480180   -0.123560
      8          1           0        0.289248   -1.347611   -0.314194
      9          1           0        1.987629    1.160639    0.123554
     10          1           0        2.750608   -0.612422    0.030344
 ---------------------------------------------------------------------

 SCF Done:  E(RB2PLYPD3) =  -155.681214926     A.U. after   12 cycles
 E2(B2PLYPD3) =    -0.2276384473D+00 E(B2PLYPD3) =    -0.15590885337325D+03

 The electronic state is 1-A.
 Alpha  occ. eigenvalues --  -10.63151 -10.62791 -10.62474 -10.62103  -0.92330
 Alpha  occ. eigenvalues --   -0.84097  -0.70047  -0.64932  -0.53860  -0.53330
 Alpha  occ. eigenvalues --   -0.46765  -0.46638  -0.40913  -0.36752  -0.27404
 Alpha virt. eigenvalues --    0.00987   0.07012   0.07539   0.07999   0.08968
 Alpha virt. eigenvalues --    0.11677   0.12227   0.14475   0.15265   0.16149
 Alpha virt. eigenvalues --    0.18600   0.19862   0.21189   0.22477   0.23622

 Mulliken charges:
               1
     1  C   -0.193873
     2  C   -0.053154
     3  C   -0.029642
     4  C   -0.176927
     5  H    0.084492
     6  H    0.078752
     7  H    0.067456
     8  H    0.061729
     9  H    0.069252
    10  H    0.091915
 Sum of Mulliken charges =   0.00000

 Dipole moment (field-independent basis, Debye):
    X=             -0.0143    Y=              0.0681    Z=             -0.0470  Tot=              0.0840
 Quadrupole moment (field-independent basis, Debye-Ang):
   XX=            -23.7303   YY=            -23.3005   ZZ=            -29.3305
   XY=              0.1303   XZ=             -0.2144   YZ=             -0.1867

 1\1\GINC-NODE40\SP\RB2PLYPD3-FC\def2QZVP\C4H6\BOITTIER\26-Aug-2020\0\\
 #p B2PLYPD3/Def2QZVP\\butadiene\\0,1\C,0,-3.861402,0.270466,-0.021844\
 C,0,-2.733098,-0.557696,0.079865\C,0,-1.369368,0.039099,0.078651\C,0,-
 0.226258,-0.623852,-0.030926\H,0,-4.859691,-0.178051,0.080216\H,0,-3.7
 64115,1.295,-0.367511\H,0,-2.836138,-1.569741,0.21636\H,0,-1.529147,1.
 072917,0.278372\H,0,-0.308132,-1.715817,-0.037098\H,0,0.75962,-0.10513
 6,-0.023683\\Version=ES64L-G09RevD.01\State=1-A\HF=-155.6812149\MP2=-1
 55.9088534\RMSD=4.643e-09\PG=C01 [X(C4H6)]\\@

 Normal termination of Gaussian 09 at Wed Aug 26 14:05:42 2020.
