 Gaussian 09, Revision D.01,
 Gaussian 09:  ES64L-G09RevD.01 24-Apr-2013

 --------------------
 #p B2PLYPD3/Def2QZVP
 --------------------

 ---------
 butadiene
 ---------
 Symbolic Z-matrix:
 Charge =  0 Multiplicity = 1

                         Standard orientation:
 ---------------------------------------------------------------------
 Center     Atomic      Atomic             Coordinates (Angstroms)
 Number     Number       Type             X           Y           Z
 ---------------------------------------------------------------------
      1          6           0        1.837518    0.090626   -0.022543
      2          6           0        0.596817   -0.391963    0.016269
      3          6           0       -0.599739    0.424677   -0.002268
      4          6           0       -1.836790   -0.124909   -0.009857
      5          1           0        2.736108   -0.513558    0.031582
      6          1           0        1.995294    1.167391   -0.025294
      7          1           0        0.444187   -1.465575    0.052360
      8          1           0       -0.461973    1.508867    0.081207
      9          1           0       -1.971772   -1.184578   -0.037767
     10          1           0       -2.728676    0.496873    0.008306
 ---------------------------------------------------------------------

 SCF Done:  E(RB2PLYPD3) =  -155.699832881     A.U. after   11 cycles
 E2(B2PLYPD3) =    -0.2261579004D+00 E(B2PLYPD3) =    -0.15592599078125D+03

 The electronic state is 1-A.
 Alpha  occ. eigenvalues --  -10.62957 -10.62421 -10.61781 -10.61482  -0.92971
 Alpha  occ. eigenvalues --   -0.84639  -0.70174  -0.64150  -0.54576  -0.53808
 Alpha  occ. eigenvalues --   -0.46653  -0.45523  -0.41316  -0.38050  -0.27504
 Alpha virt. eigenvalues --    0.01565   0.07040   0.07366   0.08055   0.09456
 Alpha virt. eigenvalues --    0.11661   0.12529   0.14649   0.15777   0.16244
 Alpha virt. eigenvalues --    0.18765   0.20334   0.21808   0.22965   0.23638

 Mulliken charges:
               1
     1  C   -0.172875
     2  C   -0.025657
     3  C   -0.033282
     4  C   -0.179248
     5  H    0.085937
     6  H    0.058514
     7  H    0.053389
     8  H    0.057447
     9  H    0.070293
    10  H    0.085482
 Sum of Mulliken charges =   0.00000

 Dipole moment (field-independent basis, Debye):
    X=             -0.0201    Y=             -0.0115    Z=              0.1103  Tot=              0.1127
 Quadrupole moment (field-independent basis, Debye-Ang):
   XX=            -23.4361   YY=            -23.1403   ZZ=            -29.3264
   XY=              0.1794   XZ=              0.0774   YZ=              0.0552

 1\1\GINC-NODE08\SP\RB2PLYPD3-FC\def2QZVP\C4H6\BOITTIER\26-Aug-2020\0\\
 #p B2PLYPD3/Def2QZVP\\butadiene\\0,1\C,0,-3.842828,0.209188,0.037054\C
 ,0,-2.710656,-0.491923,0.017901\C,0,-1.385543,0.093763,0.011505\C,0,-0
 .268963,-0.670944,0.041009\H,0,-4.836458,-0.223081,0.001365\H,0,-3.802
 263,1.296151,0.002569\H,0,-2.755833,-1.575989,0.018945\H,0,-1.324275,1
 .181446,-0.109359\H,0,-0.328721,-1.735917,0.105495\H,0,0.721003,-0.222
 626,0.003833\\Version=ES64L-G09RevD.01\State=1-A\HF=-155.6998329\MP2=-
 155.9259908\RMSD=6.162e-09\PG=C01 [X(C4H6)]\\@

 Normal termination of Gaussian 09 at Wed Aug 26 19:39:39 2020.
