 Gaussian 09, Revision D.01,
 Gaussian 09:  ES64L-G09RevD.01 24-Apr-2013

 --------------------
 #p B2PLYPD3/Def2QZVP
 --------------------

 ---------
 butadiene
 ---------
 Symbolic Z-matrix:
 Charge =  0 Multiplicity = 1

                         Standard orientation:
 ---------------------------------------------------------------------
 Center     Atomic      Atomic             Coordinates (Angstroms)
 Number     Number       Type             X           Y           Z
 ---------------------------------------------------------------------
      1          6           0       -1.842735   -0.135731   -0.018594
      2          6           0       -0.621663    0.418574   -0.003979
      3          6           0        0.621743   -0.374271   -0.019118
      4          6           0        1.858023    0.097937    0.007813
      5          1           0       -2.768207    0.484094    0.102836
      6          1           0       -2.029176   -1.186609    0.008489
      7          1           0       -0.536439    1.500540    0.006880
      8          1           0        0.525834   -1.488641    0.071697
      9          1           0        1.975924    1.178474    0.006492
     10          1           0        2.739859   -0.526909    0.006879
 ---------------------------------------------------------------------

 SCF Done:  E(RB2PLYPD3) =  -155.696354837     A.U. after   11 cycles
 E2(B2PLYPD3) =    -0.2260099879D+00 E(B2PLYPD3) =    -0.15592236482477D+03

 The electronic state is 1-A.
 Alpha  occ. eigenvalues --  -10.63133 -10.62853 -10.61999 -10.61366  -0.92627
 Alpha  occ. eigenvalues --   -0.85076  -0.69754  -0.63709  -0.54613  -0.53657
 Alpha  occ. eigenvalues --   -0.47212  -0.44697  -0.40701  -0.37937  -0.27984
 Alpha virt. eigenvalues --    0.01781   0.06960   0.07409   0.07880   0.09531
 Alpha virt. eigenvalues --    0.11583   0.12455   0.14461   0.15656   0.16436
 Alpha virt. eigenvalues --    0.18873   0.19888   0.21854   0.22812   0.23674

 Mulliken charges:
               1
     1  C   -0.162734
     2  C   -0.045528
     3  C   -0.020266
     4  C   -0.175423
     5  H    0.075420
     6  H    0.069986
     7  H    0.059902
     8  H    0.047136
     9  H    0.059061
    10  H    0.092447
 Sum of Mulliken charges =   0.00000

 Dipole moment (field-independent basis, Debye):
    X=             -0.0232    Y=             -0.0147    Z=              0.1645  Tot=              0.1668
 Quadrupole moment (field-independent basis, Debye-Ang):
   XX=            -23.3161   YY=            -23.2220   ZZ=            -29.3334
   XY=              0.0213   XZ=             -0.2511   YZ=             -0.0357

 1\1\GINC-NODE35\SP\RB2PLYPD3-FC\def2QZVP\C4H6\BOITTIER\26-Aug-2020\0\\
 #p B2PLYPD3/Def2QZVP\\butadiene\\0,1\C,0,-3.84533,0.237075,0.027467\C,
 0,-2.738002,-0.519381,0.036652\C,0,-1.376599,0.047555,0.029214\C,0,-0.
 240178,-0.631125,0.023319\H,0,-4.863982,-0.217958,-0.076069\H,0,-3.848
 057,1.302783,-0.036545\H,0,-2.840415,-1.599578,0.063427\H,0,-1.27935,1
 .157972,-0.100332\H,0,-0.31013,-1.715121,0.062343\H,0,0.736095,-0.1678
 08,0.006091\\Version=ES64L-G09RevD.01\State=1-A\HF=-155.6963548\MP2=-1
 55.9223648\RMSD=5.692e-09\PG=C01 [X(C4H6)]\\@

 Normal termination of Gaussian 09 at Wed Aug 26 21:20:35 2020.
