 Gaussian 09, Revision D.01,
 Gaussian 09:  ES64L-G09RevD.01 24-Apr-2013

 --------------------
 #p B2PLYPD3/Def2QZVP
 --------------------

 ---------
 butadiene
 ---------
 Symbolic Z-matrix:
 Charge =  0 Multiplicity = 1

                         Standard orientation:
 ---------------------------------------------------------------------
 Center     Atomic      Atomic             Coordinates (Angstroms)
 Number     Number       Type             X           Y           Z
 ---------------------------------------------------------------------
      1          6           0       -1.841636   -0.130796   -0.043611
      2          6           0       -0.611075    0.420733    0.050858
      3          6           0        0.607510   -0.372908    0.007939
      4          6           0        1.849775    0.084553   -0.017216
      5          1           0       -2.672197    0.565298   -0.052852
      6          1           0       -2.043047   -1.200517    0.021962
      7          1           0       -0.471254    1.505354    0.050069
      8          1           0        0.412448   -1.473615    0.094136
      9          1           0        2.069036    1.145722   -0.042606
     10          1           0        2.677571   -0.551734   -0.058533
 ---------------------------------------------------------------------

 SCF Done:  E(RB2PLYPD3) =  -155.696443845     A.U. after   11 cycles
 E2(B2PLYPD3) =    -0.2260902940D+00 E(B2PLYPD3) =    -0.15592253413887D+03

 The electronic state is 1-A.
 Alpha  occ. eigenvalues --  -10.62926 -10.62627 -10.62022 -10.60970  -0.92814
 Alpha  occ. eigenvalues --   -0.84933  -0.70480  -0.63538  -0.54741  -0.53758
 Alpha  occ. eigenvalues --   -0.46958  -0.45659  -0.40721  -0.37951  -0.27700
 Alpha virt. eigenvalues --    0.01565   0.07027   0.07285   0.08083   0.09585
 Alpha virt. eigenvalues --    0.11623   0.12321   0.14895   0.15642   0.16179
 Alpha virt. eigenvalues --    0.18798   0.20072   0.21926   0.22759   0.23689

 Mulliken charges:
               1
     1  C   -0.173550
     2  C   -0.041197
     3  C   -0.015043
     4  C   -0.179852
     5  H    0.082330
     6  H    0.075456
     7  H    0.055438
     8  H    0.044900
     9  H    0.061670
    10  H    0.089848
 Sum of Mulliken charges =   0.00000

 Dipole moment (field-independent basis, Debye):
    X=             -0.0116    Y=              0.0233    Z=              0.0504  Tot=              0.0567
 Quadrupole moment (field-independent basis, Debye-Ang):
   XX=            -23.5224   YY=            -23.0781   ZZ=            -29.3030
   XY=              0.3498   XZ=             -0.1210   YZ=             -0.1424

 1\1\GINC-NODE15\SP\RB2PLYPD3-FC\def2QZVP\C4H6\BOITTIER\26-Aug-2020\0\\
 #p B2PLYPD3/Def2QZVP\\butadiene\\0,1\C,0,-3.838479,0.253058,0.056799\C
 ,0,-2.730417,-0.518147,-0.012698\C,0,-1.386713,0.039376,0.004135\C,0,-
 0.249433,-0.637053,0.050653\H,0,-4.782655,-0.277899,0.089665\H,0,-3.84
 0368,1.338316,-0.049877\H,0,-2.792048,-1.609186,0.029604\H,0,-1.37675,
 1.153127,-0.124303\H,0,-0.228578,-1.718707,0.116911\H,0,0.681236,-0.16
 2424,0.070564\\Version=ES64L-G09RevD.01\State=1-A\HF=-155.6964438\MP2=
 -155.9225341\RMSD=7.892e-09\PG=C01 [X(C4H6)]\\@

 Normal termination of Gaussian 09 at Wed Aug 26 11:11:40 2020.
