 Gaussian 09, Revision D.01,
 Gaussian 09:  ES64L-G09RevD.01 24-Apr-2013

 --------------------
 #p B2PLYPD3/Def2QZVP
 --------------------

 ---------
 butadiene
 ---------
 Symbolic Z-matrix:
 Charge =  0 Multiplicity = 1

                         Standard orientation:
 ---------------------------------------------------------------------
 Center     Atomic      Atomic             Coordinates (Angstroms)
 Number     Number       Type             X           Y           Z
 ---------------------------------------------------------------------
      1          6           0       -1.846034    0.101890    0.008074
      2          6           0       -0.611365   -0.384674   -0.019663
      3          6           0        0.620913    0.406863   -0.009335
      4          6           0        1.849479   -0.114030    0.016358
      5          1           0       -2.713408   -0.546066    0.009050
      6          1           0       -2.049104    1.163865    0.090395
      7          1           0       -0.468060   -1.456346   -0.050014
      8          1           0        0.481645    1.504705   -0.073238
      9          1           0        1.949258   -1.218334    0.061061
     10          1           0        2.721712    0.491878   -0.009857
 ---------------------------------------------------------------------

 SCF Done:  E(RB2PLYPD3) =  -155.700011007     A.U. after   11 cycles
 E2(B2PLYPD3) =    -0.2256666385D+00 E(B2PLYPD3) =    -0.15592567764505D+03

 The electronic state is 1-A.
 Alpha  occ. eigenvalues --  -10.62843 -10.62482 -10.61697 -10.61473  -0.92825
 Alpha  occ. eigenvalues --   -0.85076  -0.70098  -0.63683  -0.54888  -0.53583
 Alpha  occ. eigenvalues --   -0.47153  -0.45318  -0.40733  -0.38049  -0.27922
 Alpha virt. eigenvalues --    0.01809   0.07017   0.07352   0.08060   0.09656
 Alpha virt. eigenvalues --    0.11643   0.12405   0.14618   0.15830   0.16092
 Alpha virt. eigenvalues --    0.18835   0.20525   0.21449   0.22689   0.23802

 Mulliken charges:
               1
     1  C   -0.173751
     2  C   -0.027525
     3  C   -0.030945
     4  C   -0.175627
     5  H    0.085265
     6  H    0.065167
     7  H    0.052010
     8  H    0.049633
     9  H    0.062026
    10  H    0.093748
 Sum of Mulliken charges =   0.00000

 Dipole moment (field-independent basis, Debye):
    X=             -0.0009    Y=              0.0122    Z=              0.0108  Tot=              0.0163
 Quadrupole moment (field-independent basis, Debye-Ang):
   XX=            -23.3529   YY=            -23.2086   ZZ=            -29.2792
   XY=             -0.0589   XZ=             -0.1556   YZ=             -0.0125

 1\1\GINC-NODE38\SP\RB2PLYPD3-FC\def2QZVP\C4H6\BOITTIER\26-Aug-2020\0\\
 #p B2PLYPD3/Def2QZVP\\butadiene\\0,1\C,0,-3.852165,0.213617,0.028731\C
 ,0,-2.72404,-0.485754,0.017127\C,0,-1.370462,0.073509,0.003022\C,0,-0.
 254183,-0.656865,0.045907\H,0,-4.821049,-0.26909,0.049782\H,0,-3.86244
 4,1.29683,0.077209\H,0,-2.774031,-1.566229,0.020868\H,0,-1.312319,1.17
 6051,-0.095753\H,0,-0.352432,-1.759329,0.125674\H,0,0.711865,-0.217168
 ,0.000966\\Version=ES64L-G09RevD.01\State=1-A\HF=-155.700011\MP2=-155.
 9256776\RMSD=3.493e-09\PG=C01 [X(C4H6)]\\@

 Normal termination of Gaussian 09 at Wed Aug 26 21:37:23 2020.
