 Gaussian 09, Revision D.01,
 Gaussian 09:  ES64L-G09RevD.01 24-Apr-2013

 --------------------
 #p B2PLYPD3/Def2QZVP
 --------------------

 ---------
 butadiene
 ---------
 Symbolic Z-matrix:
 Charge =  0 Multiplicity = 1

                         Standard orientation:
 ---------------------------------------------------------------------
 Center     Atomic      Atomic             Coordinates (Angstroms)
 Number     Number       Type             X           Y           Z
 ---------------------------------------------------------------------
      1          6           0        1.821569   -0.125602    0.034900
      2          6           0        0.612483    0.409660   -0.023950
      3          6           0       -0.598289   -0.408560   -0.054742
      4          6           0       -1.823175    0.110118    0.017268
      5          1           0        2.662122    0.549093   -0.014094
      6          1           0        1.947994   -1.164416    0.139731
      7          1           0        0.474017    1.443941   -0.132182
      8          1           0       -0.493058   -1.483467   -0.074606
      9          1           0       -1.906443    1.220075    0.179681
     10          1           0       -2.760161   -0.478921    0.060607
 ---------------------------------------------------------------------

 SCF Done:  E(RB2PLYPD3) =  -155.696148220     A.U. after   11 cycles
 E2(B2PLYPD3) =    -0.2254800702D+00 E(B2PLYPD3) =    -0.15592162829050D+03

 The electronic state is 1-A.
 Alpha  occ. eigenvalues --  -10.62340 -10.62006 -10.61935 -10.60904  -0.93230
 Alpha  occ. eigenvalues --   -0.85050  -0.69571  -0.64553  -0.54408  -0.54117
 Alpha  occ. eigenvalues --   -0.46867  -0.45382  -0.41133  -0.38093  -0.27819
 Alpha virt. eigenvalues --    0.02064   0.07033   0.07449   0.08033   0.09408
 Alpha virt. eigenvalues --    0.11779   0.12419   0.14647   0.15659   0.16233
 Alpha virt. eigenvalues --    0.18608   0.20277   0.21372   0.22916   0.24018

 Mulliken charges:
               1
     1  C   -0.181264
     2  C   -0.030989
     3  C   -0.034628
     4  C   -0.169674
     5  H    0.083979
     6  H    0.075066
     7  H    0.064107
     8  H    0.055015
     9  H    0.053446
    10  H    0.084942
 Sum of Mulliken charges =   0.00000

 Dipole moment (field-independent basis, Debye):
    X=              0.0329    Y=             -0.0310    Z=              0.0947  Tot=              0.1049
 Quadrupole moment (field-independent basis, Debye-Ang):
   XX=            -23.8379   YY=            -23.0270   ZZ=            -29.1561
   XY=              0.0970   XZ=             -0.3362   YZ=             -0.0982

 1\1\GINC-NODE36\SP\RB2PLYPD3-FC\def2QZVP\C4H6\BOITTIER\26-Aug-2020\0\\
 #p B2PLYPD3/Def2QZVP\\butadiene\\0,1\C,0,-3.82147,0.229985,0.05062\C,0
 ,-2.72613,-0.511974,0.010823\C,0,-1.389724,0.07819,-0.03531\C,0,-0.275
 89,-0.646868,0.055359\H,0,-4.768113,-0.286487,0.01501\H,0,-3.76215,1.2
 77138,0.128452\H,0,-2.772798,-1.556884,-0.07047\H,0,-1.303169,1.153891
 ,-0.082953\H,0,-0.390252,-1.749493,0.246296\H,0,0.750514,-0.231872,0.0
 87926\\Version=ES64L-G09RevD.01\State=1-A\HF=-155.6961482\MP2=-155.921
 6283\RMSD=7.769e-09\PG=C01 [X(C4H6)]\\@

 Normal termination of Gaussian 09 at Wed Aug 26 09:28:23 2020.
