 Gaussian 09, Revision D.01,
 Gaussian 09:  ES64L-G09RevD.01 24-Apr-2013

 --------------------
 #p B2PLYPD3/Def2QZVP
 --------------------

 ---------
 butadiene
 ---------
 Symbolic Z-matrix:
 Charge =  0 Multiplicity = 1

                         Standard orientation:
 ---------------------------------------------------------------------
 Center     Atomic      Atomic             Coordinates (Angstroms)
 Number     Number       Type             X           Y           Z
 ---------------------------------------------------------------------
      1          6           0        1.871614   -0.103737    0.022131
      2          6           0        0.611575    0.363470   -0.040922
      3          6           0       -0.609360   -0.448977    0.036201
      4          6           0       -1.858106    0.119248   -0.031407
      5          1           0        2.485372    0.715123   -0.099838
      6          1           0        2.162436   -1.090745    0.164403
      7          1           0        0.471090    1.508472   -0.067711
      8          1           0       -0.445635   -1.494856   -0.150372
      9          1           0       -2.034031    1.231182    0.272417
     10          1           0       -2.733572   -0.449198   -0.034921
 ---------------------------------------------------------------------

 SCF Done:  E(RB2PLYPD3) =  -155.674210460     A.U. after   12 cycles
 E2(B2PLYPD3) =    -0.2278108477D+00 E(B2PLYPD3) =    -0.15590202130742D+03

 The electronic state is 1-A.
 Alpha  occ. eigenvalues --  -10.63328 -10.63274 -10.62684 -10.60615  -0.92358
 Alpha  occ. eigenvalues --   -0.84782  -0.70627  -0.63318  -0.54614  -0.54202
 Alpha  occ. eigenvalues --   -0.45761  -0.45712  -0.40766  -0.37515  -0.27429
 Alpha virt. eigenvalues --    0.00907   0.06941   0.07386   0.07947   0.08931
 Alpha virt. eigenvalues --    0.11476   0.12247   0.14947   0.15411   0.16312
 Alpha virt. eigenvalues --    0.18517   0.19313   0.21768   0.22610   0.24215

 Mulliken charges:
               1
     1  C   -0.186558
     2  C   -0.009977
     3  C   -0.054245
     4  C   -0.168079
     5  H    0.084171
     6  H    0.082225
     7  H    0.039530
     8  H    0.069652
     9  H    0.059742
    10  H    0.083540
 Sum of Mulliken charges =   0.00000

 Dipole moment (field-independent basis, Debye):
    X=             -0.0202    Y=             -0.1050    Z=              0.0999  Tot=              0.1464
 Quadrupole moment (field-independent basis, Debye-Ang):
   XX=            -23.9301   YY=            -22.9830   ZZ=            -29.3335
   XY=             -0.3973   XZ=             -0.1881   YZ=              0.2062

 1\1\GINC-NODE34\SP\RB2PLYPD3-FC\def2QZVP\C4H6\BOITTIER\26-Aug-2020\0\\
 #p B2PLYPD3/Def2QZVP\\butadiene\\0,1\C,0,-3.871975,0.226731,0.034552\C
 ,0,-2.720328,-0.467846,-0.000497\C,0,-1.369906,0.107599,0.04337\C,0,-0
 .248054,-0.684267,0.00853\H,0,-4.627076,-0.469401,-0.051064\H,0,-3.974
 673,1.256127,0.128359\H,0,-2.79408,-1.619036,0.02789\H,0,-1.338252,1.1
 55625,-0.193521\H,0,-0.279418,-1.793805,0.365737\H,0,0.717394,-0.28830
 4,-0.018091\\Version=ES64L-G09RevD.01\State=1-A\HF=-155.6742105\MP2=-1
 55.9020213\RMSD=3.637e-09\PG=C01 [X(C4H6)]\\@

 Normal termination of Gaussian 09 at Wed Aug 26 14:16:16 2020.
