 Gaussian 09, Revision D.01,
 Gaussian 09:  ES64L-G09RevD.01 24-Apr-2013

 --------------------
 #p B2PLYPD3/Def2QZVP
 --------------------

 ---------
 butadiene
 ---------
 Symbolic Z-matrix:
 Charge =  0 Multiplicity = 1

                         Standard orientation:
 ---------------------------------------------------------------------
 Center     Atomic      Atomic             Coordinates (Angstroms)
 Number     Number       Type             X           Y           Z
 ---------------------------------------------------------------------
      1          6           0       -1.820101    0.084093    0.013019
      2          6           0       -0.602312   -0.352016   -0.088466
      3          6           0        0.596814    0.441186   -0.015682
      4          6           0        1.830506   -0.142224    0.039473
      5          1           0       -2.650644   -0.605585    0.014368
      6          1           0       -2.028137    1.068466    0.384284
      7          1           0       -0.512916   -1.416255   -0.081120
      8          1           0        0.440271    1.569625   -0.196709
      9          1           0        1.930652   -1.176678    0.255991
     10          1           0        2.791330    0.374196   -0.066878
 ---------------------------------------------------------------------

 SCF Done:  E(RB2PLYPD3) =  -155.685342867     A.U. after   11 cycles
 E2(B2PLYPD3) =    -0.2263272339D+00 E(B2PLYPD3) =    -0.15591167010121D+03

 The electronic state is 1-A.
 Alpha  occ. eigenvalues --  -10.63777 -10.62155 -10.61550 -10.60551  -0.93421
 Alpha  occ. eigenvalues --   -0.84996  -0.70367  -0.63741  -0.54906  -0.53747
 Alpha  occ. eigenvalues --   -0.46784  -0.45369  -0.41001  -0.38001  -0.27545
 Alpha virt. eigenvalues --    0.01261   0.07079   0.07439   0.07855   0.09227
 Alpha virt. eigenvalues --    0.11627   0.12549   0.15071   0.15417   0.16543
 Alpha virt. eigenvalues --    0.18742   0.19607   0.21857   0.22405   0.23691

 Mulliken charges:
               1
     1  C   -0.164945
     2  C   -0.016306
     3  C   -0.044471
     4  C   -0.176631
     5  H    0.074984
     6  H    0.061181
     7  H    0.052471
     8  H    0.060062
     9  H    0.070117
    10  H    0.083538
 Sum of Mulliken charges =   0.00000

 Dipole moment (field-independent basis, Debye):
    X=              0.0683    Y=             -0.1355    Z=              0.2395  Tot=              0.2835
 Quadrupole moment (field-independent basis, Debye-Ang):
   XX=            -23.5263   YY=            -23.4546   ZZ=            -28.9645
   XY=             -0.1126   XZ=             -0.6473   YZ=             -0.1587

 1\1\GINC-NODE24\SP\RB2PLYPD3-FC\def2QZVP\C4H6\BOITTIER\26-Aug-2020\0\\
 #p B2PLYPD3/Def2QZVP\\butadiene\\0,1\C,0,-3.828339,0.193918,0.044637\C
 ,0,-2.710129,-0.458888,-0.038725\C,0,-1.387154,0.107953,-0.010492\C,0,
 -0.27781,-0.684689,0.070018\H,0,-4.769228,-0.333951,0.08391\H,0,-3.851
 4,1.216783,0.366077\H,0,-2.813374,-1.520138,0.022423\H,0,-1.340596,1.2
 35788,-0.248129\H,0,-0.362506,-1.708281,0.338514\H,0,0.758772,-0.35568
 3,-0.065758\\Version=ES64L-G09RevD.01\State=1-A\HF=-155.6853429\MP2=-1
 55.9116701\RMSD=8.698e-09\PG=C01 [X(C4H6)]\\@

 Normal termination of Gaussian 09 at Wed Aug 26 12:11:32 2020.
