 Gaussian 09, Revision D.01,
 Gaussian 09:  ES64L-G09RevD.01 24-Apr-2013

 --------------------
 #p B2PLYPD3/Def2QZVP
 --------------------

 ---------
 butadiene
 ---------
 Symbolic Z-matrix:
 Charge =  0 Multiplicity = 1

                         Standard orientation:
 ---------------------------------------------------------------------
 Center     Atomic      Atomic             Coordinates (Angstroms)
 Number     Number       Type             X           Y           Z
 ---------------------------------------------------------------------
      1          6           0       -1.831374   -0.126217   -0.044736
      2          6           0       -0.606467    0.421965    0.031669
      3          6           0        0.597920   -0.382073    0.000818
      4          6           0        1.836484    0.102891   -0.018892
      5          1           0       -2.780426    0.461665    0.035361
      6          1           0       -1.806217   -1.234687   -0.022287
      7          1           0       -0.497654    1.521214    0.087213
      8          1           0        0.445887   -1.448171    0.151886
      9          1           0        1.997612    1.139847   -0.054971
     10          1           0        2.661410   -0.539266   -0.010352
 ---------------------------------------------------------------------

 SCF Done:  E(RB2PLYPD3) =  -155.694078051     A.U. after   11 cycles
 E2(B2PLYPD3) =    -0.2262477974D+00 E(B2PLYPD3) =    -0.15592032584859D+03

 The electronic state is 1-A.
 Alpha  occ. eigenvalues --  -10.62764 -10.62376 -10.62292 -10.60682  -0.93175
 Alpha  occ. eigenvalues --   -0.84970  -0.69968  -0.63902  -0.54520  -0.54095
 Alpha  occ. eigenvalues --   -0.46549  -0.45360  -0.41481  -0.37957  -0.27672
 Alpha virt. eigenvalues --    0.01675   0.07071   0.07320   0.08000   0.09487
 Alpha virt. eigenvalues --    0.11693   0.12588   0.14554   0.15535   0.16241
 Alpha virt. eigenvalues --    0.18567   0.19916   0.21703   0.22851   0.24343

 Mulliken charges:
               1
     1  C   -0.169185
     2  C   -0.033397
     3  C   -0.019490
     4  C   -0.185619
     5  H    0.090413
     6  H    0.057647
     7  H    0.049707
     8  H    0.051144
     9  H    0.069365
    10  H    0.089416
 Sum of Mulliken charges =   0.00000

 Dipole moment (field-independent basis, Debye):
    X=              0.0454    Y=              0.0521    Z=              0.1917  Tot=              0.2037
 Quadrupole moment (field-independent basis, Debye-Ang):
   XX=            -23.5883   YY=            -23.1992   ZZ=            -29.2675
   XY=             -0.1921   XZ=             -0.1801   YZ=             -0.1073

 1\1\GINC-NODE40\SP\RB2PLYPD3-FC\def2QZVP\C4H6\BOITTIER\26-Aug-2020\0\\
 #p B2PLYPD3/Def2QZVP\\butadiene\\0,1\C,0,-3.831474,0.235392,0.054385\C
 ,0,-2.722854,-0.522842,0.001647\C,0,-1.395318,0.056453,0.008216\C,0,-0
 .261818,-0.638605,0.049344\H,0,-4.869655,-0.178116,-0.008159\H,0,-3.61
 1016,1.320497,-0.007156\H,0,-2.810042,-1.625297,-0.014619\H,0,-1.35711
 2,1.126615,-0.180977\H,0,-0.286252,-1.68578,0.122622\H,0,0.663522,-0.1
 52929,0.020958\\Version=ES64L-G09RevD.01\State=1-A\HF=-155.6940781\MP2
 =-155.9203258\RMSD=5.685e-09\PG=C01 [X(C4H6)]\\@

 Normal termination of Gaussian 09 at Wed Aug 26 08:53:45 2020.
