 Gaussian 09, Revision D.01,
 Gaussian 09:  ES64L-G09RevD.01 24-Apr-2013

 --------------------
 #p B2PLYPD3/Def2QZVP
 --------------------

 ---------
 butadiene
 ---------
 Symbolic Z-matrix:
 Charge =  0 Multiplicity = 1

                         Standard orientation:
 ---------------------------------------------------------------------
 Center     Atomic      Atomic             Coordinates (Angstroms)
 Number     Number       Type             X           Y           Z
 ---------------------------------------------------------------------
      1          6           0        1.838617    0.093658    0.000375
      2          6           0        0.591979   -0.386339   -0.008015
      3          6           0       -0.605606    0.410008   -0.030167
      4          6           0       -1.823983   -0.119407    0.015364
      5          1           0        2.715271   -0.544398    0.078564
      6          1           0        2.055951    1.158041    0.021199
      7          1           0        0.406013   -1.453314   -0.017799
      8          1           0       -0.477191    1.506437   -0.003982
      9          1           0       -1.992929   -1.175852   -0.020749
     10          1           0       -2.713159    0.521566    0.077430
 ---------------------------------------------------------------------

 SCF Done:  E(RB2PLYPD3) =  -155.699947280     A.U. after   11 cycles
 E2(B2PLYPD3) =    -0.2257847429D+00 E(B2PLYPD3) =    -0.15592573202290D+03

 The electronic state is 1-A.
 Alpha  occ. eigenvalues --  -10.62508 -10.62407 -10.61615 -10.61540  -0.93269
 Alpha  occ. eigenvalues --   -0.84847  -0.70317  -0.64011  -0.54673  -0.53828
 Alpha  occ. eigenvalues --   -0.46761  -0.45483  -0.40927  -0.38370  -0.27647
 Alpha virt. eigenvalues --    0.01668   0.06994   0.07362   0.08037   0.09684
 Alpha virt. eigenvalues --    0.11687   0.12432   0.14819   0.15809   0.16130
 Alpha virt. eigenvalues --    0.18767   0.20399   0.21881   0.22815   0.23584

 Mulliken charges:
               1
     1  C   -0.174433
     2  C   -0.029959
     3  C   -0.022647
     4  C   -0.176488
     5  H    0.083458
     6  H    0.063611
     7  H    0.053413
     8  H    0.052511
     9  H    0.067886
    10  H    0.082647
 Sum of Mulliken charges =   0.00000

 Dipole moment (field-independent basis, Debye):
    X=             -0.0418    Y=             -0.0051    Z=              0.0939  Tot=              0.1029
 Quadrupole moment (field-independent basis, Debye-Ang):
   XX=            -23.4391   YY=            -23.1742   ZZ=            -29.2418
   XY=              0.3265   XZ=              0.0791   YZ=              0.0777

 1\1\GINC-NODE32\SP\RB2PLYPD3-FC\def2QZVP\C4H6\BOITTIER\26-Aug-2020\0\\
 #p B2PLYPD3/Def2QZVP\\butadiene\\0,1\C,0,-3.842148,0.215258,0.013598\C
 ,0,-2.704974,-0.485181,0.041787\C,0,-1.381331,0.077701,0.039948\C,0,-0
 .281216,-0.667927,0.015861\H,0,-4.821435,-0.25304,-0.045108\H,0,-3.860
 182,1.300114,-0.044205\H,0,-2.718289,-1.567193,0.088559\H,0,-1.306091,
 1.177507,-0.024067\H,0,-0.30923,-1.735568,0.08854\H,0,0.710408,-0.2038
 52,-0.065672\\Version=ES64L-G09RevD.01\State=1-A\HF=-155.6999473\MP2=-
 155.925732\RMSD=3.005e-09\PG=C01 [X(C4H6)]\\@

 Normal termination of Gaussian 09 at Wed Aug 26 18:50:41 2020.
