 Gaussian 09, Revision D.01,
 Gaussian 09:  ES64L-G09RevD.01 24-Apr-2013

 --------------------
 #p B2PLYPD3/Def2QZVP
 --------------------

 ---------
 butadiene
 ---------
 Symbolic Z-matrix:
 Charge =  0 Multiplicity = 1

                         Standard orientation:
 ---------------------------------------------------------------------
 Center     Atomic      Atomic             Coordinates (Angstroms)
 Number     Number       Type             X           Y           Z
 ---------------------------------------------------------------------
      1          6           0       -1.850045    0.093990   -0.022637
      2          6           0       -0.606390   -0.379797    0.014780
      3          6           0        0.607892    0.410288    0.005114
      4          6           0        1.841081   -0.120957   -0.013450
      5          1           0       -2.712784   -0.511973   -0.014989
      6          1           0       -2.028799    1.155591    0.024444
      7          1           0       -0.446351   -1.459063    0.086798
      8          1           0        0.539134    1.494565    0.027825
      9          1           0        1.969259   -1.201850   -0.050918
     10          1           0        2.724316    0.501588    0.023995
 ---------------------------------------------------------------------

 SCF Done:  E(RB2PLYPD3) =  -155.700026556     A.U. after   11 cycles
 E2(B2PLYPD3) =    -0.2257188788D+00 E(B2PLYPD3) =    -0.15592574543507D+03

 The electronic state is 1-A.
 Alpha  occ. eigenvalues --  -10.62636 -10.62574 -10.61729 -10.61141  -0.92983
 Alpha  occ. eigenvalues --   -0.85000  -0.70422  -0.63973  -0.54923  -0.53975
 Alpha  occ. eigenvalues --   -0.46856  -0.45485  -0.41246  -0.38055  -0.27664
 Alpha virt. eigenvalues --    0.01583   0.07035   0.07453   0.08042   0.09684
 Alpha virt. eigenvalues --    0.11638   0.12533   0.14647   0.15865   0.16273
 Alpha virt. eigenvalues --    0.18859   0.20516   0.21654   0.22694   0.23742

 Mulliken charges:
               1
     1  C   -0.173472
     2  C   -0.029389
     3  C   -0.028705
     4  C   -0.176370
     5  H    0.088276
     6  H    0.062816
     7  H    0.051187
     8  H    0.053589
     9  H    0.064303
    10  H    0.087765
 Sum of Mulliken charges =   0.00000

 Dipole moment (field-independent basis, Debye):
    X=              0.0097    Y=              0.0189    Z=              0.1019  Tot=              0.1041
 Quadrupole moment (field-independent basis, Debye-Ang):
   XX=            -23.2658   YY=            -23.2139   ZZ=            -29.2516
   XY=             -0.0211   XZ=             -0.0549   YZ=              0.0557

 1\1\GINC-NODE06\SP\RB2PLYPD3-FC\def2QZVP\C4H6\BOITTIER\26-Aug-2020\0\\
 #p B2PLYPD3/Def2QZVP\\butadiene\\0,1\C,0,-3.855064,0.207096,-0.000398\
 C,0,-2.715911,-0.480099,0.051021\C,0,-1.380076,0.079822,0.021994\C,0,-
 0.26168,-0.663483,0.018954\H,0,-4.812132,-0.234583,0.022182\H,0,-3.841
 159,1.284416,0.018441\H,0,-2.750967,-1.568333,0.151681\H,0,-1.253979,1
 .159156,0.016008\H,0,-0.32876,-1.750491,0.010171\H,0,0.718674,-0.20797
 6,0.041039\\Version=ES64L-G09RevD.01\State=1-A\HF=-155.7000266\MP2=-15
 5.9257454\RMSD=5.193e-09\PG=C01 [X(C4H6)]\\@

 Normal termination of Gaussian 09 at Wed Aug 26 20:25:11 2020.
