 Gaussian 09, Revision D.01,
 Gaussian 09:  ES64L-G09RevD.01 24-Apr-2013

 --------------------
 #p B2PLYPD3/Def2QZVP
 --------------------

 ---------
 butadiene
 ---------
 Symbolic Z-matrix:
 Charge =  0 Multiplicity = 1

                         Standard orientation:
 ---------------------------------------------------------------------
 Center     Atomic      Atomic             Coordinates (Angstroms)
 Number     Number       Type             X           Y           Z
 ---------------------------------------------------------------------
      1          6           0       -1.834245   -0.115583   -0.006693
      2          6           0       -0.612780    0.401482   -0.000501
      3          6           0        0.609795   -0.410381    0.021982
      4          6           0        1.838060    0.116031   -0.015068
      5          1           0       -2.711270    0.537371   -0.037886
      6          1           0       -1.992636   -1.184255    0.025422
      7          1           0       -0.486252    1.469352    0.017297
      8          1           0        0.505626   -1.469631   -0.005534
      9          1           0        1.949083    1.183582    0.047477
     10          1           0        2.730466   -0.485717   -0.045099
 ---------------------------------------------------------------------

 SCF Done:  E(RB2PLYPD3) =  -155.700879305     A.U. after   11 cycles
 E2(B2PLYPD3) =    -0.2253368131D+00 E(B2PLYPD3) =    -0.15592621611789D+03

 The electronic state is 1-A.
 Alpha  occ. eigenvalues --  -10.62396 -10.62336 -10.61441 -10.61322  -0.92942
 Alpha  occ. eigenvalues --   -0.85062  -0.69814  -0.64473  -0.54469  -0.54161
 Alpha  occ. eigenvalues --   -0.46720  -0.45666  -0.41287  -0.38006  -0.27800
 Alpha virt. eigenvalues --    0.01977   0.07017   0.07492   0.08092   0.09480
 Alpha virt. eigenvalues --    0.11717   0.12478   0.14646   0.15831   0.16217
 Alpha virt. eigenvalues --    0.18761   0.20377   0.21589   0.23057   0.24006

 Mulliken charges:
               1
     1  C   -0.175154
     2  C   -0.031993
     3  C   -0.034265
     4  C   -0.175812
     5  H    0.083787
     6  H    0.068163
     7  H    0.057006
     8  H    0.058379
     9  H    0.063752
    10  H    0.086137
 Sum of Mulliken charges =   0.00000

 Dipole moment (field-independent basis, Debye):
    X=              0.0050    Y=             -0.0105    Z=              0.0199  Tot=              0.0230
 Quadrupole moment (field-independent basis, Debye-Ang):
   XX=            -23.5471   YY=            -23.0317   ZZ=            -29.2326
   XY=              0.0152   XZ=             -0.0138   YZ=              0.0706

 1\1\GINC-NODE18\SP\RB2PLYPD3-FC\def2QZVP\C4H6\BOITTIER\26-Aug-2020\0\\
 #p B2PLYPD3/Def2QZVP\\butadiene\\0,1\C,0,-3.837396,0.22162,0.025681\C,
 0,-2.726307,-0.502796,0.034202\C,0,-1.379765,0.079878,-0.006232\C,0,-0
 .263513,-0.653877,0.045759\H,0,-4.815754,-0.265425,0.071482\H,0,-3.804
 893,1.300362,-0.032956\H,0,-2.790168,-1.57635,0.042869\H,0,-1.295389,1
 .141244,-0.004936\H,0,-0.342702,-1.725478,0.009659\H,0,0.721119,-0.218
 432,0.062448\\Version=ES64L-G09RevD.01\State=1-A\HF=-155.7008793\MP2=-
 155.9262161\RMSD=4.321e-09\PG=C01 [X(C4H6)]\\@

 Normal termination of Gaussian 09 at Wed Aug 26 19:27:39 2020.
