 Gaussian 09, Revision D.01,
 Gaussian 09:  ES64L-G09RevD.01 24-Apr-2013

 --------------------
 #p B2PLYPD3/Def2QZVP
 --------------------

 ---------
 butadiene
 ---------
 Symbolic Z-matrix:
 Charge =  0 Multiplicity = 1

                         Standard orientation:
 ---------------------------------------------------------------------
 Center     Atomic      Atomic             Coordinates (Angstroms)
 Number     Number       Type             X           Y           Z
 ---------------------------------------------------------------------
      1          6           0       -1.833106   -0.104782    0.016841
      2          6           0       -0.589608    0.392112   -0.025508
      3          6           0        0.600531   -0.399825   -0.027307
      4          6           0        1.825028    0.109035    0.032883
      5          1           0       -2.738918    0.525819    0.070779
      6          1           0       -2.001673   -1.181766    0.018025
      7          1           0       -0.449823    1.476258   -0.060252
      8          1           0        0.498047   -1.475714   -0.032585
      9          1           0        1.968277    1.184837    0.011813
     10          1           0        2.707022   -0.508678    0.010757
 ---------------------------------------------------------------------

 SCF Done:  E(RB2PLYPD3) =  -155.700136004     A.U. after   11 cycles
 E2(B2PLYPD3) =    -0.2258507023D+00 E(B2PLYPD3) =    -0.15592598670665D+03

 The electronic state is 1-A.
 Alpha  occ. eigenvalues --  -10.62531 -10.62149 -10.61908 -10.61345  -0.93412
 Alpha  occ. eigenvalues --   -0.84850  -0.70188  -0.64074  -0.54705  -0.53892
 Alpha  occ. eigenvalues --   -0.46641  -0.45217  -0.41290  -0.38435  -0.27578
 Alpha virt. eigenvalues --    0.01626   0.07008   0.07389   0.07993   0.09765
 Alpha virt. eigenvalues --    0.11679   0.12485   0.14680   0.15839   0.16248
 Alpha virt. eigenvalues --    0.18750   0.20341   0.21718   0.22720   0.23763

 Mulliken charges:
               1
     1  C   -0.175402
     2  C   -0.028251
     3  C   -0.024450
     4  C   -0.173104
     5  H    0.084760
     6  H    0.063773
     7  H    0.052459
     8  H    0.053323
     9  H    0.061471
    10  H    0.085420
 Sum of Mulliken charges =   0.00000

 Dipole moment (field-independent basis, Debye):
    X=              0.0247    Y=             -0.0199    Z=             -0.0219  Tot=              0.0386
 Quadrupole moment (field-independent basis, Debye-Ang):
   XX=            -23.4424   YY=            -23.1823   ZZ=            -29.2464
   XY=              0.0541   XZ=             -0.1928   YZ=             -0.0050

 1\1\GINC-NODE19\SP\RB2PLYPD3-FC\def2QZVP\C4H6\BOITTIER\26-Aug-2020\0\\
 #p B2PLYPD3/Def2QZVP\\butadiene\\0,1\C,0,-3.836358,0.219322,-0.001711\
 C,0,-2.703429,-0.493162,0.060126\C,0,-1.389463,0.069648,0.041791\C,0,-
 0.27761,-0.654306,0.001438\H,0,-4.841577,-0.238032,-0.039447\H,0,-3.80
 6932,1.308468,-0.036447\H,0,-2.762386,-1.5831,0.128527\H,0,-1.295233,1
 .14594,0.013775\H,0,-0.331677,-1.73709,0.055928\H,0,0.701781,-0.206281
 ,0.00769\\Version=ES64L-G09RevD.01\State=1-A\HF=-155.700136\MP2=-155.9
 259867\RMSD=3.335e-09\PG=C01 [X(C4H6)]\\@

 Normal termination of Gaussian 09 at Wed Aug 26 18:53:55 2020.
