 Gaussian 09, Revision D.01,
 Gaussian 09:  ES64L-G09RevD.01 24-Apr-2013

 --------------------
 #p B2PLYPD3/Def2QZVP
 --------------------

 ---------
 butadiene
 ---------
 Symbolic Z-matrix:
 Charge =  0 Multiplicity = 1

                         Standard orientation:
 ---------------------------------------------------------------------
 Center     Atomic      Atomic             Coordinates (Angstroms)
 Number     Number       Type             X           Y           Z
 ---------------------------------------------------------------------
      1          6           0       -1.836242    0.115572   -0.020735
      2          6           0       -0.610966   -0.419421    0.011115
      3          6           0        0.604125    0.397503    0.014443
      4          6           0        1.841935   -0.101414   -0.007020
      5          1           0       -2.752626   -0.500865    0.024961
      6          1           0       -1.976402    1.206915   -0.086882
      7          1           0       -0.502816   -1.496526    0.080188
      8          1           0        0.452895    1.478655    0.115848
      9          1           0        2.073807   -1.159969   -0.078878
     10          1           0        2.712033    0.518353   -0.042055
 ---------------------------------------------------------------------

 SCF Done:  E(RB2PLYPD3) =  -155.699325901     A.U. after   11 cycles
 E2(B2PLYPD3) =    -0.2259676856D+00 E(B2PLYPD3) =    -0.15592529358700D+03

 The electronic state is 1-A.
 Alpha  occ. eigenvalues --  -10.62849 -10.62678 -10.62014 -10.61406  -0.92761
 Alpha  occ. eigenvalues --   -0.84770  -0.69916  -0.63972  -0.54616  -0.53585
 Alpha  occ. eigenvalues --   -0.46808  -0.45211  -0.40996  -0.37927  -0.27754
 Alpha virt. eigenvalues --    0.01789   0.07024   0.07359   0.07998   0.09405
 Alpha virt. eigenvalues --    0.11589   0.12450   0.14618   0.15786   0.16205
 Alpha virt. eigenvalues --    0.18841   0.20278   0.21790   0.22769   0.23540

 Mulliken charges:
               1
     1  C   -0.171282
     2  C   -0.035045
     3  C   -0.034012
     4  C   -0.172125
     5  H    0.083823
     6  H    0.063339
     7  H    0.060670
     8  H    0.058435
     9  H    0.063868
    10  H    0.082329
 Sum of Mulliken charges =   0.00000

 Dipole moment (field-independent basis, Debye):
    X=              0.0083    Y=             -0.0217    Z=              0.0244  Tot=              0.0337
 Quadrupole moment (field-independent basis, Debye-Ang):
   XX=            -23.3686   YY=            -23.1517   ZZ=            -29.3145
   XY=             -0.2359   XZ=             -0.1972   YZ=             -0.0137

 1\1\GINC-NODE12\SP\RB2PLYPD3-FC\def2QZVP\C4H6\BOITTIER\26-Aug-2020\0\\
 #p B2PLYPD3/Def2QZVP\\butadiene\\0,1\C,0,-3.83713,0.22995,0.001089\C,0
 ,-2.72826,-0.51614,0.048958\C,0,-1.385779,0.067939,0.028451\C,0,-0.258
 349,-0.646491,0.021969\H,0,-4.849401,-0.209477,0.06475\H,0,-3.77854,1.
 326284,-0.097239\H,0,-2.815752,-1.592616,0.149784\H,0,-1.339059,1.1611
 17,0.0979\H,0,-0.221524,-1.731141,-0.018596\H,0,0.709051,-0.195131,-0.
 031144\\Version=ES64L-G09RevD.01\State=1-A\HF=-155.6993259\MP2=-155.92
 52936\RMSD=2.710e-09\PG=C01 [X(C4H6)]\\@

 Normal termination of Gaussian 09 at Wed Aug 26 13:17:07 2020.
