 Gaussian 09, Revision D.01,
 Gaussian 09:  ES64L-G09RevD.01 24-Apr-2013

 --------------------
 #p B2PLYPD3/Def2QZVP
 --------------------

 ---------
 butadiene
 ---------
 Symbolic Z-matrix:
 Charge =  0 Multiplicity = 1

                         Standard orientation:
 ---------------------------------------------------------------------
 Center     Atomic      Atomic             Coordinates (Angstroms)
 Number     Number       Type             X           Y           Z
 ---------------------------------------------------------------------
      1          6           0        1.843829    0.108575    0.016868
      2          6           0        0.610285   -0.387220   -0.020557
      3          6           0       -0.611861    0.402684   -0.021231
      4          6           0       -1.833178   -0.121131    0.013956
      5          1           0        2.695219   -0.560515    0.047543
      6          1           0        2.004084    1.178736   -0.040647
      7          1           0        0.453613   -1.475319   -0.005710
      8          1           0       -0.517447    1.495460    0.042087
      9          1           0       -2.003490   -1.182554    0.003492
     10          1           0       -2.686424    0.526740    0.019018
 ---------------------------------------------------------------------

 SCF Done:  E(RB2PLYPD3) =  -155.700713809     A.U. after   11 cycles
 E2(B2PLYPD3) =    -0.2255199057D+00 E(B2PLYPD3) =    -0.15592623371444D+03

 The electronic state is 1-A.
 Alpha  occ. eigenvalues --  -10.62555 -10.62490 -10.61455 -10.61233  -0.93002
 Alpha  occ. eigenvalues --   -0.85157  -0.70091  -0.63737  -0.54446  -0.54190
 Alpha  occ. eigenvalues --   -0.46564  -0.45786  -0.40949  -0.38172  -0.27826
 Alpha virt. eigenvalues --    0.01859   0.07023   0.07367   0.08028   0.09681
 Alpha virt. eigenvalues --    0.11732   0.12341   0.14780   0.15764   0.16092
 Alpha virt. eigenvalues --    0.18751   0.20294   0.21612   0.22920   0.24007

 Mulliken charges:
               1
     1  C   -0.178597
     2  C   -0.028403
     3  C   -0.026612
     4  C   -0.177238
     5  H    0.088449
     6  H    0.069286
     7  H    0.049554
     8  H    0.050788
     9  H    0.067239
    10  H    0.085535
 Sum of Mulliken charges =   0.00000

 Dipole moment (field-independent basis, Debye):
    X=             -0.0384    Y=             -0.0043    Z=              0.0253  Tot=              0.0462
 Quadrupole moment (field-independent basis, Debye-Ang):
   XX=            -23.5907   YY=            -23.0393   ZZ=            -29.2462
   XY=              0.0861   XZ=             -0.0332   YZ=             -0.0177

 1\1\GINC-NODE10\SP\RB2PLYPD3-FC\def2QZVP\C4H6\BOITTIER\26-Aug-2020\0\\
 #p B2PLYPD3/Def2QZVP\\butadiene\\0,1\C,0,-3.846259,0.219374,0.000785\C
 ,0,-2.720617,-0.486963,0.054283\C,0,-1.377326,0.072271,0.033869\C,0,-0
 .268978,-0.661531,0.015577\H,0,-4.803319,-0.287939,-0.011752\H,0,-3.81
 3124,1.302168,0.027118\H,0,-2.760314,-1.585538,0.071114\H,0,-1.275827,
 1.162112,-0.061141\H,0,-0.290407,-1.735572,0.056957\H,0,0.685995,-0.17
 6445,-0.006991\\Version=ES64L-G09RevD.01\State=1-A\HF=-155.7007138\MP2
 =-155.9262337\RMSD=3.220e-09\PG=C01 [X(C4H6)]\\@

 Normal termination of Gaussian 09 at Wed Aug 26 09:04:02 2020.
