 Gaussian 09, Revision D.01,
 Gaussian 09:  ES64L-G09RevD.01 24-Apr-2013

 --------------------
 #p B2PLYPD3/Def2QZVP
 --------------------

 ---------
 butadiene
 ---------
 Symbolic Z-matrix:
 Charge =  0 Multiplicity = 1

                         Standard orientation:
 ---------------------------------------------------------------------
 Center     Atomic      Atomic             Coordinates (Angstroms)
 Number     Number       Type             X           Y           Z
 ---------------------------------------------------------------------
      1          6           0       -1.822201    0.089586   -0.016726
      2          6           0       -0.575066   -0.390343   -0.011728
      3          6           0        0.593960    0.414806    0.018463
      4          6           0        1.828683   -0.108072    0.006037
      5          1           0       -2.683853   -0.546835    0.029232
      6          1           0       -2.070746    1.171909   -0.042304
      7          1           0       -0.475706   -1.455246    0.138257
      8          1           0        0.387637    1.487342    0.049309
      9          1           0        1.964093   -1.206807   -0.122267
     10          1           0        2.726326    0.513768   -0.028504
 ---------------------------------------------------------------------

 SCF Done:  E(RB2PLYPD3) =  -155.696204824     A.U. after   11 cycles
 E2(B2PLYPD3) =    -0.2264117617D+00 E(B2PLYPD3) =    -0.15592261658587D+03

 The electronic state is 1-A.
 Alpha  occ. eigenvalues --  -10.62544 -10.62130 -10.62113 -10.61651  -0.93507
 Alpha  occ. eigenvalues --   -0.84578  -0.70331  -0.63953  -0.54855  -0.53459
 Alpha  occ. eigenvalues --   -0.46653  -0.45003  -0.41281  -0.38408  -0.27423
 Alpha virt. eigenvalues --    0.01429   0.07067   0.07281   0.08021   0.09537
 Alpha virt. eigenvalues --    0.11668   0.12424   0.14747   0.15600   0.16209
 Alpha virt. eigenvalues --    0.18671   0.20146   0.21888   0.22570   0.23891

 Mulliken charges:
               1
     1  C   -0.180411
     2  C   -0.018228
     3  C   -0.035283
     4  C   -0.170571
     5  H    0.082272
     6  H    0.057543
     7  H    0.057975
     8  H    0.056130
     9  H    0.065104
    10  H    0.085469
 Sum of Mulliken charges =   0.00000

 Dipole moment (field-independent basis, Debye):
    X=             -0.0385    Y=              0.0122    Z=              0.0223  Tot=              0.0462
 Quadrupole moment (field-independent basis, Debye-Ang):
   XX=            -23.5153   YY=            -23.2217   ZZ=            -29.2625
   XY=             -0.2113   XZ=             -0.4199   YZ=             -0.0518

 1\1\GINC-NODE39\SP\RB2PLYPD3-FC\def2QZVP\C4H6\BOITTIER\26-Aug-2020\0\\
 #p B2PLYPD3/Def2QZVP\\butadiene\\0,1\C,0,-3.828172,0.215224,0.008594\C
 ,0,-2.693529,-0.490409,0.027815\C,0,-1.393762,0.080906,0.029766\C,0,-0
 .279517,-0.665113,0.033011\H,0,-4.793754,-0.245854,0.076752\H,0,-3.868
 948,1.323583,-0.052477\H,0,-2.795058,-1.54958,0.212846\H,0,-1.394485,1
 .173533,0.025356\H,0,-0.354101,-1.773257,-0.059021\H,0,0.718758,-0.224
 753,-0.023301\\Version=ES64L-G09RevD.01\State=1-A\HF=-155.6962048\MP2=
 -155.9226166\RMSD=5.314e-09\PG=C01 [X(C4H6)]\\@

 Normal termination of Gaussian 09 at Wed Aug 26 09:16:34 2020.
