 Gaussian 09, Revision D.01,
 Gaussian 09:  ES64L-G09RevD.01 24-Apr-2013

 --------------------
 #p B2PLYPD3/Def2QZVP
 --------------------

 ---------
 butadiene
 ---------
 Symbolic Z-matrix:
 Charge =  0 Multiplicity = 1

                         Standard orientation:
 ---------------------------------------------------------------------
 Center     Atomic      Atomic             Coordinates (Angstroms)
 Number     Number       Type             X           Y           Z
 ---------------------------------------------------------------------
      1          6           0        1.860795    0.076104    0.038434
      2          6           0        0.602284   -0.334446   -0.094642
      3          6           0       -0.650343    0.437845   -0.050868
      4          6           0       -1.837753   -0.167348    0.052564
      5          1           0        2.673098   -0.631947    0.048539
      6          1           0        2.079284    1.176041    0.347063
      7          1           0        0.544748   -1.428256   -0.145474
      8          1           0       -0.591173    1.602804   -0.213961
      9          1           0       -1.931979   -1.279581    0.229316
     10          1           0       -2.623876    0.488010    0.061584
 ---------------------------------------------------------------------

 SCF Done:  E(RB2PLYPD3) =  -155.679775074     A.U. after   12 cycles
 E2(B2PLYPD3) =    -0.2270070322D+00 E(B2PLYPD3) =    -0.15590678210643D+03

 The electronic state is 1-A.
 Alpha  occ. eigenvalues --  -10.63870 -10.62580 -10.62029 -10.61666  -0.92545
 Alpha  occ. eigenvalues --   -0.85271  -0.69671  -0.62172  -0.54518  -0.53564
 Alpha  occ. eigenvalues --   -0.46409  -0.44805  -0.40330  -0.37765  -0.27991
 Alpha virt. eigenvalues --    0.01697   0.06992   0.07069   0.07682   0.09457
 Alpha virt. eigenvalues --    0.11395   0.12096   0.14626   0.15457   0.16306
 Alpha virt. eigenvalues --    0.18880   0.19850   0.21145   0.21723   0.23875

 Mulliken charges:
               1
     1  C   -0.173880
     2  C   -0.020141
     3  C   -0.045861
     4  C   -0.172970
     5  H    0.087698
     6  H    0.055864
     7  H    0.046141
     8  H    0.052504
     9  H    0.078650
    10  H    0.091994
 Sum of Mulliken charges =   0.00000

 Dipole moment (field-independent basis, Debye):
    X=             -0.1407    Y=             -0.0879    Z=              0.2196  Tot=              0.2752
 Quadrupole moment (field-independent basis, Debye-Ang):
   XX=            -24.0597   YY=            -23.0190   ZZ=            -29.2903
   XY=             -0.3920   XZ=              0.2706   YZ=             -0.0630

 1\1\GINC-NODE19\SP\RB2PLYPD3-FC\def2QZVP\C4H6\BOITTIER\26-Aug-2020\0\\
 #p B2PLYPD3/Def2QZVP\\butadiene\\0,1\C,0,-3.876066,0.17665,-0.029011\C
 ,0,-2.706539,-0.441175,0.114548\C,0,-1.340356,0.105607,0.06985\C,0,-0.
 273278,-0.694321,-0.021581\H,0,-4.797236,-0.382513,-0.036519\H,0,-3.90
 2584,1.294475,-0.349346\H,0,-2.83667,-1.528179,0.176206\H,0,-1.200438,
 1.265211,0.221411\H,0,-0.36961,-1.808097,-0.187125\H,0,0.613171,-0.182
 808,-0.032825\\Version=ES64L-G09RevD.01\State=1-A\HF=-155.6797751\MP2=
 -155.9067821\RMSD=2.797e-09\PG=C01 [X(C4H6)]\\@

 Normal termination of Gaussian 09 at Wed Aug 26 15:29:25 2020.
