 Gaussian 09, Revision D.01,
 Gaussian 09:  ES64L-G09RevD.01 24-Apr-2013

 --------------------
 #p B2PLYPD3/Def2QZVP
 --------------------

 ---------
 butadiene
 ---------
 Symbolic Z-matrix:
 Charge =  0 Multiplicity = 1

                         Standard orientation:
 ---------------------------------------------------------------------
 Center     Atomic      Atomic             Coordinates (Angstroms)
 Number     Number       Type             X           Y           Z
 ---------------------------------------------------------------------
      1          6           0        1.825451    0.069568   -0.079536
      2          6           0        0.560165   -0.384555    0.068141
      3          6           0       -0.577689    0.429199   -0.008837
      4          6           0       -1.795667   -0.123792   -0.043869
      5          1           0        2.755643   -0.535415    0.124785
      6          1           0        2.064402    1.145688   -0.119976
      7          1           0        0.282000   -1.385387    0.190798
      8          1           0       -0.485859    1.460712    0.281782
      9          1           0       -1.988162   -1.123933   -0.175084
     10          1           0       -2.701584    0.495814    0.082301
 ---------------------------------------------------------------------

 SCF Done:  E(RB2PLYPD3) =  -155.682898398     A.U. after   12 cycles
 E2(B2PLYPD3) =    -0.2267909135D+00 E(B2PLYPD3) =    -0.15590968931134D+03

 The electronic state is 1-A.
 Alpha  occ. eigenvalues --  -10.62377 -10.62047 -10.61888 -10.61318  -0.94128
 Alpha  occ. eigenvalues --   -0.84271  -0.70825  -0.65087  -0.54746  -0.53813
 Alpha  occ. eigenvalues --   -0.47087  -0.45381  -0.41230  -0.37889  -0.27322
 Alpha virt. eigenvalues --    0.00999   0.07113   0.07457   0.07855   0.09384
 Alpha virt. eigenvalues --    0.11681   0.12507   0.14976   0.15238   0.16420
 Alpha virt. eigenvalues --    0.18653   0.19587   0.22324   0.22778   0.23378

 Mulliken charges:
               1
     1  C   -0.160132
     2  C   -0.046786
     3  C   -0.014549
     4  C   -0.185775
     5  H    0.072724
     6  H    0.059152
     7  H    0.060023
     8  H    0.070372
     9  H    0.072187
    10  H    0.072785
 Sum of Mulliken charges =   0.00000

 Dipole moment (field-independent basis, Debye):
    X=             -0.1781    Y=             -0.0289    Z=              0.3835  Tot=              0.4238
 Quadrupole moment (field-independent basis, Debye-Ang):
   XX=            -23.5225   YY=            -23.4747   ZZ=            -29.0149
   XY=              0.7377   XZ=              0.1353   YZ=              0.1970

 1\1\GINC-NODE27\SP\RB2PLYPD3-FC\def2QZVP\C4H6\BOITTIER\26-Aug-2020\0\\
 #p B2PLYPD3/Def2QZVP\\butadiene\\0,1\C,0,-3.827556,0.211313,0.086756\C
 ,0,-2.675178,-0.486067,-0.034371\C,0,-1.400813,0.094714,0.00465\C,0,-0
 .312695,-0.681246,0.070849\H,0,-4.858678,-0.211496,-0.08939\H,0,-3.853
 395,1.313987,0.072277\H,0,-2.596874,-1.526676,-0.105688\H,0,-1.293289,
 1.108651,-0.337815\H,0,-0.316514,-1.691904,0.25281\H,0,0.69511,-0.2559
 17,-0.083878\\Version=ES64L-G09RevD.01\State=1-A\HF=-155.6828984\MP2=-
 155.9096893\RMSD=4.975e-09\PG=C01 [X(C4H6)]\\@

 Normal termination of Gaussian 09 at Wed Aug 26 12:06:59 2020.
