 Gaussian 09, Revision D.01,
 Gaussian 09:  ES64L-G09RevD.01 24-Apr-2013

 --------------------
 #p B2PLYPD3/Def2QZVP
 --------------------

 ---------
 butadiene
 ---------
 Symbolic Z-matrix:
 Charge =  0 Multiplicity = 1

                         Standard orientation:
 ---------------------------------------------------------------------
 Center     Atomic      Atomic             Coordinates (Angstroms)
 Number     Number       Type             X           Y           Z
 ---------------------------------------------------------------------
      1          6           0        1.848581   -0.113388   -0.020260
      2          6           0        0.605423    0.384555    0.026258
      3          6           0       -0.618283   -0.402039    0.005619
      4          6           0       -1.844750    0.115352   -0.031346
      5          1           0        2.704248    0.565294    0.001404
      6          1           0        2.033677   -1.165960   -0.066780
      7          1           0        0.481642    1.456181    0.072042
      8          1           0       -0.508513   -1.460745    0.106095
      9          1           0       -1.933212    1.197333   -0.038263
     10          1           0       -2.723674   -0.498987    0.043872
 ---------------------------------------------------------------------

 SCF Done:  E(RB2PLYPD3) =  -155.700285331     A.U. after   11 cycles
 E2(B2PLYPD3) =    -0.2255866475D+00 E(B2PLYPD3) =    -0.15592587197823D+03

 The electronic state is 1-A.
 Alpha  occ. eigenvalues --  -10.62511 -10.62230 -10.61579 -10.61435  -0.92995
 Alpha  occ. eigenvalues --   -0.85034  -0.70148  -0.64256  -0.54677  -0.53993
 Alpha  occ. eigenvalues --   -0.46747  -0.45776  -0.41264  -0.37965  -0.27751
 Alpha virt. eigenvalues --    0.01679   0.07002   0.07527   0.08032   0.09681
 Alpha virt. eigenvalues --    0.11715   0.12415   0.14711   0.15801   0.16117
 Alpha virt. eigenvalues --    0.18814   0.20434   0.21421   0.22692   0.24087

 Mulliken charges:
               1
     1  C   -0.179062
     2  C   -0.032005
     3  C   -0.029078
     4  C   -0.175986
     5  H    0.085393
     6  H    0.070382
     7  H    0.052449
     8  H    0.055489
     9  H    0.062705
    10  H    0.089712
 Sum of Mulliken charges =   0.00000

 Dipole moment (field-independent basis, Debye):
    X=             -0.0087    Y=             -0.0255    Z=              0.1281  Tot=              0.1309
 Quadrupole moment (field-independent basis, Debye-Ang):
   XX=            -23.5194   YY=            -23.1126   ZZ=            -29.2365
   XY=              0.0264   XZ=             -0.2487   YZ=             -0.0393

 1\1\GINC-NODE22\SP\RB2PLYPD3-FC\def2QZVP\C4H6\BOITTIER\26-Aug-2020\0\\
 #p B2PLYPD3/Def2QZVP\\butadiene\\0,1\C,0,-3.853168,0.220377,-0.002156\
 C,0,-2.71719,-0.487461,0.061657\C,0,-1.374022,0.070369,0.025064\C,0,-0
 .257988,-0.655841,0.005865\H,0,-4.815037,-0.296096,0.033987\H,0,-3.849
 892,1.287519,-0.076529\H,0,-2.784179,-1.562565,0.135567\H,0,-1.295366,
 1.134105,0.097748\H,0,-0.361623,-1.736285,0.027234\H,0,0.715534,-0.204
 253,0.068318\\Version=ES64L-G09RevD.01\State=1-A\HF=-155.7002853\MP2=-
 155.925872\RMSD=4.020e-09\PG=C01 [X(C4H6)]\\@

 Normal termination of Gaussian 09 at Wed Aug 26 22:01:49 2020.
