 Gaussian 09, Revision D.01,
 Gaussian 09:  ES64L-G09RevD.01 24-Apr-2013

 --------------------
 #p B2PLYPD3/Def2QZVP
 --------------------

 ---------
 butadiene
 ---------
 Symbolic Z-matrix:
 Charge =  0 Multiplicity = 1

                         Standard orientation:
 ---------------------------------------------------------------------
 Center     Atomic      Atomic             Coordinates (Angstroms)
 Number     Number       Type             X           Y           Z
 ---------------------------------------------------------------------
      1          6           0        1.823519    0.141980   -0.052408
      2          6           0        0.579313   -0.473558    0.045710
      3          6           0       -0.596656    0.359959    0.068191
      4          6           0       -1.812443   -0.089361   -0.098029
      5          1           0        2.860610   -0.327298   -0.070610
      6          1           0        1.854980    1.256152   -0.174360
      7          1           0        0.533488   -1.504170    0.312455
      8          1           0       -0.591170    1.468727    0.235108
      9          1           0       -1.994531   -1.107134   -0.203706
     10          1           0       -2.625769    0.579599    0.120334
 ---------------------------------------------------------------------

 SCF Done:  E(RB2PLYPD3) =  -155.679636656     A.U. after   12 cycles
 E2(B2PLYPD3) =    -0.2274055848D+00 E(B2PLYPD3) =    -0.15590704224097D+03

 The electronic state is 1-A.
 Alpha  occ. eigenvalues --  -10.63522 -10.63427 -10.62204 -10.60040  -0.93213
 Alpha  occ. eigenvalues --   -0.84460  -0.69561  -0.64103  -0.54907  -0.53687
 Alpha  occ. eigenvalues --   -0.46208  -0.44342  -0.41863  -0.37370  -0.27466
 Alpha virt. eigenvalues --    0.01294   0.07022   0.07361   0.07695   0.09283
 Alpha virt. eigenvalues --    0.11441   0.12531   0.14442   0.15457   0.16766
 Alpha virt. eigenvalues --    0.18821   0.19348   0.21553   0.22110   0.24024

 Mulliken charges:
               1
     1  C   -0.167931
     2  C   -0.064437
     3  C   -0.010236
     4  C   -0.167645
     5  H    0.080407
     6  H    0.059999
     7  H    0.080822
     8  H    0.053463
     9  H    0.060133
    10  H    0.075426
 Sum of Mulliken charges =   0.00000

 Dipole moment (field-independent basis, Debye):
    X=              0.0932    Y=             -0.0217    Z=              0.2922  Tot=              0.3074
 Quadrupole moment (field-independent basis, Debye-Ang):
   XX=            -23.6540   YY=            -23.2435   ZZ=            -29.1922
   XY=             -0.0202   XZ=             -0.4369   YZ=             -0.0343

 1\1\GINC-NODE15\SP\RB2PLYPD3-FC\def2QZVP\C4H6\BOITTIER\26-Aug-2020\0\\
 #p B2PLYPD3/Def2QZVP\\butadiene\\0,1\C,0,-3.821388,0.251522,0.073379\C
 ,0,-2.705133,-0.574262,-0.019459\C,0,-1.401122,0.039274,-0.055339\C,0,
 -0.282467,-0.614619,0.114042\H,0,-4.924706,-0.027932,0.099944\H,0,-3.6
 56061,1.355308,0.180917\H,0,-2.842281,-1.600115,-0.272895\H,0,-1.21245
 6,1.129593,-0.236631\H,0,-0.281564,-1.647162,0.23253\H,0,0.634765,-0.1
 01764,-0.114772\\Version=ES64L-G09RevD.01\State=1-A\HF=-155.6796367\MP
 2=-155.9070422\RMSD=5.250e-09\PG=C01 [X(C4H6)]\\@

 Normal termination of Gaussian 09 at Wed Aug 26 14:31:26 2020.
