 Gaussian 09, Revision D.01,
 Gaussian 09:  ES64L-G09RevD.01 24-Apr-2013

 --------------------
 #p B2PLYPD3/Def2QZVP
 --------------------

 ---------
 butadiene
 ---------
 Symbolic Z-matrix:
 Charge =  0 Multiplicity = 1

                         Standard orientation:
 ---------------------------------------------------------------------
 Center     Atomic      Atomic             Coordinates (Angstroms)
 Number     Number       Type             X           Y           Z
 ---------------------------------------------------------------------
      1          6           0        1.840991    0.121157    0.015920
      2          6           0        0.608824   -0.413596   -0.007740
      3          6           0       -0.603788    0.389700   -0.024756
      4          6           0       -1.841477   -0.109991    0.020197
      5          1           0        2.688192   -0.542949   -0.039280
      6          1           0        1.984909    1.198333    0.052687
      7          1           0        0.483842   -1.490705   -0.025843
      8          1           0       -0.442147    1.485800   -0.020929
      9          1           0       -2.057697   -1.137520    0.034105
     10          1           0       -2.684399    0.563418   -0.022475
 ---------------------------------------------------------------------

 SCF Done:  E(RB2PLYPD3) =  -155.699572086     A.U. after   11 cycles
 E2(B2PLYPD3) =    -0.2258564018D+00 E(B2PLYPD3) =    -0.15592542848793D+03

 The electronic state is 1-A.
 Alpha  occ. eigenvalues --  -10.62724 -10.62546 -10.61645 -10.61133  -0.92859
 Alpha  occ. eigenvalues --   -0.84886  -0.70263  -0.63972  -0.54629  -0.53889
 Alpha  occ. eigenvalues --   -0.46393  -0.46132  -0.41135  -0.37994  -0.27595
 Alpha virt. eigenvalues --    0.01658   0.06995   0.07386   0.08060   0.09566
 Alpha virt. eigenvalues --    0.11739   0.12339   0.14878   0.15832   0.15989
 Alpha virt. eigenvalues --    0.18766   0.20528   0.21559   0.22856   0.23898

 Mulliken charges:
               1
     1  C   -0.179622
     2  C   -0.032732
     3  C   -0.025523
     4  C   -0.179046
     5  H    0.087517
     6  H    0.069787
     7  H    0.055199
     8  H    0.050324
     9  H    0.071069
    10  H    0.083028
 Sum of Mulliken charges =   0.00000

 Dipole moment (field-independent basis, Debye):
    X=             -0.0053    Y=             -0.0412    Z=             -0.0402  Tot=              0.0578
 Quadrupole moment (field-independent basis, Debye-Ang):
   XX=            -23.6797   YY=            -22.9514   ZZ=            -29.3020
   XY=              0.2504   XZ=             -0.0346   YZ=              0.0533

 1\1\GINC-NODE15\SP\RB2PLYPD3-FC\def2QZVP\C4H6\BOITTIER\26-Aug-2020\0\\
 #p B2PLYPD3/Def2QZVP\\butadiene\\0,1\C,0,-3.840112,0.237352,0.002403\C
 ,0,-2.724711,-0.510143,0.045864\C,0,-1.386885,0.060965,0.038162\C,0,-0
 .260021,-0.655326,0.011891\H,0,-4.793083,-0.260569,0.078256\H,0,-3.787
 256,1.320994,-0.070397\H,0,-2.796262,-1.590913,0.099977\H,0,-1.347897,
 1.167497,-0.002374\H,0,-0.23302,-1.704901,0.032513\H,0,0.690851,-0.144
 257,0.03354\\Version=ES64L-G09RevD.01\State=1-A\HF=-155.6995721\MP2=-1
 55.9254285\RMSD=4.299e-09\PG=C01 [X(C4H6)]\\@

 Normal termination of Gaussian 09 at Wed Aug 26 21:26:22 2020.
