 Gaussian 09, Revision D.01,
 Gaussian 09:  ES64L-G09RevD.01 24-Apr-2013

 --------------------
 #p B2PLYPD3/Def2QZVP
 --------------------

 ---------
 butadiene
 ---------
 Symbolic Z-matrix:
 Charge =  0 Multiplicity = 1

                         Standard orientation:
 ---------------------------------------------------------------------
 Center     Atomic      Atomic             Coordinates (Angstroms)
 Number     Number       Type             X           Y           Z
 ---------------------------------------------------------------------
      1          6           0       -1.849762    0.107488    0.015853
      2          6           0       -0.612627   -0.399813   -0.017448
      3          6           0        0.618988    0.407683   -0.023021
      4          6           0        1.840585   -0.119381    0.004671
      5          1           0       -2.714827   -0.526799    0.047957
      6          1           0       -2.008697    1.181420    0.022202
      7          1           0       -0.457567   -1.447041   -0.022370
      8          1           0        0.516140    1.494956   -0.054373
      9          1           0        1.972276   -1.186803    0.005111
     10          1           0        2.709574    0.508401    0.121149
 ---------------------------------------------------------------------

 SCF Done:  E(RB2PLYPD3) =  -155.700549029     A.U. after   11 cycles
 E2(B2PLYPD3) =    -0.2254377386D+00 E(B2PLYPD3) =    -0.15592598676757D+03

 The electronic state is 1-A.
 Alpha  occ. eigenvalues --  -10.62609 -10.62436 -10.61500 -10.61310  -0.92780
 Alpha  occ. eigenvalues --   -0.85050  -0.70009  -0.64282  -0.54528  -0.54074
 Alpha  occ. eigenvalues --   -0.46816  -0.45838  -0.41183  -0.37853  -0.27810
 Alpha virt. eigenvalues --    0.01874   0.07010   0.07475   0.08116   0.09493
 Alpha virt. eigenvalues --    0.11706   0.12460   0.14646   0.15834   0.16143
 Alpha virt. eigenvalues --    0.18830   0.20428   0.21560   0.23057   0.23873

 Mulliken charges:
               1
     1  C   -0.175150
     2  C   -0.039211
     3  C   -0.027585
     4  C   -0.176442
     5  H    0.087357
     6  H    0.067050
     7  H    0.058818
     8  H    0.053980
     9  H    0.064676
    10  H    0.086508
 Sum of Mulliken charges =   0.00000

 Dipole moment (field-independent basis, Debye):
    X=              0.0079    Y=             -0.0114    Z=              0.0842  Tot=              0.0854
 Quadrupole moment (field-independent basis, Debye-Ang):
   XX=            -23.5203   YY=            -23.0531   ZZ=            -29.2461
   XY=             -0.0761   XZ=              0.1783   YZ=              0.0305

 1\1\GINC-NODE04\SP\RB2PLYPD3-FC\def2QZVP\C4H6\BOITTIER\26-Aug-2020\0\\
 #p B2PLYPD3/Def2QZVP\\butadiene\\0,1\C,0,-3.853216,0.219137,0.034059\C
 ,0,-2.725508,-0.499906,0.019341\C,0,-1.370409,0.076299,-0.006171\C,0,-
 0.261356,-0.657646,0.040609\H,0,-4.816833,-0.250779,0.082121\H,0,-3.81
 9506,1.30396,0.008487\H,0,-2.758301,-1.55773,0.045547\H,0,-1.279219,1.
 163211,-0.069651\H,0,-0.320712,-1.731042,0.072696\H,0,0.705303,-0.1904
 64,0.141267\\Version=ES64L-G09RevD.01\State=1-A\HF=-155.700549\MP2=-15
 5.9259868\RMSD=3.217e-09\PG=C01 [X(C4H6)]\\@

 Normal termination of Gaussian 09 at Wed Aug 26 18:50:43 2020.
