 Gaussian 09, Revision D.01,
 Gaussian 09:  ES64L-G09RevD.01 24-Apr-2013

 --------------------
 #p B2PLYPD3/Def2QZVP
 --------------------

 ---------
 butadiene
 ---------
 Symbolic Z-matrix:
 Charge =  0 Multiplicity = 1

                         Standard orientation:
 ---------------------------------------------------------------------
 Center     Atomic      Atomic             Coordinates (Angstroms)
 Number     Number       Type             X           Y           Z
 ---------------------------------------------------------------------
      1          6           0       -1.825522    0.107713   -0.067144
      2          6           0       -0.607595   -0.391978    0.075820
      3          6           0        0.597691    0.413038    0.131124
      4          6           0        1.784383   -0.123147   -0.089503
      5          1           0       -2.627168   -0.574706   -0.113066
      6          1           0       -1.922271    1.173548   -0.052577
      7          1           0       -0.390413   -1.450343    0.048353
      8          1           0        0.614708    1.565538   -0.057908
      9          1           0        2.003229   -1.233452   -0.028856
     10          1           0        2.628170    0.485654   -0.097727
 ---------------------------------------------------------------------

 SCF Done:  E(RB2PLYPD3) =  -155.683538402     A.U. after   11 cycles
 E2(B2PLYPD3) =    -0.2262063999D+00 E(B2PLYPD3) =    -0.15590974480163D+03

 The electronic state is 1-A.
 Alpha  occ. eigenvalues --  -10.62886 -10.62227 -10.61309 -10.60769  -0.93425
 Alpha  occ. eigenvalues --   -0.85461  -0.70109  -0.63125  -0.55014  -0.53850
 Alpha  occ. eigenvalues --   -0.46164  -0.45243  -0.40813  -0.38346  -0.27947
 Alpha virt. eigenvalues --    0.01961   0.07028   0.07210   0.08035   0.09189
 Alpha virt. eigenvalues --    0.11783   0.12367   0.14732   0.15284   0.16197
 Alpha virt. eigenvalues --    0.18791   0.19103   0.22350   0.23251   0.24392

 Mulliken charges:
               1
     1  C   -0.183553
     2  C   -0.027269
     3  C   -0.031290
     4  C   -0.158959
     5  H    0.092077
     6  H    0.075840
     7  H    0.054139
     8  H    0.046780
     9  H    0.053063
    10  H    0.079173
 Sum of Mulliken charges =   0.00000

 Dipole moment (field-independent basis, Debye):
    X=              0.1326    Y=             -0.0459    Z=             -0.1281  Tot=              0.1900
 Quadrupole moment (field-independent basis, Debye-Ang):
   XX=            -23.8696   YY=            -23.0382   ZZ=            -29.1636
   XY=              0.0636   XZ=             -0.0056   YZ=             -0.1950

 1\1\GINC-NODE35\SP\RB2PLYPD3-FC\def2QZVP\C4H6\BOITTIER\26-Aug-2020\0\\
 #p B2PLYPD3/Def2QZVP\\butadiene\\0,1\C,0,-3.823283,0.215149,-0.056373\
 C,0,-2.714351,-0.489503,0.108589\C,0,-1.383755,0.087221,0.135546\C,0,-
 0.313809,-0.66165,-0.061473\H,0,-4.734738,-0.313277,-0.077758\H,0,-3.7
 26813,1.280771,-0.083198\H,0,-2.691069,-1.56993,0.122513\H,0,-1.160747
 ,1.209759,-0.097809\H,0,-0.297813,-1.790047,0.042508\H,0,0.625615,-0.2
 15243,-0.091253\\Version=ES64L-G09RevD.01\State=1-A\HF=-155.6835384\MP
 2=-155.9097448\RMSD=6.096e-09\PG=C01 [X(C4H6)]\\@

 Normal termination of Gaussian 09 at Wed Aug 26 11:02:13 2020.
