 Gaussian 09, Revision D.01,
 Gaussian 09:  ES64L-G09RevD.01 24-Apr-2013

 --------------------
 #p B2PLYPD3/Def2QZVP
 --------------------

 ---------
 butadiene
 ---------
 Symbolic Z-matrix:
 Charge =  0 Multiplicity = 1

                         Standard orientation:
 ---------------------------------------------------------------------
 Center     Atomic      Atomic             Coordinates (Angstroms)
 Number     Number       Type             X           Y           Z
 ---------------------------------------------------------------------
      1          6           0        1.834478    0.098188    0.042245
      2          6           0        0.587835   -0.393915   -0.066682
      3          6           0       -0.584870    0.415971   -0.029563
      4          6           0       -1.823207   -0.122644    0.014920
      5          1           0        2.643019   -0.557905    0.081913
      6          1           0        1.950227    1.146804    0.045503
      7          1           0        0.425225   -1.453279   -0.028522
      8          1           0       -0.388054    1.496062   -0.068791
      9          1           0       -2.011986   -1.164654    0.090313
     10          1           0       -2.703843    0.547376    0.114069
 ---------------------------------------------------------------------

 SCF Done:  E(RB2PLYPD3) =  -155.695248604     A.U. after   11 cycles
 E2(B2PLYPD3) =    -0.2262559438D+00 E(B2PLYPD3) =    -0.15592150454748D+03

 The electronic state is 1-A.
 Alpha  occ. eigenvalues --  -10.62717 -10.61979 -10.61882 -10.60840  -0.93403
 Alpha  occ. eigenvalues --   -0.84641  -0.70709  -0.64420  -0.55104  -0.53635
 Alpha  occ. eigenvalues --   -0.47146  -0.45512  -0.41576  -0.38277  -0.27205
 Alpha virt. eigenvalues --    0.01343   0.07040   0.07391   0.08150   0.09499
 Alpha virt. eigenvalues --    0.11825   0.12438   0.14966   0.15637   0.16208
 Alpha virt. eigenvalues --    0.18623   0.20095   0.22005   0.23241   0.23798

 Mulliken charges:
               1
     1  C   -0.188329
     2  C   -0.017852
     3  C   -0.029163
     4  C   -0.180277
     5  H    0.091353
     6  H    0.067014
     7  H    0.052067
     8  H    0.053088
     9  H    0.073652
    10  H    0.078446
 Sum of Mulliken charges =   0.00000

 Dipole moment (field-independent basis, Debye):
    X=              0.0140    Y=             -0.0400    Z=              0.1536  Tot=              0.1593
 Quadrupole moment (field-independent basis, Debye-Ang):
   XX=            -23.8632   YY=            -22.9746   ZZ=            -29.2341
   XY=              0.2834   XZ=             -0.1507   YZ=             -0.1171

 1\1\GINC-NODE22\SP\RB2PLYPD3-FC\def2QZVP\C4H6\BOITTIER\26-Aug-2020\0\\
 #p B2PLYPD3/Def2QZVP\\butadiene\\0,1\C,0,-3.834571,0.223633,-0.023888\
 C,0,-2.701487,-0.490652,0.094712\C,0,-1.398227,0.084928,0.04226\C,0,-0
 .282517,-0.67639,0.00837\H,0,-4.751606,-0.270409,-0.051095\H,0,-3.7523
 33,1.275152,-0.047318\H,0,-2.73984,-1.562269,0.076947\H,0,-1.3896,1.18
 3317,0.060688\H,0,-0.292046,-1.736557,-0.04695\H,0,0.707472,-0.184769,
 -0.103469\\Version=ES64L-G09RevD.01\State=1-A\HF=-155.6952486\MP2=-155
 .9215045\RMSD=4.290e-09\PG=C01 [X(C4H6)]\\@

 Normal termination of Gaussian 09 at Wed Aug 26 22:21:40 2020.
