 Gaussian 09, Revision D.01,
 Gaussian 09:  ES64L-G09RevD.01 24-Apr-2013

 --------------------
 #p B2PLYPD3/Def2QZVP
 --------------------

 ---------
 butadiene
 ---------
 Symbolic Z-matrix:
 Charge =  0 Multiplicity = 1

                         Standard orientation:
 ---------------------------------------------------------------------
 Center     Atomic      Atomic             Coordinates (Angstroms)
 Number     Number       Type             X           Y           Z
 ---------------------------------------------------------------------
      1          6           0        1.838531   -0.153582   -0.032794
      2          6           0        0.626953    0.446108    0.078490
      3          6           0       -0.605353   -0.360204    0.010390
      4          6           0       -1.863500    0.063159   -0.028582
      5          1           0        2.665299    0.550000   -0.131357
      6          1           0        2.132491   -1.212542   -0.206155
      7          1           0        0.526707    1.519040    0.141740
      8          1           0       -0.477611   -1.387090    0.311396
      9          1           0       -2.154710    1.085237   -0.196043
     10          1           0       -2.671966   -0.527534   -0.084599
 ---------------------------------------------------------------------

 SCF Done:  E(RB2PLYPD3) =  -155.683039520     A.U. after   11 cycles
 E2(B2PLYPD3) =    -0.2262421874D+00 E(B2PLYPD3) =    -0.15590928170711D+03

 The electronic state is 1-A.
 Alpha  occ. eigenvalues --  -10.63338 -10.62461 -10.62323 -10.60324  -0.92522
 Alpha  occ. eigenvalues --   -0.85008  -0.70801  -0.64183  -0.55142  -0.53668
 Alpha  occ. eigenvalues --   -0.47781  -0.44787  -0.40872  -0.37136  -0.27817
 Alpha virt. eigenvalues --    0.01485   0.07045   0.07521   0.08018   0.09092
 Alpha virt. eigenvalues --    0.11267   0.12581   0.14936   0.15349   0.16476
 Alpha virt. eigenvalues --    0.18798   0.19802   0.22376   0.22543   0.23286

 Mulliken charges:
               1
     1  C   -0.161808
     2  C   -0.060352
     3  C   -0.032348
     4  C   -0.172725
     5  H    0.070985
     6  H    0.080865
     7  H    0.071708
     8  H    0.070189
     9  H    0.050566
    10  H    0.082920
 Sum of Mulliken charges =   0.00000

 Dipole moment (field-independent basis, Debye):
    X=              0.0365    Y=              0.0302    Z=             -0.1069  Tot=              0.1169
 Quadrupole moment (field-independent basis, Debye-Ang):
   XX=            -23.2750   YY=            -23.2258   ZZ=            -29.0711
   XY=             -0.4897   XZ=             -0.3099   YZ=             -0.1683

 1\1\GINC-NODE10\SP\RB2PLYPD3-FC\def2QZVP\C4H6\BOITTIER\26-Aug-2020\0\\
 #p B2PLYPD3/Def2QZVP\\butadiene\\0,1\C,0,-3.831539,0.26997,-0.019682\C
 ,0,-2.7498,-0.538098,0.109938\C,0,-1.390995,0.027667,0.026795\C,0,-0.2
 31412,-0.619211,0.002157\H,0,-4.773037,-0.272911,-0.104236\H,0,-3.9272
 61,1.360331,-0.219214\H,0,-2.847198,-1.609453,0.199071\H,0,-1.328662,1
 .067544,0.302816\H,0,-0.132011,-1.681012,-0.139922\H,0,0.671306,-0.187
 66,-0.065196\\Version=ES64L-G09RevD.01\State=1-A\HF=-155.6830395\MP2=-
 155.9092817\RMSD=9.132e-09\PG=C01 [X(C4H6)]\\@

 Normal termination of Gaussian 09 at Wed Aug 26 15:40:37 2020.
