 Gaussian 09, Revision D.01,
 Gaussian 09:  ES64L-G09RevD.01 24-Apr-2013

 --------------------
 #p B2PLYPD3/Def2QZVP
 --------------------

 ---------
 butadiene
 ---------
 Symbolic Z-matrix:
 Charge =  0 Multiplicity = 1

                         Standard orientation:
 ---------------------------------------------------------------------
 Center     Atomic      Atomic             Coordinates (Angstroms)
 Number     Number       Type             X           Y           Z
 ---------------------------------------------------------------------
      1          6           0        1.829769   -0.119126   -0.026925
      2          6           0        0.602740    0.424654    0.009018
      3          6           0       -0.603879   -0.391377    0.032243
      4          6           0       -1.842770    0.089142   -0.013246
      5          1           0        2.730718    0.499084   -0.018894
      6          1           0        1.990119   -1.200473   -0.006114
      7          1           0        0.442055    1.502573    0.086606
      8          1           0       -0.404796   -1.468683    0.047309
      9          1           0       -1.973620    1.178772   -0.046370
     10          1           0       -2.699636   -0.531025   -0.069071
 ---------------------------------------------------------------------

 SCF Done:  E(RB2PLYPD3) =  -155.699321989     A.U. after   11 cycles
 E2(B2PLYPD3) =    -0.2260134115D+00 E(B2PLYPD3) =    -0.15592533540073D+03

 The electronic state is 1-A.
 Alpha  occ. eigenvalues --  -10.62817 -10.62467 -10.61967 -10.61339  -0.92962
 Alpha  occ. eigenvalues --   -0.84780  -0.70099  -0.63876  -0.54875  -0.53385
 Alpha  occ. eigenvalues --   -0.47117  -0.45310  -0.40979  -0.38042  -0.27695
 Alpha virt. eigenvalues --    0.01746   0.07047   0.07256   0.08130   0.09474
 Alpha virt. eigenvalues --    0.11691   0.12461   0.14624   0.15760   0.16105
 Alpha virt. eigenvalues --    0.18730   0.20471   0.21581   0.23036   0.23652

 Mulliken charges:
               1
     1  C   -0.175260
     2  C   -0.032581
     3  C   -0.021824
     4  C   -0.178048
     5  H    0.083906
     6  H    0.066639
     7  H    0.055542
     8  H    0.049088
     9  H    0.060233
    10  H    0.092305
 Sum of Mulliken charges =   0.00000

 Dipole moment (field-independent basis, Debye):
    X=              0.0338    Y=             -0.0158    Z=              0.0199  Tot=              0.0423
 Quadrupole moment (field-independent basis, Debye-Ang):
   XX=            -23.5042   YY=            -23.1567   ZZ=            -29.3103
   XY=             -0.2122   XZ=              0.2817   YZ=              0.0512

 1\1\GINC-NODE03\SP\RB2PLYPD3-FC\def2QZVP\C4H6\BOITTIER\26-Aug-2020\0\\
 #p B2PLYPD3/Def2QZVP\\butadiene\\0,1\C,0,-3.830505,0.23739,-0.005508\C
 ,0,-2.723869,-0.520921,0.048434\C,0,-1.38789,0.060039,0.043902\C,0,-0.
 258509,-0.64099,0.014326\H,0,-4.829515,-0.204304,0.023534\H,0,-3.78959
 9,1.329883,-0.021067\H,0,-2.763187,-1.606856,0.162221\H,0,-1.385837,1.
 155483,0.022746\H,0,-0.330012,-1.736612,0.017865\H,0,0.69722,-0.19086,
 -0.062538\\Version=ES64L-G09RevD.01\State=1-A\HF=-155.699322\MP2=-155.
 9253354\RMSD=5.668e-09\PG=C01 [X(C4H6)]\\@

 Normal termination of Gaussian 09 at Wed Aug 26 16:32:41 2020.
