 Gaussian 09, Revision D.01,
 Gaussian 09:  ES64L-G09RevD.01 24-Apr-2013

 --------------------
 #p B2PLYPD3/Def2QZVP
 --------------------

 ---------
 butadiene
 ---------
 Symbolic Z-matrix:
 Charge =  0 Multiplicity = 1

                         Standard orientation:
 ---------------------------------------------------------------------
 Center     Atomic      Atomic             Coordinates (Angstroms)
 Number     Number       Type             X           Y           Z
 ---------------------------------------------------------------------
      1          6           0        1.845854   -0.079077    0.002425
      2          6           0        0.566509    0.378096   -0.062937
      3          6           0       -0.601480   -0.467470   -0.093162
      4          6           0       -1.826763    0.118891    0.042092
      5          1           0        2.656642    0.578809    0.230558
      6          1           0        2.055401   -1.077839    0.133667
      7          1           0        0.313112    1.416165    0.002485
      8          1           0       -0.431343   -1.533905    0.090082
      9          1           0       -1.753089    1.298969    0.047353
     10          1           0       -2.745437   -0.384838    0.165344
 ---------------------------------------------------------------------

 SCF Done:  E(RB2PLYPD3) =  -155.680589697     A.U. after   11 cycles
 E2(B2PLYPD3) =    -0.2280006335D+00 E(B2PLYPD3) =    -0.15590859033073D+03

 The electronic state is 1-A.
 Alpha  occ. eigenvalues --  -10.63138 -10.63034 -10.62738 -10.60951  -0.93102
 Alpha  occ. eigenvalues --   -0.84178  -0.70594  -0.64420  -0.55429  -0.52838
 Alpha  occ. eigenvalues --   -0.46850  -0.44809  -0.41861  -0.37857  -0.27124
 Alpha virt. eigenvalues --    0.00924   0.06916   0.07242   0.08219   0.08818
 Alpha virt. eigenvalues --    0.11699   0.12818   0.14414   0.15426   0.16422
 Alpha virt. eigenvalues --    0.18593   0.19669   0.21830   0.22672   0.24895

 Mulliken charges:
               1
     1  C   -0.175574
     2  C   -0.022281
     3  C   -0.028686
     4  C   -0.172456
     5  H    0.076231
     6  H    0.063816
     7  H    0.053385
     8  H    0.059628
     9  H    0.048901
    10  H    0.097037
 Sum of Mulliken charges =   0.00000

 Dipole moment (field-independent basis, Debye):
    X=             -0.1629    Y=             -0.0903    Z=              0.5318  Tot=              0.5635
 Quadrupole moment (field-independent basis, Debye-Ang):
   XX=            -23.8139   YY=            -23.3398   ZZ=            -29.3105
   XY=             -0.0998   XZ=              0.2898   YZ=             -0.1570

 1\1\GINC-NODE39\SP\RB2PLYPD3-FC\def2QZVP\C4H6\BOITTIER\26-Aug-2020\0\\
 #p B2PLYPD3/Def2QZVP\\butadiene\\0,1\C,0,-3.853232,0.205788,0.040425\C
 ,0,-2.683151,-0.485604,-0.013337\C,0,-1.377215,0.123889,-0.069385\C,0,
 -0.283189,-0.678527,0.081177\H,0,-4.771738,-0.281112,0.288442\H,0,-3.8
 70339,1.229422,0.143088\H,0,-2.629061,-1.550558,0.08166\H,0,-1.342543,
 1.208005,0.083258\H,0,-0.577434,-1.82304,0.120541\H,0,0.714623,-0.3534
 05,0.188707\\Version=ES64L-G09RevD.01\State=1-A\HF=-155.6805897\MP2=-1
 55.9085903\RMSD=7.693e-09\PG=C01 [X(C4H6)]\\@

 Normal termination of Gaussian 09 at Wed Aug 26 14:36:03 2020.
