 Gaussian 09, Revision D.01,
 Gaussian 09:  ES64L-G09RevD.01 24-Apr-2013

 --------------------
 #p B2PLYPD3/Def2QZVP
 --------------------

 ---------
 butadiene
 ---------
 Symbolic Z-matrix:
 Charge =  0 Multiplicity = 1

                         Standard orientation:
 ---------------------------------------------------------------------
 Center     Atomic      Atomic             Coordinates (Angstroms)
 Number     Number       Type             X           Y           Z
 ---------------------------------------------------------------------
      1          6           0       -1.797858   -0.141681    0.085058
      2          6           0       -0.606683    0.438681   -0.053155
      3          6           0        0.570991   -0.377887   -0.067818
      4          6           0        1.820966    0.070160    0.054519
      5          1           0       -2.703386    0.473792   -0.103116
      6          1           0       -1.920144   -1.242521    0.114342
      7          1           0       -0.499138    1.593184   -0.204306
      8          1           0        0.515733   -1.491910   -0.099752
      9          1           0        1.930118    1.165107    0.301311
     10          1           0        2.752326   -0.433288   -0.120112
 ---------------------------------------------------------------------

 SCF Done:  E(RB2PLYPD3) =  -155.682286933     A.U. after   11 cycles
 E2(B2PLYPD3) =    -0.2274433405D+00 E(B2PLYPD3) =    -0.15590973027310D+03

 The electronic state is 1-A.
 Alpha  occ. eigenvalues --  -10.63527 -10.62611 -10.62137 -10.61614  -0.93313
 Alpha  occ. eigenvalues --   -0.84724  -0.69490  -0.62917  -0.54439  -0.53556
 Alpha  occ. eigenvalues --   -0.46804  -0.43753  -0.40968  -0.37906  -0.27559
 Alpha virt. eigenvalues --    0.01385   0.06878   0.07121   0.07740   0.09425
 Alpha virt. eigenvalues --    0.11612   0.12503   0.14405   0.15581   0.16312
 Alpha virt. eigenvalues --    0.18509   0.19834   0.21635   0.21911   0.23736

 Mulliken charges:
               1
     1  C   -0.160078
     2  C   -0.037148
     3  C   -0.022702
     4  C   -0.173665
     5  H    0.077322
     6  H    0.068889
     7  H    0.059432
     8  H    0.051302
     9  H    0.043114
    10  H    0.093536
 Sum of Mulliken charges =   0.00000

 Dipole moment (field-independent basis, Debye):
    X=             -0.0206    Y=             -0.0512    Z=             -0.2015  Tot=              0.2089
 Quadrupole moment (field-independent basis, Debye-Ang):
   XX=            -23.7486   YY=            -23.2997   ZZ=            -29.2658
   XY=             -0.0592   XZ=              0.2943   YZ=             -0.0015

 1\1\GINC-NODE24\SP\RB2PLYPD3-FC\def2QZVP\C4H6\BOITTIER\26-Aug-2020\0\\
 #p B2PLYPD3/Def2QZVP\\butadiene\\0,1\C,0,-3.794294,0.242602,-0.058622\
 C,0,-2.725455,-0.5369,0.098796\C,0,-1.420291,0.054827,0.080885\C,0,-0.
 272091,-0.614595,-0.027093\H,0,-4.793923,-0.192978,0.154001\H,0,-3.717
 309,1.345708,-0.128545\H,0,-2.82553,-1.685702,0.292524\H,0,-1.274481,1
 .161069,0.07152\H,0,-0.363295,-1.719544,-0.233248\H,0,0.735946,-0.2806
 49,0.126951\\Version=ES64L-G09RevD.01\State=1-A\HF=-155.6822869\MP2=-1
 55.9097303\RMSD=8.373e-09\PG=C01 [X(C4H6)]\\@

 Normal termination of Gaussian 09 at Wed Aug 26 14:15:14 2020.
