 Gaussian 09, Revision D.01,
 Gaussian 09:  ES64L-G09RevD.01 24-Apr-2013

 --------------------
 #p B2PLYPD3/Def2QZVP
 --------------------

 ---------
 butadiene
 ---------
 Symbolic Z-matrix:
 Charge =  0 Multiplicity = 1

                         Standard orientation:
 ---------------------------------------------------------------------
 Center     Atomic      Atomic             Coordinates (Angstroms)
 Number     Number       Type             X           Y           Z
 ---------------------------------------------------------------------
      1          6           0       -1.824620   -0.133375    0.042286
      2          6           0       -0.603116    0.428361   -0.050744
      3          6           0        0.608321   -0.394883   -0.025860
      4          6           0        1.833555    0.099107    0.035036
      5          1           0       -2.774306    0.453641   -0.009164
      6          1           0       -1.992746   -1.161092    0.054011
      7          1           0       -0.521505    1.497181   -0.070128
      8          1           0        0.510749   -1.467040   -0.037131
      9          1           0        1.947755    1.199537    0.133727
     10          1           0        2.745210   -0.517486   -0.075625
 ---------------------------------------------------------------------

 SCF Done:  E(RB2PLYPD3) =  -155.695001894     A.U. after   11 cycles
 E2(B2PLYPD3) =    -0.2259475611D+00 E(B2PLYPD3) =    -0.15592094945504D+03

 The electronic state is 1-A.
 Alpha  occ. eigenvalues --  -10.62893 -10.62305 -10.61700 -10.61643  -0.92934
 Alpha  occ. eigenvalues --   -0.84830  -0.69652  -0.64480  -0.54613  -0.53652
 Alpha  occ. eigenvalues --   -0.46844  -0.44898  -0.41336  -0.37908  -0.27705
 Alpha virt. eigenvalues --    0.01801   0.06980   0.07489   0.07939   0.09369
 Alpha virt. eigenvalues --    0.11655   0.12535   0.14468   0.15944   0.16162
 Alpha virt. eigenvalues --    0.18871   0.20392   0.21427   0.22725   0.23814

 Mulliken charges:
               1
     1  C   -0.166589
     2  C   -0.043893
     3  C   -0.028274
     4  C   -0.172365
     5  H    0.072404
     6  H    0.069606
     7  H    0.065800
     8  H    0.059560
     9  H    0.057420
    10  H    0.086331
 Sum of Mulliken charges =   0.00000

 Dipole moment (field-independent basis, Debye):
    X=             -0.0538    Y=             -0.0553    Z=             -0.0619  Tot=              0.0989
 Quadrupole moment (field-independent basis, Debye-Ang):
   XX=            -23.5169   YY=            -23.1066   ZZ=            -29.2853
   XY=              0.0699   XZ=             -0.0666   YZ=              0.0977

 1\1\GINC-NODE21\SP\RB2PLYPD3-FC\def2QZVP\C4H6\BOITTIER\26-Aug-2020\0\\
 #p B2PLYPD3/Def2QZVP\\butadiene\\0,1\C,0,-3.826694,0.235391,-0.023606\
 C,0,-2.722544,-0.529578,0.085703\C,0,-1.385461,0.067305,0.042452\C,0,-
 0.266143,-0.63549,-0.003805\H,0,-4.864551,-0.1743,0.040772\H,0,-3.8118
 12,1.276044,-0.06136\H,0,-2.829793,-1.595302,0.131983\H,0,-1.29326,1.1
 39881,0.026704\H,0,-0.347164,-1.740992,-0.074712\H,0,0.739884,-0.18596
 6,0.093066\\Version=ES64L-G09RevD.01\State=1-A\HF=-155.6950019\MP2=-15
 5.9209495\RMSD=7.188e-09\PG=C01 [X(C4H6)]\\@

 Normal termination of Gaussian 09 at Wed Aug 26 09:42:48 2020.
