 Gaussian 09, Revision D.01,
 Gaussian 09:  ES64L-G09RevD.01 24-Apr-2013

 --------------------
 #p B2PLYPD3/Def2QZVP
 --------------------

 ---------
 butadiene
 ---------
 Symbolic Z-matrix:
 Charge =  0 Multiplicity = 1

                         Standard orientation:
 ---------------------------------------------------------------------
 Center     Atomic      Atomic             Coordinates (Angstroms)
 Number     Number       Type             X           Y           Z
 ---------------------------------------------------------------------
      1          6           0        1.844070    0.104614    0.009056
      2          6           0        0.604850   -0.383887   -0.016319
      3          6           0       -0.612924    0.404199   -0.026269
      4          6           0       -1.841881   -0.125108    0.020745
      5          1           0        2.705821   -0.540334    0.024879
      6          1           0        2.010596    1.159772    0.019800
      7          1           0        0.497153   -1.452532    0.037182
      8          1           0       -0.494925    1.478516   -0.006425
      9          1           0       -2.009438   -1.202884   -0.050683
     10          1           0       -2.673900    0.558546    0.051968
 ---------------------------------------------------------------------

 SCF Done:  E(RB2PLYPD3) =  -155.700397480     A.U. after   11 cycles
 E2(B2PLYPD3) =    -0.2255675166D+00 E(B2PLYPD3) =    -0.15592596499624D+03

 The electronic state is 1-A.
 Alpha  occ. eigenvalues --  -10.62501 -10.62195 -10.61673 -10.61178  -0.93022
 Alpha  occ. eigenvalues --   -0.85052  -0.70207  -0.64148  -0.54479  -0.54245
 Alpha  occ. eigenvalues --   -0.46526  -0.45869  -0.41283  -0.38099  -0.27669
 Alpha virt. eigenvalues --    0.01692   0.07004   0.07486   0.08049   0.09673
 Alpha virt. eigenvalues --    0.11741   0.12344   0.14783   0.15845   0.16096
 Alpha virt. eigenvalues --    0.18774   0.20402   0.21484   0.22885   0.24080

 Mulliken charges:
               1
     1  C   -0.179313
     2  C   -0.023501
     3  C   -0.036750
     4  C   -0.177670
     5  H    0.086553
     6  H    0.064161
     7  H    0.052885
     8  H    0.054667
     9  H    0.073245
    10  H    0.085723
 Sum of Mulliken charges =   0.00000

 Dipole moment (field-independent basis, Debye):
    X=             -0.0041    Y=              0.0108    Z=              0.0349  Tot=              0.0368
 Quadrupole moment (field-independent basis, Debye-Ang):
   XX=            -23.6217   YY=            -22.9990   ZZ=            -29.2433
   XY=              0.0374   XZ=              0.0886   YZ=              0.0621

 1\1\GINC-NODE15\SP\RB2PLYPD3-FC\def2QZVP\C4H6\BOITTIER\26-Aug-2020\0\\
 #p B2PLYPD3/Def2QZVP\\butadiene\\0,1\C,0,-3.848999,0.216058,0.005911\C
 ,0,-2.716467,-0.484195,0.050207\C,0,-1.377822,0.074404,0.038108\C,0,-0
 .262879,-0.666472,0.011332\H,0,-4.811846,-0.265337,0.008493\H,0,-3.825
 051,1.283112,-0.03909\H,0,-2.800904,-1.556098,0.031273\H,0,-1.30274,1.
 151371,-0.016474\H,0,-0.28965,-1.754013,0.117714\H,0,0.677456,-0.14322
 3,-0.03959\\Version=ES64L-G09RevD.01\State=1-A\HF=-155.7003975\MP2=-15
 5.925965\RMSD=5.091e-09\PG=C01 [X(C4H6)]\\@

 Normal termination of Gaussian 09 at Wed Aug 26 18:59:02 2020.
