 Gaussian 09, Revision D.01,
 Gaussian 09:  ES64L-G09RevD.01 24-Apr-2013

 --------------------
 #p B2PLYPD3/Def2QZVP
 --------------------

 ---------
 butadiene
 ---------
 Symbolic Z-matrix:
 Charge =  0 Multiplicity = 1

                         Standard orientation:
 ---------------------------------------------------------------------
 Center     Atomic      Atomic             Coordinates (Angstroms)
 Number     Number       Type             X           Y           Z
 ---------------------------------------------------------------------
      1          6           0        1.799297   -0.142849    0.002586
      2          6           0        0.588090    0.436268    0.031580
      3          6           0       -0.585546   -0.333528   -0.027986
      4          6           0       -1.835115    0.072589   -0.017019
      5          1           0        2.785160    0.407383   -0.057432
      6          1           0        1.983188   -1.226273    0.078349
      7          1           0        0.563453    1.573169   -0.132338
      8          1           0       -0.436246   -1.451794    0.002598
      9          1           0       -2.005152    1.108904    0.179459
     10          1           0       -2.690764   -0.606269   -0.005595
 ---------------------------------------------------------------------

 SCF Done:  E(RB2PLYPD3) =  -155.686490662     A.U. after   11 cycles
 E2(B2PLYPD3) =    -0.2268798952D+00 E(B2PLYPD3) =    -0.15591337055709D+03

 The electronic state is 1-A.
 Alpha  occ. eigenvalues --  -10.63255 -10.62637 -10.62227 -10.60957  -0.93778
 Alpha  occ. eigenvalues --   -0.84947  -0.70221  -0.63077  -0.54848  -0.53709
 Alpha  occ. eigenvalues --   -0.46757  -0.43925  -0.40577  -0.38912  -0.27572
 Alpha virt. eigenvalues --    0.01356   0.06998   0.07143   0.07722   0.09663
 Alpha virt. eigenvalues --    0.11575   0.12510   0.14628   0.15415   0.16598
 Alpha virt. eigenvalues --    0.18652   0.19624   0.22218   0.22674   0.23521

 Mulliken charges:
               1
     1  C   -0.163331
     2  C   -0.034261
     3  C   -0.010062
     4  C   -0.176303
     5  H    0.073766
     6  H    0.063206
     7  H    0.057580
     8  H    0.040847
     9  H    0.061252
    10  H    0.087306
 Sum of Mulliken charges =   0.00000

 Dipole moment (field-independent basis, Debye):
    X=              0.1537    Y=             -0.0590    Z=              0.0789  Tot=              0.1826
 Quadrupole moment (field-independent basis, Debye-Ang):
   XX=            -23.3465   YY=            -23.4316   ZZ=            -29.2222
   XY=             -0.0455   XZ=             -0.5066   YZ=             -0.1193

 1\1\GINC-NODE21\SP\RB2PLYPD3-FC\def2QZVP\C4H6\BOITTIER\26-Aug-2020\0\\
 #p B2PLYPD3/Def2QZVP\\butadiene\\0,1\C,0,-3.798836,0.253461,0.014923\C
 ,0,-2.712152,-0.534098,0.060844\C,0,-1.418674,0.010118,-0.004739\C,0,-
 0.26298,-0.614548,0.020469\H,0,-4.867658,-0.110822,-0.041648\H,0,-3.78
 434,1.353448,0.071325\H,0,-2.892693,-1.659496,-0.083739\H,0,-1.363741,
 1.137331,0.006108\H,0,-0.283355,-1.660903,0.23539\H,0,0.701123,-0.1011
 33,0.025515\\Version=ES64L-G09RevD.01\State=1-A\HF=-155.6864907\MP2=-1
 55.9133706\RMSD=6.612e-09\PG=C01 [X(C4H6)]\\@

 Normal termination of Gaussian 09 at Wed Aug 26 12:38:24 2020.
