 Gaussian 09, Revision D.01,
 Gaussian 09:  ES64L-G09RevD.01 24-Apr-2013

 --------------------
 #p B2PLYPD3/Def2QZVP
 --------------------

 ---------
 butadiene
 ---------
 Symbolic Z-matrix:
 Charge =  0 Multiplicity = 1

                         Standard orientation:
 ---------------------------------------------------------------------
 Center     Atomic      Atomic             Coordinates (Angstroms)
 Number     Number       Type             X           Y           Z
 ---------------------------------------------------------------------
      1          6           0        1.852540    0.095015    0.006720
      2          6           0        0.617529   -0.356257    0.006302
      3          6           0       -0.621491    0.402320   -0.001887
      4          6           0       -1.838624   -0.135644   -0.020150
      5          1           0        2.691398   -0.609665   -0.063370
      6          1           0        2.009863    1.168718   -0.090592
      7          1           0        0.474258   -1.403436    0.146772
      8          1           0       -0.514541    1.510230    0.085534
      9          1           0       -1.986842   -1.214432   -0.089205
     10          1           0       -2.733859    0.515980    0.064950
 ---------------------------------------------------------------------

 SCF Done:  E(RB2PLYPD3) =  -155.696351624     A.U. after   11 cycles
 E2(B2PLYPD3) =    -0.2256758235D+00 E(B2PLYPD3) =    -0.15592202744757D+03

 The electronic state is 1-A.
 Alpha  occ. eigenvalues --  -10.62823 -10.62046 -10.61869 -10.61434  -0.93165
 Alpha  occ. eigenvalues --   -0.85298  -0.69888  -0.63625  -0.54395  -0.53835
 Alpha  occ. eigenvalues --   -0.46884  -0.45411  -0.40619  -0.38070  -0.28099
 Alpha virt. eigenvalues --    0.01793   0.06961   0.07415   0.07888   0.09811
 Alpha virt. eigenvalues --    0.11728   0.12252   0.14713   0.15461   0.16061
 Alpha virt. eigenvalues --    0.18725   0.19767   0.21460   0.22817   0.24041

 Mulliken charges:
               1
     1  C   -0.177634
     2  C   -0.019552
     3  C   -0.034636
     4  C   -0.175580
     5  H    0.088302
     6  H    0.063488
     7  H    0.052736
     8  H    0.047115
     9  H    0.069566
    10  H    0.086195
 Sum of Mulliken charges =   0.00000

 Dipole moment (field-independent basis, Debye):
    X=             -0.0624    Y=             -0.0443    Z=              0.0334  Tot=              0.0835
 Quadrupole moment (field-independent basis, Debye-Ang):
   XX=            -23.6240   YY=            -23.2130   ZZ=            -29.1978
   XY=             -0.0406   XZ=             -0.3786   YZ=              0.0380

 1\1\GINC-NODE21\SP\RB2PLYPD3-FC\def2QZVP\C4H6\BOITTIER\26-Aug-2020\0\\
 #p B2PLYPD3/Def2QZVP\\butadiene\\0,1\C,0,-3.858642,0.201997,0.015742\C
 ,0,-2.721569,-0.458146,0.029\C,0,-1.368988,0.07184,0.011266\C,0,-0.264
 55,-0.669929,0.04516\H,0,-4.807272,-0.342509,0.109465\H,0,-3.825161,1.
 289176,0.078817\H,0,-2.764546,-1.518117,-0.078043\H,0,-1.281203,1.1780
 85,-0.111458\H,0,-0.306738,-1.75531,0.148541\H,0,0.730209,-0.187968,-0
 .061939\\Version=ES64L-G09RevD.01\State=1-A\HF=-155.6963516\MP2=-155.9
 220274\RMSD=5.545e-09\PG=C01 [X(C4H6)]\\@

 Normal termination of Gaussian 09 at Wed Aug 26 09:47:05 2020.
