 Gaussian 09, Revision D.01,
 Gaussian 09:  ES64L-G09RevD.01 24-Apr-2013

 --------------------
 #p B2PLYPD3/Def2QZVP
 --------------------

 ---------
 butadiene
 ---------
 Symbolic Z-matrix:
 Charge =  0 Multiplicity = 1

                         Standard orientation:
 ---------------------------------------------------------------------
 Center     Atomic      Atomic             Coordinates (Angstroms)
 Number     Number       Type             X           Y           Z
 ---------------------------------------------------------------------
      1          6           0        1.843063    0.104260    0.014341
      2          6           0        0.607088   -0.405075   -0.012049
      3          6           0       -0.599354    0.416941    0.000120
      4          6           0       -1.837258   -0.119760    0.001920
      5          1           0        2.688950   -0.535275   -0.034825
      6          1           0        1.991970    1.179908    0.024164
      7          1           0        0.446820   -1.443177   -0.037882
      8          1           0       -0.499910    1.497320   -0.012531
      9          1           0       -1.996062   -1.189098    0.081236
     10          1           0       -2.713000    0.512133   -0.046155
 ---------------------------------------------------------------------

 SCF Done:  E(RB2PLYPD3) =  -155.699876810     A.U. after   11 cycles
 E2(B2PLYPD3) =    -0.2257786881D+00 E(B2PLYPD3) =    -0.15592565549801D+03

 The electronic state is 1-A.
 Alpha  occ. eigenvalues --  -10.62699 -10.62202 -10.61656 -10.61304  -0.92861
 Alpha  occ. eigenvalues --   -0.84747  -0.70132  -0.64517  -0.54595  -0.53983
 Alpha  occ. eigenvalues --   -0.46469  -0.45973  -0.41585  -0.37882  -0.27498
 Alpha virt. eigenvalues --    0.01680   0.07033   0.07462   0.08141   0.09392
 Alpha virt. eigenvalues --    0.11731   0.12426   0.14715   0.15964   0.16069
 Alpha virt. eigenvalues --    0.18764   0.20576   0.21451   0.23052   0.23958

 Mulliken charges:
               1
     1  C   -0.176424
     2  C   -0.035554
     3  C   -0.031653
     4  C   -0.180487
     5  H    0.087264
     6  H    0.067440
     7  H    0.061522
     8  H    0.056876
     9  H    0.066763
    10  H    0.084250
 Sum of Mulliken charges =   0.00000

 Dipole moment (field-independent basis, Debye):
    X=             -0.0092    Y=             -0.0161    Z=             -0.0305  Tot=              0.0357
 Quadrupole moment (field-independent basis, Debye-Ang):
   XX=            -23.6404   YY=            -22.9514   ZZ=            -29.2921
   XY=              0.1120   XZ=             -0.0927   YZ=             -0.0530

 1\1\GINC-NODE21\SP\RB2PLYPD3-FC\def2QZVP\C4H6\BOITTIER\26-Aug-2020\0\\
 #p B2PLYPD3/Def2QZVP\\butadiene\\0,1\C,0,-3.84451,0.220299,0.00673\C,0
 ,-2.720712,-0.50301,0.047419\C,0,-1.385741,0.087055,0.015242\C,0,-0.26
 5091,-0.664229,0.028456\H,0,-4.791772,-0.254509,0.071539\H,0,-3.796806
 ,1.304547,-0.030938\H,0,-2.750404,-1.551985,0.100135\H,0,-1.28845,1.16
 7596,-0.000034\H,0,-0.302252,-1.746333,-0.023138\H,0,0.710515,-0.19984
 5,0.061082\\Version=ES64L-G09RevD.01\State=1-A\HF=-155.6998768\MP2=-15
 5.9256555\RMSD=4.128e-09\PG=C01 [X(C4H6)]\\@

 Normal termination of Gaussian 09 at Wed Aug 26 16:25:43 2020.
