 Gaussian 09, Revision D.01,
 Gaussian 09:  ES64L-G09RevD.01 24-Apr-2013

 --------------------
 #p B2PLYPD3/Def2QZVP
 --------------------

 ---------
 butadiene
 ---------
 Symbolic Z-matrix:
 Charge =  0 Multiplicity = 1

                         Standard orientation:
 ---------------------------------------------------------------------
 Center     Atomic      Atomic             Coordinates (Angstroms)
 Number     Number       Type             X           Y           Z
 ---------------------------------------------------------------------
      1          6           0        1.812777    0.085580   -0.013315
      2          6           0        0.585798   -0.353024    0.025921
      3          6           0       -0.589648    0.428063    0.042839
      4          6           0       -1.816759   -0.128957   -0.055144
      5          1           0        2.579762   -0.637498    0.006942
      6          1           0        2.052201    1.175154   -0.372396
      7          1           0        0.390894   -1.467440    0.217098
      8          1           0       -0.508508    1.551112    0.355042
      9          1           0       -1.757790   -1.244255   -0.124750
     10          1           0       -2.709566    0.432954   -0.083742
 ---------------------------------------------------------------------

 SCF Done:  E(RB2PLYPD3) =  -155.675186329     A.U. after   11 cycles
 E2(B2PLYPD3) =    -0.2274953513D+00 E(B2PLYPD3) =    -0.15590268168001D+03

 The electronic state is 1-A.
 Alpha  occ. eigenvalues --  -10.63085 -10.62369 -10.61989 -10.61520  -0.93789
 Alpha  occ. eigenvalues --   -0.85115  -0.70228  -0.61951  -0.55119  -0.53081
 Alpha  occ. eigenvalues --   -0.46816  -0.44397  -0.41039  -0.37775  -0.27740
 Alpha virt. eigenvalues --    0.01448   0.06672   0.07325   0.07690   0.09266
 Alpha virt. eigenvalues --    0.11599   0.12365   0.14674   0.15108   0.16110
 Alpha virt. eigenvalues --    0.18379   0.19533   0.21206   0.22288   0.24132

 Mulliken charges:
               1
     1  C   -0.178489
     2  C   -0.017035
     3  C   -0.031683
     4  C   -0.181384
     5  H    0.084467
     6  H    0.069400
     7  H    0.039766
     8  H    0.057239
     9  H    0.057733
    10  H    0.099987
 Sum of Mulliken charges =   0.00000

 Dipole moment (field-independent basis, Debye):
    X=             -0.0949    Y=             -0.0384    Z=              0.0191  Tot=              0.1041
 Quadrupole moment (field-independent basis, Debye-Ang):
   XX=            -24.0098   YY=            -23.4766   ZZ=            -29.0598
   XY=             -0.3389   XZ=             -0.3772   YZ=             -0.1736

 1\1\GINC-NODE40\SP\RB2PLYPD3-FC\def2QZVP\C4H6\BOITTIER\26-Aug-2020\0\\
 #p B2PLYPD3/Def2QZVP\\butadiene\\0,1\C,0,-3.820051,0.198394,0.038878\C
 ,0,-2.694265,-0.458191,0.009043\C,0,-1.396019,0.093898,-0.033521\C,0,-
 0.290665,-0.675258,0.07722\H,0,-4.70642,-0.372448,0.041523\H,0,-3.8534
 39,1.322957,0.367023\H,0,-2.707862,-1.594343,-0.150433\H,0,-1.272972,1
 .203695,-0.377765\H,0,-0.551953,-1.758567,0.179118\H,0,0.690009,-0.285
 585,0.087226\\Version=ES64L-G09RevD.01\State=1-A\HF=-155.6751863\MP2=-
 155.9026817\RMSD=8.420e-09\PG=C01 [X(C4H6)]\\@

 Normal termination of Gaussian 09 at Wed Aug 26 15:19:02 2020.
