 Gaussian 09, Revision D.01,
 Gaussian 09:  ES64L-G09RevD.01 24-Apr-2013

 --------------------
 #p B2PLYPD3/Def2QZVP
 --------------------

 ---------
 butadiene
 ---------
 Symbolic Z-matrix:
 Charge =  0 Multiplicity = 1

                         Standard orientation:
 ---------------------------------------------------------------------
 Center     Atomic      Atomic             Coordinates (Angstroms)
 Number     Number       Type             X           Y           Z
 ---------------------------------------------------------------------
      1          6           0       -1.858775    0.089072   -0.045785
      2          6           0       -0.617240   -0.375324    0.060470
      3          6           0        0.603034    0.414311    0.030724
      4          6           0        1.842868   -0.120677   -0.016840
      5          1           0       -2.680456   -0.552249   -0.049814
      6          1           0       -2.089987    1.110328    0.027154
      7          1           0       -0.386233   -1.429039   -0.026805
      8          1           0        0.538236    1.516441   -0.007866
      9          1           0        2.060925   -1.180565   -0.026342
     10          1           0        2.738195    0.490794   -0.087737
 ---------------------------------------------------------------------

 SCF Done:  E(RB2PLYPD3) =  -155.695855909     A.U. after   11 cycles
 E2(B2PLYPD3) =    -0.2258329612D+00 E(B2PLYPD3) =    -0.15592168887006D+03

 The electronic state is 1-A.
 Alpha  occ. eigenvalues --  -10.63018 -10.62546 -10.61883 -10.60797  -0.92857
 Alpha  occ. eigenvalues --   -0.84960  -0.70944  -0.64065  -0.55087  -0.53922
 Alpha  occ. eigenvalues --   -0.46993  -0.45746  -0.40841  -0.38043  -0.27673
 Alpha virt. eigenvalues --    0.01409   0.07025   0.07509   0.08114   0.09529
 Alpha virt. eigenvalues --    0.11598   0.12573   0.14863   0.15687   0.16357
 Alpha virt. eigenvalues --    0.18944   0.20050   0.22095   0.23150   0.23458

 Mulliken charges:
               1
     1  C   -0.170596
     2  C   -0.033045
     3  C   -0.029432
     4  C   -0.174696
     5  H    0.084422
     6  H    0.069413
     7  H    0.057712
     8  H    0.052987
     9  H    0.062221
    10  H    0.081014
 Sum of Mulliken charges =   0.00000

 Dipole moment (field-independent basis, Debye):
    X=              0.0176    Y=              0.0026    Z=             -0.0838  Tot=              0.0856
 Quadrupole moment (field-independent basis, Debye-Ang):
   XX=            -23.0621   YY=            -23.2870   ZZ=            -29.2294
   XY=             -0.4081   XZ=             -0.2203   YZ=              0.0831

 1\1\GINC-NODE06\SP\RB2PLYPD3-FC\def2QZVP\C4H6\BOITTIER\26-Aug-2020\0\\
 #p B2PLYPD3/Def2QZVP\\butadiene\\0,1\C,0,-3.860389,0.210195,-0.025734\
 C,0,-2.724127,-0.470954,0.089621\C,0,-1.380302,0.081761,0.043623\C,0,-
 0.259206,-0.671523,0.00662\H,0,-4.785375,-0.270206,-0.016596\H,0,-3.90
 0933,1.257746,0.026568\H,0,-2.689768,-1.550659,0.023643\H,0,-1.2429,1.
 176199,-0.017255\H,0,-0.238401,-1.753386,0.018527\H,0,0.732443,-0.2354
 03,-0.076841\\Version=ES64L-G09RevD.01\State=1-A\HF=-155.6958559\MP2=-
 155.9216889\RMSD=4.774e-09\PG=C01 [X(C4H6)]\\@

 Normal termination of Gaussian 09 at Wed Aug 26 10:39:28 2020.
