 Gaussian 09, Revision D.01,
 Gaussian 09:  ES64L-G09RevD.01 24-Apr-2013

 --------------------
 #p B2PLYPD3/Def2QZVP
 --------------------

 ---------
 butadiene
 ---------
 Symbolic Z-matrix:
 Charge =  0 Multiplicity = 1

                         Standard orientation:
 ---------------------------------------------------------------------
 Center     Atomic      Atomic             Coordinates (Angstroms)
 Number     Number       Type             X           Y           Z
 ---------------------------------------------------------------------
      1          6           0       -1.852634    0.110441   -0.014663
      2          6           0       -0.616672   -0.390119    0.024204
      3          6           0        0.619195    0.398115    0.015089
      4          6           0        1.845217   -0.112232   -0.026545
      5          1           0       -2.687911   -0.559960   -0.047178
      6          1           0       -2.014642    1.185834   -0.009655
      7          1           0       -0.467760   -1.460050    0.006993
      8          1           0        0.481694    1.498550    0.049494
      9          1           0        1.951553   -1.187581    0.043156
     10          1           0        2.766430    0.485979   -0.031324
 ---------------------------------------------------------------------

 SCF Done:  E(RB2PLYPD3) =  -155.699692928     A.U. after   11 cycles
 E2(B2PLYPD3) =    -0.2257373353D+00 E(B2PLYPD3) =    -0.15592543026372D+03

 The electronic state is 1-A.
 Alpha  occ. eigenvalues --  -10.62779 -10.62556 -10.61679 -10.61536  -0.92840
 Alpha  occ. eigenvalues --   -0.85095  -0.69984  -0.63762  -0.54567  -0.53796
 Alpha  occ. eigenvalues --   -0.46957  -0.45571  -0.40739  -0.38021  -0.27921
 Alpha virt. eigenvalues --    0.01801   0.06991   0.07381   0.08037   0.09648
 Alpha virt. eigenvalues --    0.11669   0.12419   0.14590   0.15811   0.16090
 Alpha virt. eigenvalues --    0.18811   0.20456   0.21425   0.22840   0.23899

 Mulliken charges:
               1
     1  C   -0.178472
     2  C   -0.030663
     3  C   -0.025818
     4  C   -0.172140
     5  H    0.090186
     6  H    0.069447
     7  H    0.051078
     8  H    0.046870
     9  H    0.061125
    10  H    0.088388
 Sum of Mulliken charges =   0.00000

 Dipole moment (field-independent basis, Debye):
    X=              0.0071    Y=             -0.0164    Z=              0.0390  Tot=              0.0429
 Quadrupole moment (field-independent basis, Debye-Ang):
   XX=            -23.3990   YY=            -23.2042   ZZ=            -29.2951
   XY=             -0.0304   XZ=              0.1849   YZ=              0.0024

 1\1\GINC-NODE24\SP\RB2PLYPD3-FC\def2QZVP\C4H6\BOITTIER\26-Aug-2020\0\\
 #p B2PLYPD3/Def2QZVP\\butadiene\\0,1\C,0,-3.855692,0.21955,0.001473\C,
 0,-2.727414,-0.489986,0.058221\C,0,-1.371846,0.067202,0.031051\C,0,-0.
 255223,-0.652465,0.007572\H,0,-4.796238,-0.293564,-0.014984\H,0,-3.825
 343,1.306366,-0.024038\H,0,-2.769712,-1.569459,0.071339\H,0,-1.312901,
 1.175156,0.034305\H,0,-0.340229,-1.727319,0.107583\H,0,0.757101,-0.226
 59,-0.010964\\Version=ES64L-G09RevD.01\State=1-A\HF=-155.6996929\MP2=-
 155.9254303\RMSD=4.752e-09\PG=C01 [X(C4H6)]\\@

 Normal termination of Gaussian 09 at Wed Aug 26 16:31:13 2020.
