 Gaussian 09, Revision D.01,
 Gaussian 09:  ES64L-G09RevD.01 24-Apr-2013

 --------------------
 #p B2PLYPD3/Def2QZVP
 --------------------

 ---------
 butadiene
 ---------
 Symbolic Z-matrix:
 Charge =  0 Multiplicity = 1

                         Standard orientation:
 ---------------------------------------------------------------------
 Center     Atomic      Atomic             Coordinates (Angstroms)
 Number     Number       Type             X           Y           Z
 ---------------------------------------------------------------------
      1          6           0        1.833717    0.119058    0.026692
      2          6           0        0.617769   -0.407225   -0.022860
      3          6           0       -0.602333    0.377385   -0.024947
      4          6           0       -1.838132   -0.107903    0.012721
      5          1           0        2.726154   -0.511877   -0.013694
      6          1           0        1.955493    1.220038    0.003983
      7          1           0        0.457332   -1.479427    0.023411
      8          1           0       -0.498741    1.459263   -0.017878
      9          1           0       -2.025717   -1.154857   -0.004082
     10          1           0       -2.680648    0.578966    0.058626
 ---------------------------------------------------------------------

 SCF Done:  E(RB2PLYPD3) =  -155.699848100     A.U. after   11 cycles
 E2(B2PLYPD3) =    -0.2255103165D+00 E(B2PLYPD3) =    -0.15592535841669D+03

 The electronic state is 1-A.
 Alpha  occ. eigenvalues --  -10.62406 -10.62208 -10.61865 -10.61192  -0.93177
 Alpha  occ. eigenvalues --   -0.85147  -0.69974  -0.63965  -0.54415  -0.54064
 Alpha  occ. eigenvalues --   -0.46705  -0.45570  -0.40899  -0.38283  -0.27869
 Alpha virt. eigenvalues --    0.01860   0.06977   0.07401   0.08017   0.09758
 Alpha virt. eigenvalues --    0.11754   0.12337   0.14733   0.15697   0.16121
 Alpha virt. eigenvalues --    0.18730   0.20244   0.21528   0.22735   0.24185

 Mulliken charges:
               1
     1  C   -0.169902
     2  C   -0.036420
     3  C   -0.017478
     4  C   -0.182709
     5  H    0.087148
     6  H    0.064987
     7  H    0.054029
     8  H    0.047858
     9  H    0.067145
    10  H    0.085342
 Sum of Mulliken charges =   0.00000

 Dipole moment (field-independent basis, Debye):
    X=              0.0101    Y=             -0.0190    Z=              0.0083  Tot=              0.0231
 Quadrupole moment (field-independent basis, Debye-Ang):
   XX=            -23.6185   YY=            -23.0863   ZZ=            -29.2319
   XY=              0.0471   XZ=             -0.1879   YZ=              0.0126

 1\1\GINC-NODE26\SP\RB2PLYPD3-FC\def2QZVP\C4H6\BOITTIER\26-Aug-2020\0\\
 #p B2PLYPD3/Def2QZVP\\butadiene\\0,1\C,0,-3.833658,0.229709,-0.006954\
 C,0,-2.730657,-0.50313,0.058576\C,0,-1.390319,0.051237,0.037607\C,0,-0
 .260924,-0.64738,0.014739\H,0,-4.823987,-0.230647,0.051977\H,0,-3.7572
 7,1.334953,-0.01709\H,0,-2.763995,-1.58765,0.044313\H,0,-1.299592,1.13
 3578,-0.00172\H,0,-0.262733,-1.710052,0.062777\H,0,0.690218,-0.123276,
 -0.051388\\Version=ES64L-G09RevD.01\State=1-A\HF=-155.6998481\MP2=-155
 .9253584\RMSD=3.237e-09\PG=C01 [X(C4H6)]\\@

 Normal termination of Gaussian 09 at Wed Aug 26 10:19:45 2020.
