 Gaussian 09, Revision D.01,
 Gaussian 09:  ES64L-G09RevD.01 24-Apr-2013

 --------------------
 #p B2PLYPD3/Def2QZVP
 --------------------

 ---------
 butadiene
 ---------
 Symbolic Z-matrix:
 Charge =  0 Multiplicity = 1

                         Standard orientation:
 ---------------------------------------------------------------------
 Center     Atomic      Atomic             Coordinates (Angstroms)
 Number     Number       Type             X           Y           Z
 ---------------------------------------------------------------------
      1          6           0       -1.830326    0.107885    0.027134
      2          6           0       -0.615297   -0.417381   -0.041477
      3          6           0        0.594624    0.389903   -0.015157
      4          6           0        1.845765   -0.104666   -0.002422
      5          1           0       -2.766300   -0.455307    0.114518
      6          1           0       -1.844420    1.261853   -0.027202
      7          1           0       -0.466557   -1.516113   -0.014259
      8          1           0        0.423400    1.458675   -0.078037
      9          1           0        2.010398   -1.157752    0.010354
     10          1           0        2.674884    0.554202    0.186157
 ---------------------------------------------------------------------

 SCF Done:  E(RB2PLYPD3) =  -155.693225354     A.U. after   11 cycles
 E2(B2PLYPD3) =    -0.2265735051D+00 E(B2PLYPD3) =    -0.15591979885868D+03

 The electronic state is 1-A.
 Alpha  occ. eigenvalues --  -10.62728 -10.62661 -10.62406 -10.61400  -0.93063
 Alpha  occ. eigenvalues --   -0.84829  -0.69820  -0.63686  -0.54665  -0.53392
 Alpha  occ. eigenvalues --   -0.46843  -0.45014  -0.41048  -0.38041  -0.27714
 Alpha virt. eigenvalues --    0.01651   0.06983   0.07223   0.08044   0.09419
 Alpha virt. eigenvalues --    0.11682   0.12520   0.14414   0.15527   0.16230
 Alpha virt. eigenvalues --    0.18616   0.19777   0.21656   0.22840   0.24174

 Mulliken charges:
               1
     1  C   -0.167206
     2  C   -0.026402
     3  C   -0.025698
     4  C   -0.179879
     5  H    0.094528
     6  H    0.050530
     7  H    0.047453
     8  H    0.052975
     9  H    0.067451
    10  H    0.086249
 Sum of Mulliken charges =   0.00000

 Dipole moment (field-independent basis, Debye):
    X=             -0.0543    Y=             -0.0584    Z=              0.1473  Tot=              0.1675
 Quadrupole moment (field-independent basis, Debye-Ang):
   XX=            -23.6590   YY=            -23.2522   ZZ=            -29.3102
   XY=              0.0893   XZ=              0.2256   YZ=             -0.0779

 1\1\GINC-NODE03\SP\RB2PLYPD3-FC\def2QZVP\C4H6\BOITTIER\26-Aug-2020\0\\
 #p B2PLYPD3/Def2QZVP\\butadiene\\0,1\C,0,-3.832049,0.223162,0.044573\C
 ,0,-2.731287,-0.513818,-0.001152\C,0,-1.395989,0.063484,0.001955\C,0,-
 0.253994,-0.646982,0.036607\H,0,-4.853744,-0.159418,0.147732\H,0,-3.63
 8785,1.358313,-0.04964\H,0,-2.78224,-1.619784,0.064572\H,0,-1.372621,1
 .142796,-0.098462\H,0,-0.281148,-1.711426,0.086383\H,0,0.680429,-0.141
 583,0.205526\\Version=ES64L-G09RevD.01\State=1-A\HF=-155.6932254\MP2=-
 155.9197989\RMSD=7.726e-09\PG=C01 [X(C4H6)]\\@

 Normal termination of Gaussian 09 at Wed Aug 26 22:22:42 2020.
