 Gaussian 09, Revision D.01,
 Gaussian 09:  ES64L-G09RevD.01 24-Apr-2013

 --------------------
 #p B2PLYPD3/Def2QZVP
 --------------------

 ---------
 butadiene
 ---------
 Symbolic Z-matrix:
 Charge =  0 Multiplicity = 1

                         Standard orientation:
 ---------------------------------------------------------------------
 Center     Atomic      Atomic             Coordinates (Angstroms)
 Number     Number       Type             X           Y           Z
 ---------------------------------------------------------------------
      1          6           0       -1.844138    0.117601   -0.027734
      2          6           0       -0.602142   -0.406507    0.035016
      3          6           0        0.615645    0.367886    0.064285
      4          6           0        1.845047   -0.113095   -0.051297
      5          1           0       -2.782622   -0.461897   -0.083262
      6          1           0       -1.983091    1.207713   -0.035556
      7          1           0       -0.587238   -1.474894    0.049725
      8          1           0        0.514572    1.462899   -0.001804
      9          1           0        2.101715   -1.128213   -0.022647
     10          1           0        2.650187    0.599081   -0.028079
 ---------------------------------------------------------------------

 SCF Done:  E(RB2PLYPD3) =  -155.695711192     A.U. after   11 cycles
 E2(B2PLYPD3) =    -0.2259331742D+00 E(B2PLYPD3) =    -0.15592164436584D+03

 The electronic state is 1-A.
 Alpha  occ. eigenvalues --  -10.62618 -10.62530 -10.62112 -10.60953  -0.93044
 Alpha  occ. eigenvalues --   -0.85064  -0.70277  -0.64149  -0.54690  -0.54320
 Alpha  occ. eigenvalues --   -0.46433  -0.45203  -0.41171  -0.38217  -0.27672
 Alpha virt. eigenvalues --    0.01502   0.06949   0.07605   0.07886   0.09710
 Alpha virt. eigenvalues --    0.11580   0.12468   0.14715   0.15707   0.16512
 Alpha virt. eigenvalues --    0.18907   0.19924   0.21798   0.22657   0.23870

 Mulliken charges:
               1
     1  C   -0.170014
     2  C   -0.035557
     3  C   -0.029702
     4  C   -0.169364
     5  H    0.083514
     6  H    0.056766
     7  H    0.058227
     8  H    0.054632
     9  H    0.073331
    10  H    0.078166
 Sum of Mulliken charges =   0.00000

 Dipole moment (field-independent basis, Debye):
    X=              0.0031    Y=             -0.0417    Z=             -0.0354  Tot=              0.0548
 Quadrupole moment (field-independent basis, Debye-Ang):
   XX=            -23.2925   YY=            -23.1719   ZZ=            -29.2537
   XY=             -0.0240   XZ=              0.1575   YZ=             -0.0659

 1\1\GINC-NODE21\SP\RB2PLYPD3-FC\def2QZVP\C4H6\BOITTIER\26-Aug-2020\0\\
 #p B2PLYPD3/Def2QZVP\\butadiene\\0,1\C,0,-3.848217,0.22633,-0.01565\C,
 0,-2.717088,-0.50452,0.071446\C,0,-1.382316,0.044956,0.07423\C,0,-0.25
 6698,-0.648224,-0.018595\H,0,-4.873949,-0.181405,-0.051418\H,0,-3.7939
 72,1.32277,-0.066534\H,0,-2.889627,-1.557575,0.127972\H,0,-1.290138,1.
 137302,-0.034949\H,0,-0.181828,-1.690711,0.050537\H,0,0.660889,-0.0878
 56,-0.020719\\Version=ES64L-G09RevD.01\State=1-A\HF=-155.6957112\MP2=-
 155.9216444\RMSD=4.959e-09\PG=C01 [X(C4H6)]\\@

 Normal termination of Gaussian 09 at Wed Aug 26 09:07:50 2020.
