 Gaussian 09, Revision D.01,
 Gaussian 09:  ES64L-G09RevD.01 24-Apr-2013

 --------------------
 #p B2PLYPD3/Def2QZVP
 --------------------

 ---------
 butadiene
 ---------
 Symbolic Z-matrix:
 Charge =  0 Multiplicity = 1

                         Standard orientation:
 ---------------------------------------------------------------------
 Center     Atomic      Atomic             Coordinates (Angstroms)
 Number     Number       Type             X           Y           Z
 ---------------------------------------------------------------------
      1          6           0       -1.835935   -0.121871    0.005589
      2          6           0       -0.599590    0.409183   -0.001834
      3          6           0        0.607758   -0.389605   -0.024628
      4          6           0        1.833094    0.103279   -0.007236
      5          1           0       -2.692716    0.505556    0.029459
      6          1           0       -1.994767   -1.185769   -0.017012
      7          1           0       -0.493971    1.500412    0.009545
      8          1           0        0.489901   -1.460798    0.048711
      9          1           0        1.973171    1.174727    0.017595
     10          1           0        2.686417   -0.540045    0.080361
 ---------------------------------------------------------------------

 SCF Done:  E(RB2PLYPD3) =  -155.700477129     A.U. after   11 cycles
 E2(B2PLYPD3) =    -0.2254673889D+00 E(B2PLYPD3) =    -0.15592594451798D+03

 The electronic state is 1-A.
 Alpha  occ. eigenvalues --  -10.62722 -10.62081 -10.61362 -10.61079  -0.93139
 Alpha  occ. eigenvalues --   -0.85094  -0.70244  -0.64046  -0.54710  -0.54252
 Alpha  occ. eigenvalues --   -0.46520  -0.45752  -0.41367  -0.38197  -0.27668
 Alpha virt. eigenvalues --    0.01775   0.07059   0.07420   0.08068   0.09648
 Alpha virt. eigenvalues --    0.11735   0.12462   0.14762   0.15806   0.16219
 Alpha virt. eigenvalues --    0.18758   0.20437   0.21595   0.22942   0.24029

 Mulliken charges:
               1
     1  C   -0.178715
     2  C   -0.035054
     3  C   -0.021246
     4  C   -0.175881
     5  H    0.086949
     6  H    0.068217
     7  H    0.052200
     8  H    0.053223
     9  H    0.063437
    10  H    0.086870
 Sum of Mulliken charges =   0.00000

 Dipole moment (field-independent basis, Debye):
    X=             -0.0172    Y=             -0.0134    Z=              0.1362  Tot=              0.1379
 Quadrupole moment (field-independent basis, Debye-Ang):
   XX=            -23.5788   YY=            -23.0311   ZZ=            -29.2067
   XY=              0.0183   XZ=              0.2724   YZ=             -0.0508

 1\1\GINC-NODE34\SP\RB2PLYPD3-FC\def2QZVP\C4H6\BOITTIER\26-Aug-2020\0\\
 #p B2PLYPD3/Def2QZVP\\butadiene\\0,1\C,0,-3.837165,0.233354,0.012191\C
 ,0,-2.715839,-0.510041,0.036964\C,0,-1.384879,0.059873,0.03289\C,0,-0.
 267705,-0.644829,0.031596\H,0,-4.792558,-0.230893,0.009406\H,0,-3.8028
 31,1.308657,-0.000557\H,0,-2.807348,-1.602319,0.06185\H,0,-1.309522,1.
 131875,-0.075998\H,0,-0.321856,-1.724269,0.04237\H,0,0.686441,-0.16797
 2,-0.077553\\Version=ES64L-G09RevD.01\State=1-A\HF=-155.7004771\MP2=-1
 55.9259445\RMSD=5.475e-09\PG=C01 [X(C4H6)]\\@

 Normal termination of Gaussian 09 at Wed Aug 26 21:26:33 2020.
