 Gaussian 09, Revision D.01,
 Gaussian 09:  ES64L-G09RevD.01 24-Apr-2013

 --------------------
 #p B2PLYPD3/Def2QZVP
 --------------------

 ---------
 butadiene
 ---------
 Symbolic Z-matrix:
 Charge =  0 Multiplicity = 1

                         Standard orientation:
 ---------------------------------------------------------------------
 Center     Atomic      Atomic             Coordinates (Angstroms)
 Number     Number       Type             X           Y           Z
 ---------------------------------------------------------------------
      1          6           0       -1.865566    0.107289    0.036480
      2          6           0       -0.625608   -0.383143   -0.047341
      3          6           0        0.623982    0.410053   -0.040897
      4          6           0        1.844591   -0.126024    0.017580
      5          1           0       -2.688979   -0.567958    0.036357
      6          1           0       -2.018368    1.171333    0.014932
      7          1           0       -0.442867   -1.421794    0.043740
      8          1           0        0.547691    1.470734   -0.012310
      9          1           0        1.957511   -1.183731   -0.003622
     10          1           0        2.780619    0.482364    0.125972
 ---------------------------------------------------------------------

 SCF Done:  E(RB2PLYPD3) =  -155.697060922     A.U. after   11 cycles
 E2(B2PLYPD3) =    -0.2255060639D+00 E(B2PLYPD3) =    -0.15592256698574D+03

 The electronic state is 1-A.
 Alpha  occ. eigenvalues --  -10.62473 -10.62413 -10.61761 -10.61359  -0.92722
 Alpha  occ. eigenvalues --   -0.85117  -0.69972  -0.64604  -0.54564  -0.53902
 Alpha  occ. eigenvalues --   -0.46880  -0.45997  -0.40998  -0.37790  -0.27910
 Alpha virt. eigenvalues --    0.01791   0.06976   0.07601   0.08101   0.09457
 Alpha virt. eigenvalues --    0.11697   0.12453   0.14605   0.15636   0.16248
 Alpha virt. eigenvalues --    0.18843   0.19988   0.21584   0.23414   0.23913

 Mulliken charges:
               1
     1  C   -0.179131
     2  C   -0.039123
     3  C   -0.031248
     4  C   -0.173959
     5  H    0.090428
     6  H    0.071480
     7  H    0.058310
     8  H    0.056423
     9  H    0.064143
    10  H    0.082675
 Sum of Mulliken charges =   0.00000

 Dipole moment (field-independent basis, Debye):
    X=              0.0282    Y=             -0.0098    Z=              0.1214  Tot=              0.1250
 Quadrupole moment (field-independent basis, Debye-Ang):
   XX=            -23.4401   YY=            -23.1397   ZZ=            -29.2433
   XY=             -0.0385   XZ=              0.2134   YZ=              0.0022

 1\1\GINC-NODE11\SP\RB2PLYPD3-FC\def2QZVP\C4H6\BOITTIER\26-Aug-2020\0\\
 #p B2PLYPD3/Def2QZVP\\butadiene\\0,1\C,0,-3.868155,0.214989,0.055346\C
 ,0,-2.732469,-0.485916,-0.007858\C,0,-1.364062,0.077903,-0.02357\C,0,-
 0.255016,-0.659814,0.056898\H,0,-4.79636,-0.306566,0.074902\H,0,-3.833
 818,1.288077,-0.002151\H,0,-2.732741,-1.53689,0.11839\H,0,-1.254841,1.
 136063,-0.030587\H,0,-0.32763,-1.721164,0.071322\H,0,0.772738,-0.22001
 1,0.148162\\Version=ES64L-G09RevD.01\State=1-A\HF=-155.6970609\MP2=-15
 5.922567\RMSD=4.361e-09\PG=C01 [X(C4H6)]\\@

 Normal termination of Gaussian 09 at Wed Aug 26 08:50:50 2020.
