 Gaussian 09, Revision D.01,
 Gaussian 09:  ES64L-G09RevD.01 24-Apr-2013

 --------------------
 #p B2PLYPD3/Def2QZVP
 --------------------

 ---------
 butadiene
 ---------
 Symbolic Z-matrix:
 Charge =  0 Multiplicity = 1

                         Standard orientation:
 ---------------------------------------------------------------------
 Center     Atomic      Atomic             Coordinates (Angstroms)
 Number     Number       Type             X           Y           Z
 ---------------------------------------------------------------------
      1          6           0        1.835367   -0.095619    0.013886
      2          6           0        0.590106    0.386195   -0.025228
      3          6           0       -0.594539   -0.413107   -0.015730
      4          6           0       -1.828784    0.109795    0.020545
      5          1           0        2.691956    0.542084    0.053881
      6          1           0        2.052154   -1.146564    0.010703
      7          1           0        0.410327    1.479369   -0.007001
      8          1           0       -0.477629   -1.491858   -0.040582
      9          1           0       -1.983232    1.199354   -0.024636
     10          1           0       -2.706473   -0.505964    0.046794
 ---------------------------------------------------------------------

 SCF Done:  E(RB2PLYPD3) =  -155.699949997     A.U. after   11 cycles
 E2(B2PLYPD3) =    -0.2259472483D+00 E(B2PLYPD3) =    -0.15592589724545D+03

 The electronic state is 1-A.
 Alpha  occ. eigenvalues --  -10.62591 -10.62396 -10.61709 -10.61286  -0.93281
 Alpha  occ. eigenvalues --   -0.84772  -0.70572  -0.63907  -0.54985  -0.53750
 Alpha  occ. eigenvalues --   -0.46678  -0.45466  -0.41273  -0.38365  -0.27455
 Alpha virt. eigenvalues --    0.01514   0.07037   0.07332   0.08077   0.09700
 Alpha virt. eigenvalues --    0.11669   0.12475   0.14811   0.15860   0.16185
 Alpha virt. eigenvalues --    0.18751   0.20520   0.21786   0.22844   0.23622

 Mulliken charges:
               1
     1  C   -0.177947
     2  C   -0.022592
     3  C   -0.027963
     4  C   -0.176040
     5  H    0.085501
     6  H    0.065793
     7  H    0.049410
     8  H    0.054541
     9  H    0.062556
    10  H    0.086742
 Sum of Mulliken charges =   0.00000

 Dipole moment (field-independent basis, Debye):
    X=             -0.0117    Y=             -0.0398    Z=              0.0049  Tot=              0.0418
 Quadrupole moment (field-independent basis, Debye-Ang):
   XX=            -23.3976   YY=            -23.1558   ZZ=            -29.2604
   XY=             -0.2347   XZ=              0.1201   YZ=              0.0086

 1\1\GINC-NODE37\SP\RB2PLYPD3-FC\def2QZVP\C4H6\BOITTIER\26-Aug-2020\0\\
 #p B2PLYPD3/Def2QZVP\\butadiene\\0,1\C,0,-3.837948,0.218628,0.034714\C
 ,0,-2.703876,-0.486857,0.011873\C,0,-1.391495,0.078654,-0.002643\C,0,-
 0.275498,-0.662804,0.051148\H,0,-4.797751,-0.247506,0.093925\H,0,-3.85
 6047,1.290935,-0.001649\H,0,-2.729901,-1.593306,0.064564\H,0,-1.306401
 ,1.159066,-0.061446\H,0,-0.326056,-1.762968,0.040325\H,0,0.701295,-0.2
 20083,0.058856\\Version=ES64L-G09RevD.01\State=1-A\HF=-155.69995\MP2=-
 155.9258972\RMSD=3.830e-09\PG=C01 [X(C4H6)]\\@

 Normal termination of Gaussian 09 at Wed Aug 26 12:19:17 2020.
