 Gaussian 09, Revision D.01,
 Gaussian 09:  ES64L-G09RevD.01 24-Apr-2013

 --------------------
 #p B2PLYPD3/Def2QZVP
 --------------------

 ---------
 butadiene
 ---------
 Symbolic Z-matrix:
 Charge =  0 Multiplicity = 1

                         Standard orientation:
 ---------------------------------------------------------------------
 Center     Atomic      Atomic             Coordinates (Angstroms)
 Number     Number       Type             X           Y           Z
 ---------------------------------------------------------------------
      1          6           0       -1.827749   -0.125099   -0.018110
      2          6           0       -0.590745    0.410545    0.041577
      3          6           0        0.608986   -0.386899    0.011733
      4          6           0        1.837985    0.099018   -0.032316
      5          1           0       -2.755115    0.488654   -0.057498
      6          1           0       -1.927200   -1.215531   -0.002364
      7          1           0       -0.547288    1.509893   -0.009897
      8          1           0        0.420762   -1.410598    0.018226
      9          1           0        1.926985    1.163754    0.008400
     10          1           0        2.710993   -0.521558    0.025831
 ---------------------------------------------------------------------

 SCF Done:  E(RB2PLYPD3) =  -155.696066901     A.U. after   11 cycles
 E2(B2PLYPD3) =    -0.2259103386D+00 E(B2PLYPD3) =    -0.15592197723922D+03

 The electronic state is 1-A.
 Alpha  occ. eigenvalues --  -10.62687 -10.62158 -10.61804 -10.61050  -0.93392
 Alpha  occ. eigenvalues --   -0.84907  -0.70058  -0.64423  -0.54735  -0.53953
 Alpha  occ. eigenvalues --   -0.46556  -0.45377  -0.41460  -0.38315  -0.27605
 Alpha virt. eigenvalues --    0.01639   0.07013   0.07487   0.08021   0.09615
 Alpha virt. eigenvalues --    0.11727   0.12579   0.14540   0.15823   0.16150
 Alpha virt. eigenvalues --    0.18678   0.20243   0.21447   0.23123   0.24052

 Mulliken charges:
               1
     1  C   -0.178670
     2  C   -0.025815
     3  C   -0.028086
     4  C   -0.174471
     5  H    0.085469
     6  H    0.060034
     7  H    0.050019
     8  H    0.057306
     9  H    0.065127
    10  H    0.089087
 Sum of Mulliken charges =   0.00000

 Dipole moment (field-independent basis, Debye):
    X=             -0.0281    Y=             -0.0233    Z=              0.0261  Tot=              0.0448
 Quadrupole moment (field-independent basis, Debye-Ang):
   XX=            -23.5241   YY=            -23.1837   ZZ=            -29.2432
   XY=             -0.1703   XZ=              0.3325   YZ=             -0.0885

 1\1\GINC-NODE20\SP\RB2PLYPD3-FC\def2QZVP\C4H6\BOITTIER\26-Aug-2020\0\\
 #p B2PLYPD3/Def2QZVP\\butadiene\\0,1\C,0,-3.831865,0.232578,0.040283\C
 ,0,-2.709788,-0.515615,-0.002211\C,0,-1.387557,0.056978,-0.000077\C,0,
 -0.263854,-0.637461,0.059438\H,0,-4.853035,-0.205352,0.100966\H,0,-3.7
 36607,1.32224,-0.012095\H,0,-2.861495,-1.602938,0.086214\H,0,-1.391429
 ,1.097049,-0.040898\H,0,-0.36522,-1.701858,0.054527\H,0,0.704903,-0.18
 3799,-0.020185\\Version=ES64L-G09RevD.01\State=1-A\HF=-155.6960669\MP2
 =-155.9219772\RMSD=5.979e-09\PG=C01 [X(C4H6)]\\@

 Normal termination of Gaussian 09 at Wed Aug 26 08:52:18 2020.
