 Gaussian 09, Revision D.01,
 Gaussian 09:  ES64L-G09RevD.01 24-Apr-2013

 --------------------
 #p B2PLYPD3/Def2QZVP
 --------------------

 ---------
 butadiene
 ---------
 Symbolic Z-matrix:
 Charge =  0 Multiplicity = 1

                         Standard orientation:
 ---------------------------------------------------------------------
 Center     Atomic      Atomic             Coordinates (Angstroms)
 Number     Number       Type             X           Y           Z
 ---------------------------------------------------------------------
      1          6           0        1.821771    0.110494   -0.004132
      2          6           0        0.601222   -0.397298   -0.006339
      3          6           0       -0.600402    0.409066   -0.026056
      4          6           0       -1.825673   -0.117906    0.013289
      5          1           0        2.674556   -0.544642    0.070389
      6          1           0        2.000849    1.182299    0.019026
      7          1           0        0.510146   -1.470214   -0.005644
      8          1           0       -0.468728    1.470940    0.024530
      9          1           0       -1.976236   -1.167522   -0.010050
     10          1           0       -2.722095    0.503007    0.041173
 ---------------------------------------------------------------------

 SCF Done:  E(RB2PLYPD3) =  -155.700792049     A.U. after   11 cycles
 E2(B2PLYPD3) =    -0.2251871733D+00 E(B2PLYPD3) =    -0.15592597922241D+03

 The electronic state is 1-A.
 Alpha  occ. eigenvalues --  -10.62279 -10.62036 -10.61303 -10.61142  -0.93309
 Alpha  occ. eigenvalues --   -0.85113  -0.70052  -0.64437  -0.54603  -0.54291
 Alpha  occ. eigenvalues --   -0.46556  -0.45669  -0.41337  -0.38317  -0.27722
 Alpha virt. eigenvalues --    0.01956   0.07032   0.07475   0.08069   0.09622
 Alpha virt. eigenvalues --    0.11754   0.12466   0.14802   0.15777   0.16290
 Alpha virt. eigenvalues --    0.18726   0.20267   0.21846   0.22864   0.24097

 Mulliken charges:
               1
     1  C   -0.175273
     2  C   -0.026220
     3  C   -0.033937
     4  C   -0.175370
     5  H    0.082067
     6  H    0.063897
     7  H    0.054885
     8  H    0.059647
     9  H    0.068314
    10  H    0.081990
 Sum of Mulliken charges =   0.00000

 Dipole moment (field-independent basis, Debye):
    X=             -0.0114    Y=             -0.0185    Z=              0.1037  Tot=              0.1060
 Quadrupole moment (field-independent basis, Debye-Ang):
   XX=            -23.6298   YY=            -22.9944   ZZ=            -29.1613
   XY=              0.1133   XZ=              0.1211   YZ=              0.0616

 1\1\GINC-NODE38\SP\RB2PLYPD3-FC\def2QZVP\C4H6\BOITTIER\26-Aug-2020\0\\
 #p B2PLYPD3/Def2QZVP\\butadiene\\0,1\C,0,-3.824755,0.220829,0.017168\C
 ,0,-2.715362,-0.497724,0.040107\C,0,-1.388307,0.079701,0.035952\C,0,-0
 .277852,-0.659965,0.018026\H,0,-4.781649,-0.272481,-0.037567\H,0,-3.80
 8331,1.305957,-0.042819\H,0,-2.818631,-1.568933,0.076039\H,0,-1.327126
 ,1.145616,-0.050974\H,0,-0.318337,-1.718146,0.07736\H,0,0.715484,-0.21
 1611,-0.028298\\Version=ES64L-G09RevD.01\State=1-A\HF=-155.700792\MP2=
 -155.9259792\RMSD=4.999e-09\PG=C01 [X(C4H6)]\\@

 Normal termination of Gaussian 09 at Wed Aug 26 11:45:07 2020.
