 Gaussian 09, Revision D.01,
 Gaussian 09:  ES64L-G09RevD.01 24-Apr-2013

 --------------------
 #p B2PLYPD3/Def2QZVP
 --------------------

 ---------
 butadiene
 ---------
 Symbolic Z-matrix:
 Charge =  0 Multiplicity = 1

                         Standard orientation:
 ---------------------------------------------------------------------
 Center     Atomic      Atomic             Coordinates (Angstroms)
 Number     Number       Type             X           Y           Z
 ---------------------------------------------------------------------
      1          6           0       -1.821362    0.086540   -0.013378
      2          6           0       -0.601567   -0.357431   -0.014570
      3          6           0        0.594999    0.408792    0.028293
      4          6           0        1.808451   -0.137571   -0.008476
      5          1           0       -2.683022   -0.573686    0.048383
      6          1           0       -1.871348    1.160379   -0.175128
      7          1           0       -0.412952   -1.431597    0.188333
      8          1           0        0.462689    1.478584    0.177290
      9          1           0        1.998737   -1.142751   -0.141924
     10          1           0        2.622768    0.507094   -0.048165
 ---------------------------------------------------------------------

 SCF Done:  E(RB2PLYPD3) =  -155.689662712     A.U. after   11 cycles
 E2(B2PLYPD3) =    -0.2249948501D+00 E(B2PLYPD3) =    -0.15591465756194D+03

 The electronic state is 1-A.
 Alpha  occ. eigenvalues --  -10.62164 -10.61456 -10.60940 -10.60463  -0.94025
 Alpha  occ. eigenvalues --   -0.85739  -0.70865  -0.63797  -0.55361  -0.54211
 Alpha  occ. eigenvalues --   -0.47566  -0.45524  -0.40895  -0.38286  -0.27966
 Alpha virt. eigenvalues --    0.01892   0.07207   0.07405   0.08065   0.09746
 Alpha virt. eigenvalues --    0.11903   0.12466   0.15023   0.15398   0.16028
 Alpha virt. eigenvalues --    0.18556   0.19695   0.21714   0.23305   0.24154

 Mulliken charges:
               1
     1  C   -0.189029
     2  C   -0.003495
     3  C   -0.036589
     4  C   -0.176788
     5  H    0.095942
     6  H    0.060311
     7  H    0.043126
     8  H    0.051376
     9  H    0.073297
    10  H    0.081848
 Sum of Mulliken charges =   0.00000

 Dipole moment (field-independent basis, Debye):
    X=              0.0736    Y=             -0.0211    Z=              0.0244  Tot=              0.0803
 Quadrupole moment (field-independent basis, Debye-Ang):
   XX=            -23.6651   YY=            -23.2892   ZZ=            -28.8566
   XY=              0.0146   XZ=             -0.3161   YZ=             -0.1053

 1\1\GINC-NODE36\SP\RB2PLYPD3-FC\def2QZVP\C4H6\BOITTIER\26-Aug-2020\0\\
 #p B2PLYPD3/Def2QZVP\\butadiene\\0,1\C,0,-3.82538,0.201227,0.010526\C,
 0,-2.706757,-0.457147,0.025922\C,0,-1.390485,0.079461,0.039491\C,0,-0.
 296979,-0.67969,0.023216\H,0,-4.792318,-0.288314,0.097425\H,0,-3.68030
 8,1.25944,-0.191785\H,0,-2.715285,-1.539391,0.269342\H,0,-1.324894,1.1
 60254,0.147873\H,0,-0.293697,-1.706973,-0.072087\H,0,0.620733,-0.19599
 8,-0.041028\\Version=ES64L-G09RevD.01\State=1-A\HF=-155.6896627\MP2=-1
 55.9146576\RMSD=7.917e-09\PG=C01 [X(C4H6)]\\@

 Normal termination of Gaussian 09 at Wed Aug 26 15:55:44 2020.
