 Gaussian 09, Revision D.01,
 Gaussian 09:  ES64L-G09RevD.01 24-Apr-2013

 --------------------
 #p B2PLYPD3/Def2QZVP
 --------------------

 ---------
 butadiene
 ---------
 Symbolic Z-matrix:
 Charge =  0 Multiplicity = 1

                         Standard orientation:
 ---------------------------------------------------------------------
 Center     Atomic      Atomic             Coordinates (Angstroms)
 Number     Number       Type             X           Y           Z
 ---------------------------------------------------------------------
      1          6           0        1.814001   -0.113028   -0.000077
      2          6           0        0.606494    0.406527    0.016194
      3          6           0       -0.586024   -0.373157   -0.010905
      4          6           0       -1.834581    0.086519   -0.017404
      5          1           0        2.679425    0.480067    0.019669
      6          1           0        1.972799   -1.202819   -0.012975
      7          1           0        0.554528    1.480493   -0.037569
      8          1           0       -0.409535   -1.445132   -0.007597
      9          1           0       -2.040735    1.182823    0.014281
     10          1           0       -2.755822   -0.536600    0.097340
 ---------------------------------------------------------------------

 SCF Done:  E(RB2PLYPD3) =  -155.696271872     A.U. after   11 cycles
 E2(B2PLYPD3) =    -0.2255343817D+00 E(B2PLYPD3) =    -0.15592180625365D+03

 The electronic state is 1-A.
 Alpha  occ. eigenvalues --  -10.62360 -10.62140 -10.61880 -10.61078  -0.93700
 Alpha  occ. eigenvalues --   -0.85118  -0.70272  -0.64025  -0.55185  -0.53640
 Alpha  occ. eigenvalues --   -0.47084  -0.44708  -0.40913  -0.38657  -0.27809
 Alpha virt. eigenvalues --    0.01736   0.07006   0.07384   0.08005   0.09907
 Alpha virt. eigenvalues --    0.11636   0.12484   0.14653   0.15779   0.16306
 Alpha virt. eigenvalues --    0.18825   0.20453   0.21639   0.22632   0.23598

 Mulliken charges:
               1
     1  C   -0.171428
     2  C   -0.020541
     3  C   -0.031192
     4  C   -0.167142
     5  H    0.085845
     6  H    0.057584
     7  H    0.053882
     8  H    0.053303
     9  H    0.057157
    10  H    0.082532
 Sum of Mulliken charges =   0.00000

 Dipole moment (field-independent basis, Debye):
    X=              0.1056    Y=              0.0285    Z=              0.0717  Tot=              0.1308
 Quadrupole moment (field-independent basis, Debye-Ang):
   XX=            -23.2845   YY=            -23.3213   ZZ=            -29.1478
   XY=             -0.0532   XZ=             -0.3450   YZ=             -0.0684

 1\1\GINC-NODE24\SP\RB2PLYPD3-FC\def2QZVP\C4H6\BOITTIER\26-Aug-2020\0\\
 #p B2PLYPD3/Def2QZVP\\butadiene\\0,1\C,0,-3.814719,0.227836,0.014918\C
 ,0,-2.722376,-0.502812,0.04979\C,0,-1.407545,0.045142,0.008473\C,0,-0.
 263912,-0.63473,0.01926\H,0,-4.773886,-0.19662,0.045669\H,0,-3.771862,
 1.32761,-0.026182\H,0,-2.867388,-1.569239,0.023365\H,0,-1.385332,1.131
 049,-0.016057\H,0,-0.261396,-1.749068,0.079521\H,0,0.755633,-0.187507,
 0.122452\\Version=ES64L-G09RevD.01\State=1-A\HF=-155.6962719\MP2=-155.
 9218063\RMSD=4.587e-09\PG=C01 [X(C4H6)]\\@

 Normal termination of Gaussian 09 at Wed Aug 26 09:59:09 2020.
