 Gaussian 09, Revision D.01,
 Gaussian 09:  ES64L-G09RevD.01 24-Apr-2013

 --------------------
 #p B2PLYPD3/Def2QZVP
 --------------------

 ---------
 butadiene
 ---------
 Symbolic Z-matrix:
 Charge =  0 Multiplicity = 1

                         Standard orientation:
 ---------------------------------------------------------------------
 Center     Atomic      Atomic             Coordinates (Angstroms)
 Number     Number       Type             X           Y           Z
 ---------------------------------------------------------------------
      1          6           0        1.855433   -0.091298    0.020258
      2          6           0        0.614112    0.341269   -0.022784
      3          6           0       -0.643575   -0.422856   -0.068343
      4          6           0       -1.861066    0.133714    0.014314
      5          1           0        2.678806    0.514303    0.108488
      6          1           0        2.145343   -1.084490    0.111284
      7          1           0        0.589303    1.506545   -0.132421
      8          1           0       -0.472766   -1.470445   -0.041841
      9          1           0       -1.879503    1.212555    0.124412
     10          1           0       -2.850607   -0.443443    0.169404
 ---------------------------------------------------------------------

 SCF Done:  E(RB2PLYPD3) =  -155.681662903     A.U. after   11 cycles
 E2(B2PLYPD3) =    -0.2260892028D+00 E(B2PLYPD3) =    -0.15590775210546D+03

 The electronic state is 1-A.
 Alpha  occ. eigenvalues --  -10.63284 -10.63038 -10.62790 -10.60138  -0.92773
 Alpha  occ. eigenvalues --   -0.85451  -0.70516  -0.63862  -0.54838  -0.53762
 Alpha  occ. eigenvalues --   -0.47632  -0.44697  -0.40002  -0.38034  -0.28175
 Alpha virt. eigenvalues --    0.01598   0.06887   0.07537   0.07777   0.09648
 Alpha virt. eigenvalues --    0.11460   0.12589   0.14511   0.15626   0.16329
 Alpha virt. eigenvalues --    0.18908   0.19962   0.21238   0.23147   0.23997

 Mulliken charges:
               1
     1  C   -0.166319
     2  C   -0.013482
     3  C   -0.050405
     4  C   -0.153956
     5  H    0.080977
     6  H    0.051147
     7  H    0.034559
     8  H    0.064163
     9  H    0.067953
    10  H    0.085362
 Sum of Mulliken charges =   0.00000

 Dipole moment (field-independent basis, Debye):
    X=              0.0442    Y=             -0.0949    Z=              0.2637  Tot=              0.2837
 Quadrupole moment (field-independent basis, Debye-Ang):
   XX=            -22.8652   YY=            -23.5944   ZZ=            -29.1792
   XY=             -0.0385   XZ=             -0.2861   YZ=             -0.1007

 1\1\GINC-NODE27\SP\RB2PLYPD3-FC\def2QZVP\C4H6\BOITTIER\26-Aug-2020\0\\
 #p B2PLYPD3/Def2QZVP\\butadiene\\0,1\C,0,-3.869637,0.189951,0.042024\C
 ,0,-2.720784,-0.449749,0.014383\C,0,-1.35083,0.086311,-0.045666\C,0,-0
 .24661,-0.668259,0.055367\H,0,-4.784514,-0.263275,0.142359\H,0,-3.9850
 82,1.220097,0.107098\H,0,-2.896011,-1.604454,-0.065963\H,0,-1.339659,1
 .148006,-0.04602\H,0,-0.413163,-1.731187,0.192499\H,0,0.827269,-0.2653
 51,0.199597\\Version=ES64L-G09RevD.01\State=1-A\HF=-155.6816629\MP2=-1
 55.9077521\RMSD=8.678e-09\PG=C01 [X(C4H6)]\\@

 Normal termination of Gaussian 09 at Wed Aug 26 11:31:28 2020.
