 Gaussian 09, Revision D.01,
 Gaussian 09:  ES64L-G09RevD.01 24-Apr-2013

 --------------------
 #p B2PLYPD3/Def2QZVP
 --------------------

 ---------
 butadiene
 ---------
 Symbolic Z-matrix:
 Charge =  0 Multiplicity = 1

                         Standard orientation:
 ---------------------------------------------------------------------
 Center     Atomic      Atomic             Coordinates (Angstroms)
 Number     Number       Type             X           Y           Z
 ---------------------------------------------------------------------
      1          6           0        1.843140    0.124139   -0.000602
      2          6           0        0.622964   -0.416883   -0.044767
      3          6           0       -0.609797    0.392602   -0.031077
      4          6           0       -1.860658   -0.109346    0.030010
      5          1           0        2.687960   -0.494219    0.145503
      6          1           0        1.949974    1.207189    0.041904
      7          1           0        0.562484   -1.483742    0.014423
      8          1           0       -0.470472    1.478773    0.043622
      9          1           0       -1.982718   -1.172520    0.034070
     10          1           0       -2.721115    0.521451   -0.000902
 ---------------------------------------------------------------------

 SCF Done:  E(RB2PLYPD3) =  -155.697757063     A.U. after   11 cycles
 E2(B2PLYPD3) =    -0.2259074427D+00 E(B2PLYPD3) =    -0.15592366450539D+03

 The electronic state is 1-A.
 Alpha  occ. eigenvalues --  -10.63029 -10.62534 -10.61418 -10.61299  -0.92615
 Alpha  occ. eigenvalues --   -0.85013  -0.70021  -0.64134  -0.54616  -0.54177
 Alpha  occ. eigenvalues --   -0.46455  -0.45800  -0.41547  -0.37707  -0.27683
 Alpha virt. eigenvalues --    0.01656   0.07056   0.07468   0.08081   0.09340
 Alpha virt. eigenvalues --    0.11717   0.12513   0.14577   0.15771   0.16293
 Alpha virt. eigenvalues --    0.18855   0.19978   0.21543   0.23266   0.24034

 Mulliken charges:
               1
     1  C   -0.171355
     2  C   -0.032510
     3  C   -0.034701
     4  C   -0.179750
     5  H    0.086254
     6  H    0.063462
     7  H    0.056349
     8  H    0.053504
     9  H    0.067537
    10  H    0.091210
 Sum of Mulliken charges =   0.00000

 Dipole moment (field-independent basis, Debye):
    X=              0.0282    Y=             -0.0313    Z=              0.2062  Tot=              0.2105
 Quadrupole moment (field-independent basis, Debye-Ang):
   XX=            -23.5986   YY=            -23.0333   ZZ=            -29.2899
   XY=             -0.1159   XZ=              0.4766   YZ=             -0.0537

 1\1\GINC-NODE20\SP\RB2PLYPD3-FC\def2QZVP\C4H6\BOITTIER\26-Aug-2020\0\\
 #p B2PLYPD3/Def2QZVP\\butadiene\\0,1\C,0,-3.845618,0.228988,0.006842\C
 ,0,-2.738332,-0.514661,0.073088\C,0,-1.383415,0.067045,0.041947\C,0,-0
 .239116,-0.646622,0.001998\H,0,-4.785246,-0.236901,-0.125369\H,0,-3.76
 2167,1.312343,-0.067965\H,0,-2.864617,-1.577037,0.045532\H,0,-1.331417
 ,1.158171,-0.065296\H,0,-0.304116,-1.71445,0.029754\H,0,0.718067,-0.17
 4641,0.018782\\Version=ES64L-G09RevD.01\State=1-A\HF=-155.6977571\MP2=
 -155.9236645\RMSD=4.679e-09\PG=C01 [X(C4H6)]\\@

 Normal termination of Gaussian 09 at Wed Aug 26 10:27:32 2020.
