 Gaussian 09, Revision D.01,
 Gaussian 09:  ES64L-G09RevD.01 24-Apr-2013

 --------------------
 #p B2PLYPD3/Def2QZVP
 --------------------

 ---------
 butadiene
 ---------
 Symbolic Z-matrix:
 Charge =  0 Multiplicity = 1

                         Standard orientation:
 ---------------------------------------------------------------------
 Center     Atomic      Atomic             Coordinates (Angstroms)
 Number     Number       Type             X           Y           Z
 ---------------------------------------------------------------------
      1          6           0       -1.834634   -0.115561   -0.034366
      2          6           0       -0.599854    0.418198    0.019932
      3          6           0        0.591439   -0.404853    0.016633
      4          6           0        1.840628    0.096484   -0.018990
      5          1           0       -2.691771    0.519950   -0.005425
      6          1           0       -1.928188   -1.217071   -0.010994
      7          1           0       -0.457526    1.536148    0.151501
      8          1           0        0.343098   -1.452726    0.055906
      9          1           0        1.975209    1.176346   -0.136210
     10          1           0        2.773707   -0.528258    0.045972
 ---------------------------------------------------------------------

 SCF Done:  E(RB2PLYPD3) =  -155.693593340     A.U. after   11 cycles
 E2(B2PLYPD3) =    -0.2270960146D+00 E(B2PLYPD3) =    -0.15592068935475D+03

 The electronic state is 1-A.
 Alpha  occ. eigenvalues --  -10.63059 -10.62699 -10.62375 -10.61833  -0.92969
 Alpha  occ. eigenvalues --   -0.84382  -0.69933  -0.63607  -0.54466  -0.53093
 Alpha  occ. eigenvalues --   -0.46733  -0.45293  -0.41097  -0.37929  -0.27447
 Alpha virt. eigenvalues --    0.01448   0.07036   0.07140   0.07992   0.09321
 Alpha virt. eigenvalues --    0.11695   0.12399   0.14488   0.15551   0.16108
 Alpha virt. eigenvalues --    0.18671   0.20182   0.21473   0.22976   0.23685

 Mulliken charges:
               1
     1  C   -0.184790
     2  C   -0.021148
     3  C   -0.030384
     4  C   -0.175369
     5  H    0.091995
     6  H    0.063722
     7  H    0.048437
     8  H    0.054323
     9  H    0.067251
    10  H    0.085964
 Sum of Mulliken charges =   0.00000

 Dipole moment (field-independent basis, Debye):
    X=             -0.0291    Y=              0.0117    Z=              0.1152  Tot=              0.1194
 Quadrupole moment (field-independent basis, Debye-Ang):
   XX=            -23.6794   YY=            -23.1967   ZZ=            -29.4301
   XY=              0.1616   XZ=             -0.1481   YZ=             -0.0800

 1\1\GINC-NODE06\SP\RB2PLYPD3-FC\def2QZVP\C4H6\BOITTIER\26-Aug-2020\0\\
 #p B2PLYPD3/Def2QZVP\\butadiene\\0,1\C,0,-3.833876,0.236142,0.047092\C
 ,0,-2.718478,-0.516998,0.012476\C,0,-1.396101,0.072613,-0.00423\C,0,-0
 .260389,-0.648693,0.05014\H,0,-4.793354,-0.231427,0.033817\H,0,-3.7232
 43,1.334902,-0.008664\H,0,-2.784517,-1.645413,-0.086002\H,0,-1.447513,
 1.146683,-0.074833\H,0,-0.326517,-1.730987,0.199209\H,0,0.771558,-0.20
 8419,-0.029882\\Version=ES64L-G09RevD.01\State=1-A\HF=-155.6935933\MP2
 =-155.9206894\RMSD=3.761e-09\PG=C01 [X(C4H6)]\\@

 Normal termination of Gaussian 09 at Wed Aug 26 10:01:14 2020.
