 Gaussian 09, Revision D.01,
 Gaussian 09:  ES64L-G09RevD.01 24-Apr-2013

 --------------------
 #p B2PLYPD3/Def2QZVP
 --------------------

 ---------
 butadiene
 ---------
 Symbolic Z-matrix:
 Charge =  0 Multiplicity = 1

                         Standard orientation:
 ---------------------------------------------------------------------
 Center     Atomic      Atomic             Coordinates (Angstroms)
 Number     Number       Type             X           Y           Z
 ---------------------------------------------------------------------
      1          6           0       -1.846074    0.136362    0.022491
      2          6           0       -0.617143   -0.401808   -0.009051
      3          6           0        0.585894    0.326080   -0.083898
      4          6           0        1.841733   -0.096055    0.018082
      5          1           0       -2.722820   -0.491630   -0.039434
      6          1           0       -1.938526    1.206962    0.267753
      7          1           0       -0.533352   -1.440331   -0.153695
      8          1           0        0.583109    1.402312   -0.077388
      9          1           0        2.136884   -1.092530    0.302318
     10          1           0        2.688246    0.627748    0.014706
 ---------------------------------------------------------------------

 SCF Done:  E(RB2PLYPD3) =  -155.688779431     A.U. after   11 cycles
 E2(B2PLYPD3) =    -0.2262213881D+00 E(B2PLYPD3) =    -0.15591500081904D+03

 The electronic state is 1-A.
 Alpha  occ. eigenvalues --  -10.62090 -10.61973 -10.61881 -10.61630  -0.93681
 Alpha  occ. eigenvalues --   -0.85157  -0.70725  -0.64187  -0.55210  -0.53893
 Alpha  occ. eigenvalues --   -0.46607  -0.45385  -0.40926  -0.38420  -0.27473
 Alpha virt. eigenvalues --    0.00985   0.06926   0.07674   0.07865   0.09834
 Alpha virt. eigenvalues --    0.11619   0.12295   0.15120   0.15498   0.16511
 Alpha virt. eigenvalues --    0.18795   0.19766   0.21378   0.22218   0.23895

 Mulliken charges:
               1
     1  C   -0.176137
     2  C   -0.045576
     3  C   -0.017942
     4  C   -0.168130
     5  H    0.086792
     6  H    0.071407
     7  H    0.067909
     8  H    0.047936
     9  H    0.061736
    10  H    0.072006
 Sum of Mulliken charges =   0.00000

 Dipole moment (field-independent basis, Debye):
    X=             -0.0405    Y=             -0.0185    Z=              0.2464  Tot=              0.2504
 Quadrupole moment (field-independent basis, Debye-Ang):
   XX=            -23.4754   YY=            -23.4296   ZZ=            -28.9915
   XY=              0.2674   XZ=              0.4318   YZ=              0.1970

 1\1\GINC-NODE32\SP\RB2PLYPD3-FC\def2QZVP\C4H6\BOITTIER\26-Aug-2020\0\\
 #p B2PLYPD3/Def2QZVP\\butadiene\\0,1\C,0,-3.840896,0.245267,0.041575\C
 ,0,-2.724979,-0.499849,0.020978\C,0,-1.412887,0.005638,-0.05397\C,0,-0
 .250648,-0.628692,0.058087\H,0,-4.81377,-0.220229,-0.01943\H,0,-3.7454
 72,1.317787,0.277119\H,0,-2.823675,-1.538328,-0.114274\H,0,-1.227348,1
 .065776,-0.056754\H,0,-0.135407,-1.65872,0.352414\H,0,0.709454,-0.0641
 9,0.052813\\Version=ES64L-G09RevD.01\State=1-A\HF=-155.6887794\MP2=-15
 5.9150008\RMSD=8.427e-09\PG=C01 [X(C4H6)]\\@

 Normal termination of Gaussian 09 at Wed Aug 26 13:28:11 2020.
