 Gaussian 09, Revision D.01,
 Gaussian 09:  ES64L-G09RevD.01 24-Apr-2013

 --------------------
 #p B2PLYPD3/Def2QZVP
 --------------------

 ---------
 butadiene
 ---------
 Symbolic Z-matrix:
 Charge =  0 Multiplicity = 1

                         Standard orientation:
 ---------------------------------------------------------------------
 Center     Atomic      Atomic             Coordinates (Angstroms)
 Number     Number       Type             X           Y           Z
 ---------------------------------------------------------------------
      1          6           0       -1.840606    0.052390   -0.031731
      2          6           0       -0.585021   -0.392549    0.039904
      3          6           0        0.580599    0.501973   -0.010306
      4          6           0        1.821114   -0.154026   -0.059504
      5          1           0       -2.668667   -0.520495    0.031394
      6          1           0       -2.005352    1.118427   -0.119336
      7          1           0       -0.401892   -1.373454    0.123677
      8          1           0        0.463754    1.554588    0.238596
      9          1           0        1.977435   -1.261411    0.007564
     10          1           0        2.778200    0.435624    0.087934
 ---------------------------------------------------------------------

 SCF Done:  E(RB2PLYPD3) =  -155.675412699     A.U. after   12 cycles
 E2(B2PLYPD3) =    -0.2276119140D+00 E(B2PLYPD3) =    -0.15590302461318D+03

 The electronic state is 1-A.
 Alpha  occ. eigenvalues --  -10.64019 -10.63557 -10.61608 -10.60361  -0.92660
 Alpha  occ. eigenvalues --   -0.83828  -0.70040  -0.65394  -0.55137  -0.53115
 Alpha  occ. eigenvalues --   -0.47128  -0.45042  -0.41640  -0.37180  -0.27064
 Alpha virt. eigenvalues --    0.01100   0.07050   0.07263   0.07918   0.08837
 Alpha virt. eigenvalues --    0.11653   0.12588   0.14531   0.15485   0.16566
 Alpha virt. eigenvalues --    0.18719   0.19801   0.21941   0.23073   0.23918

 Mulliken charges:
               1
     1  C   -0.173756
     2  C   -0.029842
     3  C   -0.049994
     4  C   -0.174214
     5  H    0.086120
     6  H    0.054451
     7  H    0.068724
     8  H    0.079908
     9  H    0.069876
    10  H    0.068726
 Sum of Mulliken charges =   0.00000

 Dipole moment (field-independent basis, Debye):
    X=             -0.0029    Y=             -0.0649    Z=              0.3829  Tot=              0.3884
 Quadrupole moment (field-independent basis, Debye-Ang):
   XX=            -23.8203   YY=            -22.9442   ZZ=            -29.3716
   XY=             -0.4110   XZ=              0.5197   YZ=              0.0923

 1\1\GINC-NODE26\SP\RB2PLYPD3-FC\def2QZVP\C4H6\BOITTIER\26-Aug-2020\0\\
 #p B2PLYPD3/Def2QZVP\\butadiene\\0,1\C,0,-3.847775,0.182265,-0.011711\
 C,0,-2.698742,-0.489868,0.075217\C,0,-1.385314,0.168189,0.018396\C,0,-
 0.290427,-0.710399,-0.012228\H,0,-4.769143,-0.2233,0.05511\H,0,-3.8084
 48,1.258621,-0.117359\H,0,-2.703965,-1.486153,0.175799\H,0,-1.302626,1
 .228024,0.249732\H,0,-0.345748,-1.826117,0.07349\H,0,0.760091,-0.30911
 3,0.132061\\Version=ES64L-G09RevD.01\State=1-A\HF=-155.6754127\MP2=-15
 5.9030246\RMSD=5.746e-09\PG=C01 [X(C4H6)]\\@

 Normal termination of Gaussian 09 at Wed Aug 26 14:20:44 2020.
