 Gaussian 09, Revision D.01,
 Gaussian 09:  ES64L-G09RevD.01 24-Apr-2013

 --------------------
 #p B2PLYPD3/Def2QZVP
 --------------------

 ---------
 butadiene
 ---------
 Symbolic Z-matrix:
 Charge =  0 Multiplicity = 1

                         Standard orientation:
 ---------------------------------------------------------------------
 Center     Atomic      Atomic             Coordinates (Angstroms)
 Number     Number       Type             X           Y           Z
 ---------------------------------------------------------------------
      1          6           0       -1.847771    0.096281    0.020770
      2          6           0       -0.618219   -0.382516   -0.034787
      3          6           0        0.608462    0.407343   -0.029369
      4          6           0        1.841869   -0.119320    0.027845
      5          1           0       -2.719284   -0.528876    0.065512
      6          1           0       -2.018426    1.184534    0.002892
      7          1           0       -0.458091   -1.455664   -0.018597
      8          1           0        0.544266    1.491818    0.013424
      9          1           0        2.007444   -1.201222    0.018218
     10          1           0        2.738039    0.498684    0.011800
 ---------------------------------------------------------------------

 SCF Done:  E(RB2PLYPD3) =  -155.700047170     A.U. after   11 cycles
 E2(B2PLYPD3) =    -0.2256914869D+00 E(B2PLYPD3) =    -0.15592573865663D+03

 The electronic state is 1-A.
 Alpha  occ. eigenvalues --  -10.62734 -10.62446 -10.61850 -10.61482  -0.92913
 Alpha  occ. eigenvalues --   -0.85032  -0.70029  -0.63896  -0.54740  -0.53786
 Alpha  occ. eigenvalues --   -0.46934  -0.45155  -0.40901  -0.38143  -0.27864
 Alpha virt. eigenvalues --    0.01759   0.07001   0.07423   0.08018   0.09674
 Alpha virt. eigenvalues --    0.11621   0.12430   0.14568   0.15842   0.16225
 Alpha virt. eigenvalues --    0.18895   0.20273   0.21647   0.22776   0.23711

 Mulliken charges:
               1
     1  C   -0.170827
     2  C   -0.029798
     3  C   -0.032341
     4  C   -0.172691
     5  H    0.088910
     6  H    0.062623
     7  H    0.053281
     8  H    0.054837
     9  H    0.061697
    10  H    0.084309
 Sum of Mulliken charges =   0.00000

 Dipole moment (field-independent basis, Debye):
    X=              0.0082    Y=             -0.0054    Z=              0.0384  Tot=              0.0396
 Quadrupole moment (field-independent basis, Debye-Ang):
   XX=            -23.2810   YY=            -23.2157   ZZ=            -29.2829
   XY=             -0.0316   XZ=             -0.1222   YZ=             -0.0187

 1\1\GINC-NODE38\SP\RB2PLYPD3-FC\def2QZVP\C4H6\BOITTIER\26-Aug-2020\0\\
 #p B2PLYPD3/Def2QZVP\\butadiene\\0,1\C,0,-3.851653,0.208158,0.042657\C
 ,0,-2.726848,-0.482765,0.003029\C,0,-1.37946,0.076592,-0.014845\C,0,-0
 .258837,-0.658651,0.059726\H,0,-4.820056,-0.250704,0.105901\H,0,-3.826
 566,1.308358,-0.008983\H,0,-2.759622,-1.56629,0.052507\H,0,-1.249996,1
 .156033,-0.005631\H,0,-0.287923,-1.752543,0.083674\H,0,0.732694,-0.210
 325,0.025408\\Version=ES64L-G09RevD.01\State=1-A\HF=-155.7000472\MP2=-
 155.9257387\RMSD=5.413e-09\PG=C01 [X(C4H6)]\\@

 Normal termination of Gaussian 09 at Wed Aug 26 19:30:29 2020.
