 Gaussian 09, Revision D.01,
 Gaussian 09:  ES64L-G09RevD.01 24-Apr-2013

 --------------------
 #p B2PLYPD3/Def2QZVP
 --------------------

 ---------
 butadiene
 ---------
 Symbolic Z-matrix:
 Charge =  0 Multiplicity = 1

                         Standard orientation:
 ---------------------------------------------------------------------
 Center     Atomic      Atomic             Coordinates (Angstroms)
 Number     Number       Type             X           Y           Z
 ---------------------------------------------------------------------
      1          6           0        1.837407    0.062322    0.009092
      2          6           0        0.591728   -0.385348   -0.037262
      3          6           0       -0.617629    0.491707    0.037796
      4          6           0       -1.819288   -0.159452   -0.021522
      5          1           0        2.733506   -0.590117   -0.098077
      6          1           0        1.980286    1.169909    0.180476
      7          1           0        0.350130   -1.442747   -0.029057
      8          1           0       -0.410772    1.600158   -0.116818
      9          1           0       -1.950046   -1.251408    0.238295
     10          1           0       -2.656410    0.458830   -0.103435
 ---------------------------------------------------------------------

 SCF Done:  E(RB2PLYPD3) =  -155.680579932     A.U. after   12 cycles
 E2(B2PLYPD3) =    -0.2278388185D+00 E(B2PLYPD3) =    -0.15590841875058D+03

 The electronic state is 1-A.
 Alpha  occ. eigenvalues --  -10.64048 -10.62403 -10.62314 -10.61914  -0.92318
 Alpha  occ. eigenvalues --   -0.84338  -0.69174  -0.63377  -0.54055  -0.52765
 Alpha  occ. eigenvalues --   -0.46729  -0.45162  -0.40447  -0.37419  -0.27563
 Alpha virt. eigenvalues --    0.01673   0.06869   0.07099   0.08021   0.08603
 Alpha virt. eigenvalues --    0.11738   0.12108   0.14528   0.15359   0.16157
 Alpha virt. eigenvalues --    0.18567   0.19429   0.21317   0.23295   0.23739

 Mulliken charges:
               1
     1  C   -0.178320
     2  C   -0.019420
     3  C   -0.050399
     4  C   -0.177660
     5  H    0.089057
     6  H    0.055502
     7  H    0.054679
     8  H    0.064296
     9  H    0.078572
    10  H    0.083692
 Sum of Mulliken charges =   0.00000

 Dipole moment (field-independent basis, Debye):
    X=             -0.1093    Y=             -0.0130    Z=              0.0703  Tot=              0.1306
 Quadrupole moment (field-independent basis, Debye-Ang):
   XX=            -24.1260   YY=            -22.9541   ZZ=            -29.4369
   XY=              0.3063   XZ=             -0.0452   YZ=             -0.2575

 1\1\GINC-NODE10\SP\RB2PLYPD3-FC\def2QZVP\C4H6\BOITTIER\26-Aug-2020\0\\
 #p B2PLYPD3/Def2QZVP\\butadiene\\0,1\C,0,-3.847635,0.186913,0.012359\C
 ,0,-2.706616,-0.483563,0.065395\C,0,-1.355593,0.15288,-0.018758\C,0,-0
 .295577,-0.709212,0.049611\H,0,-4.849122,-0.286582,0.126294\H,0,-3.782
 688,1.29966,-0.172334\H,0,-2.665448,-1.567451,0.070023\H,0,-1.352985,1
 .282222,0.122443\H,0,-0.370021,-1.809475,-0.197066\H,0,0.641833,-0.256
 087,0.125086\\Version=ES64L-G09RevD.01\State=1-A\HF=-155.6805799\MP2=-
 155.9084188\RMSD=2.938e-09\PG=C01 [X(C4H6)]\\@

 Normal termination of Gaussian 09 at Wed Aug 26 12:34:46 2020.
