 Gaussian 09, Revision D.01,
 Gaussian 09:  ES64L-G09RevD.01 24-Apr-2013

 --------------------
 #p B2PLYPD3/Def2QZVP
 --------------------

 ---------
 butadiene
 ---------
 Symbolic Z-matrix:
 Charge =  0 Multiplicity = 1

                         Standard orientation:
 ---------------------------------------------------------------------
 Center     Atomic      Atomic             Coordinates (Angstroms)
 Number     Number       Type             X           Y           Z
 ---------------------------------------------------------------------
      1          6           0       -1.813039   -0.128215   -0.007586
      2          6           0       -0.612094    0.440038   -0.004144
      3          6           0        0.591127   -0.390795    0.011118
      4          6           0        1.841678    0.091807   -0.021732
      5          1           0       -2.727699    0.434213    0.097364
      6          1           0       -1.931702   -1.221949   -0.105840
      7          1           0       -0.552610    1.550060    0.022114
      8          1           0        0.422470   -1.454849    0.072462
      9          1           0        2.015887    1.111122   -0.020878
     10          1           0        2.727617   -0.495608    0.068848
 ---------------------------------------------------------------------

 SCF Done:  E(RB2PLYPD3) =  -155.696635677     A.U. after   11 cycles
 E2(B2PLYPD3) =    -0.2256700273D+00 E(B2PLYPD3) =    -0.15592230570472D+03

 The electronic state is 1-A.
 Alpha  occ. eigenvalues --  -10.62847 -10.62670 -10.61595 -10.60736  -0.92956
 Alpha  occ. eigenvalues --   -0.84946  -0.70154  -0.64180  -0.54872  -0.53943
 Alpha  occ. eigenvalues --   -0.46704  -0.45373  -0.41388  -0.37983  -0.27646
 Alpha virt. eigenvalues --    0.01864   0.07077   0.07379   0.08056   0.09331
 Alpha virt. eigenvalues --    0.11659   0.12691   0.14578   0.15936   0.16333
 Alpha virt. eigenvalues --    0.18768   0.20443   0.21847   0.23015   0.23665

 Mulliken charges:
               1
     1  C   -0.170273
     2  C   -0.032106
     3  C   -0.033064
     4  C   -0.173560
     5  H    0.083532
     6  H    0.061288
     7  H    0.057854
     8  H    0.059501
     9  H    0.065018
    10  H    0.081811
 Sum of Mulliken charges =   0.00000

 Dipole moment (field-independent basis, Debye):
    X=             -0.0646    Y=              0.0360    Z=              0.1286  Tot=              0.1483
 Quadrupole moment (field-independent basis, Debye-Ang):
   XX=            -23.3534   YY=            -23.1238   ZZ=            -29.2172
   XY=              0.1895   XZ=              0.0906   YZ=              0.0601

 1\1\GINC-NODE14\SP\RB2PLYPD3-FC\def2QZVP\C4H6\BOITTIER\26-Aug-2020\0\\
 #p B2PLYPD3/Def2QZVP\\butadiene\\0,1\C,0,-3.812904,0.23817,0.024399\C,
 0,-2.733597,-0.536523,0.036176\C,0,-1.400758,0.063977,0.001599\C,0,-0.
 25714,-0.63451,0.047592\H,0,-4.814078,-0.153162,-0.06754\H,0,-3.732816
 ,1.337497,0.095503\H,0,-2.874579,-1.639474,0.037389\H,0,-1.375734,1.13
 9194,-0.086163\H,0,-0.268881,-1.668249,0.072075\H,0,0.719592,-0.218228
 ,-0.056585\\Version=ES64L-G09RevD.01\State=1-A\HF=-155.6966357\MP2=-15
 5.9223057\RMSD=5.674e-09\PG=C01 [X(C4H6)]\\@

 Normal termination of Gaussian 09 at Wed Aug 26 10:19:27 2020.
