 Gaussian 09, Revision D.01,
 Gaussian 09:  ES64L-G09RevD.01 24-Apr-2013

 --------------------
 #p B2PLYPD3/Def2QZVP
 --------------------

 ---------
 butadiene
 ---------
 Symbolic Z-matrix:
 Charge =  0 Multiplicity = 1

                         Standard orientation:
 ---------------------------------------------------------------------
 Center     Atomic      Atomic             Coordinates (Angstroms)
 Number     Number       Type             X           Y           Z
 ---------------------------------------------------------------------
      1          6           0       -1.840854    0.101876    0.000844
      2          6           0       -0.605080   -0.395723   -0.029080
      3          6           0        0.597888    0.415934   -0.020231
      4          6           0        1.836042   -0.118852    0.018756
      5          1           0       -2.708017   -0.528749    0.106030
      6          1           0       -2.001765    1.147940    0.034454
      7          1           0       -0.427279   -1.454096   -0.018785
      8          1           0        0.492430    1.510687    0.006282
      9          1           0        1.973031   -1.186057    0.030217
     10          1           0        2.743624    0.490863    0.020067
 ---------------------------------------------------------------------

 SCF Done:  E(RB2PLYPD3) =  -155.699929370     A.U. after   11 cycles
 E2(B2PLYPD3) =    -0.2258934392D+00 E(B2PLYPD3) =    -0.15592582280908D+03

 The electronic state is 1-A.
 Alpha  occ. eigenvalues --  -10.62856 -10.62394 -10.61779 -10.61171  -0.92992
 Alpha  occ. eigenvalues --   -0.84766  -0.70273  -0.64292  -0.54565  -0.54010
 Alpha  occ. eigenvalues --   -0.46631  -0.45741  -0.41339  -0.38093  -0.27535
 Alpha virt. eigenvalues --    0.01599   0.07015   0.07434   0.08080   0.09489
 Alpha virt. eigenvalues --    0.11696   0.12555   0.14703   0.15877   0.16181
 Alpha virt. eigenvalues --    0.18784   0.20371   0.21824   0.23094   0.23650

 Mulliken charges:
               1
     1  C   -0.174416
     2  C   -0.028858
     3  C   -0.030184
     4  C   -0.177925
     5  H    0.084743
     6  H    0.067067
     7  H    0.056727
     8  H    0.053598
     9  H    0.064153
    10  H    0.085094
 Sum of Mulliken charges =   0.00000

 Dipole moment (field-independent basis, Debye):
    X=              0.0151    Y=             -0.0028    Z=              0.1311  Tot=              0.1320
 Quadrupole moment (field-independent basis, Debye-Ang):
   XX=            -23.4587   YY=            -23.1183   ZZ=            -29.2797
   XY=             -0.1891   XZ=             -0.2749   YZ=             -0.0246

 1\1\GINC-NODE20\SP\RB2PLYPD3-FC\def2QZVP\C4H6\BOITTIER\26-Aug-2020\0\\
 #p B2PLYPD3/Def2QZVP\\butadiene\\0,1\C,0,-3.842934,0.217758,0.026416\C
 ,0,-2.717621,-0.49574,0.011321\C,0,-1.387753,0.084935,-0.004892\C,0,-0
 .266421,-0.66349,0.050024\H,0,-4.809159,-0.242255,0.151003\H,0,-3.8119
 64,1.276205,0.028191\H,0,-2.733951,-1.568028,0.0538\H,0,-1.293486,1.18
 1008,-0.011709\H,0,-0.324479,-1.737046,0.093949\H,0,0.736393,-0.228155
 ,0.03251\\Version=ES64L-G09RevD.01\State=1-A\HF=-155.6999294\MP2=-155.
 9258228\RMSD=4.523e-09\PG=C01 [X(C4H6)]\\@

 Normal termination of Gaussian 09 at Wed Aug 26 19:30:24 2020.
