 Gaussian 09, Revision D.01,
 Gaussian 09:  ES64L-G09RevD.01 24-Apr-2013

 --------------------
 #p B2PLYPD3/Def2QZVP
 --------------------

 ---------
 butadiene
 ---------
 Symbolic Z-matrix:
 Charge =  0 Multiplicity = 1

                         Standard orientation:
 ---------------------------------------------------------------------
 Center     Atomic      Atomic             Coordinates (Angstroms)
 Number     Number       Type             X           Y           Z
 ---------------------------------------------------------------------
      1          6           0       -1.852268    0.087938   -0.038804
      2          6           0       -0.609862   -0.391056    0.025584
      3          6           0        0.603800    0.432529    0.004978
      4          6           0        1.851009   -0.131889   -0.020680
      5          1           0       -2.684262   -0.560848    0.003763
      6          1           0       -2.026063    1.165142   -0.024396
      7          1           0       -0.437837   -1.414028    0.171905
      8          1           0        0.478512    1.508363    0.105085
      9          1           0        2.020204   -1.188562   -0.122914
     10          1           0        2.693366    0.504797    0.040090
 ---------------------------------------------------------------------

 SCF Done:  E(RB2PLYPD3) =  -155.696294826     A.U. after   11 cycles
 E2(B2PLYPD3) =    -0.2260525671D+00 E(B2PLYPD3) =    -0.15592234739359D+03

 The electronic state is 1-A.
 Alpha  occ. eigenvalues --  -10.63139 -10.62083 -10.61729 -10.61226  -0.92617
 Alpha  occ. eigenvalues --   -0.84642  -0.70468  -0.64468  -0.54651  -0.53927
 Alpha  occ. eigenvalues --   -0.46672  -0.46327  -0.41582  -0.37400  -0.27453
 Alpha virt. eigenvalues --    0.01460   0.07089   0.07480   0.08143   0.09278
 Alpha virt. eigenvalues --    0.11701   0.12398   0.14779   0.15771   0.16099
 Alpha virt. eigenvalues --    0.18854   0.20381   0.21491   0.22993   0.23889

 Mulliken charges:
               1
     1  C   -0.176543
     2  C   -0.032485
     3  C   -0.041410
     4  C   -0.184646
     5  H    0.087075
     6  H    0.064645
     7  H    0.062626
     8  H    0.059945
     9  H    0.074289
    10  H    0.086504
 Sum of Mulliken charges =   0.00000

 Dipole moment (field-independent basis, Debye):
    X=              0.0245    Y=             -0.0232    Z=              0.1771  Tot=              0.1803
 Quadrupole moment (field-independent basis, Debye-Ang):
   XX=            -23.5970   YY=            -22.9839   ZZ=            -29.2857
   XY=             -0.2364   XZ=             -0.1274   YZ=              0.0993

 1\1\GINC-NODE14\SP\RB2PLYPD3-FC\def2QZVP\C4H6\BOITTIER\26-Aug-2020\0\\
 #p B2PLYPD3/Def2QZVP\\butadiene\\0,1\C,0,-3.856736,0.208583,-0.013092\
 C,0,-2.722124,-0.487174,0.062604\C,0,-1.378853,0.100952,0.02487\C,0,-0
 .25537,-0.681599,0.012409\H,0,-4.792819,-0.276748,0.043048\H,0,-3.8314
 17,1.299479,-0.022324\H,0,-2.738779,-1.520966,0.231341\H,0,-1.305806,1
 .183517,0.10138\H,0,-0.281763,-1.753371,-0.066615\H,0,0.689039,-0.2078
 19,0.059854\\Version=ES64L-G09RevD.01\State=1-A\HF=-155.6962948\MP2=-1
 55.9223474\RMSD=7.627e-09\PG=C01 [X(C4H6)]\\@

 Normal termination of Gaussian 09 at Wed Aug 26 09:19:03 2020.
