 Gaussian 09, Revision D.01,
 Gaussian 09:  ES64L-G09RevD.01 24-Apr-2013

 --------------------
 #p B2PLYPD3/Def2QZVP
 --------------------

 ---------
 butadiene
 ---------
 Symbolic Z-matrix:
 Charge =  0 Multiplicity = 1

                         Standard orientation:
 ---------------------------------------------------------------------
 Center     Atomic      Atomic             Coordinates (Angstroms)
 Number     Number       Type             X           Y           Z
 ---------------------------------------------------------------------
      1          6           0        1.831536   -0.118840   -0.018345
      2          6           0        0.602927    0.417189    0.012522
      3          6           0       -0.610166   -0.393351    0.023485
      4          6           0       -1.836214    0.100337   -0.027021
      5          1           0        2.738270    0.483972   -0.006092
      6          1           0        1.966164   -1.219213   -0.053487
      7          1           0        0.507257    1.524708    0.060707
      8          1           0       -0.449243   -1.464807    0.085268
      9          1           0       -1.985272    1.170516   -0.010954
     10          1           0       -2.705674   -0.527183   -0.019287
 ---------------------------------------------------------------------

 SCF Done:  E(RB2PLYPD3) =  -155.699831954     A.U. after   11 cycles
 E2(B2PLYPD3) =    -0.2258299549D+00 E(B2PLYPD3) =    -0.15592566190854D+03

 The electronic state is 1-A.
 Alpha  occ. eigenvalues --  -10.62945 -10.62401 -10.61949 -10.61177  -0.92953
 Alpha  occ. eigenvalues --   -0.84927  -0.69843  -0.63749  -0.54647  -0.53736
 Alpha  occ. eigenvalues --   -0.46743  -0.45214  -0.41075  -0.38076  -0.27796
 Alpha virt. eigenvalues --    0.01892   0.07044   0.07282   0.08017   0.09549
 Alpha virt. eigenvalues --    0.11656   0.12454   0.14547   0.15885   0.16139
 Alpha virt. eigenvalues --    0.18750   0.20519   0.21474   0.22805   0.23784

 Mulliken charges:
               1
     1  C   -0.174124
     2  C   -0.031317
     3  C   -0.027206
     4  C   -0.173729
     5  H    0.086687
     6  H    0.060994
     7  H    0.051788
     8  H    0.054396
     9  H    0.065056
    10  H    0.087455
 Sum of Mulliken charges =   0.00000

 Dipole moment (field-independent basis, Debye):
    X=              0.0060    Y=             -0.0012    Z=              0.0760  Tot=              0.0762
 Quadrupole moment (field-independent basis, Debye-Ang):
   XX=            -23.4727   YY=            -23.1243   ZZ=            -29.3029
   XY=             -0.0515   XZ=             -0.0481   YZ=              0.0416

 1\1\GINC-NODE16\SP\RB2PLYPD3-FC\def2QZVP\C4H6\BOITTIER\26-Aug-2020\0\\
 #p B2PLYPD3/Def2QZVP\\butadiene\\0,1\C,0,-3.834089,0.229542,-0.000147\
 C,0,-2.721115,-0.516402,0.051016\C,0,-1.382538,0.063889,0.038239\C,0,-
 0.264802,-0.642611,0.006682\H,0,-4.834,-0.200554,0.029741\H,0,-3.76978
 1,1.334507,-0.071541\H,0,-2.824983,-1.620998,0.13559\H,0,-1.348925,1.1
 48282,0.064603\H,0,-0.309579,-1.721089,0.058057\H,0,0.702931,-0.180898
 ,-0.004121\\Version=ES64L-G09RevD.01\State=1-A\HF=-155.699832\MP2=-155
 .9256619\RMSD=4.502e-09\PG=C01 [X(C4H6)]\\@

 Normal termination of Gaussian 09 at Wed Aug 26 21:31:00 2020.
