 Gaussian 09, Revision D.01,
 Gaussian 09:  ES64L-G09RevD.01 24-Apr-2013

 --------------------
 #p B2PLYPD3/Def2QZVP
 --------------------

 ---------
 butadiene
 ---------
 Symbolic Z-matrix:
 Charge =  0 Multiplicity = 1

                         Standard orientation:
 ---------------------------------------------------------------------
 Center     Atomic      Atomic             Coordinates (Angstroms)
 Number     Number       Type             X           Y           Z
 ---------------------------------------------------------------------
      1          6           0       -1.861225    0.112978   -0.008169
      2          6           0       -0.605914   -0.410636   -0.040690
      3          6           0        0.595550    0.377231   -0.004219
      4          6           0        1.855220   -0.107116    0.034239
      5          1           0       -2.709851   -0.484688    0.111525
      6          1           0       -2.108594    1.170703   -0.088470
      7          1           0       -0.458698   -1.531211    0.183823
      8          1           0        0.536415    1.458632    0.118149
      9          1           0        2.190951   -1.028954   -0.202966
     10          1           0        2.647994    0.580775   -0.009024
 ---------------------------------------------------------------------

 SCF Done:  E(RB2PLYPD3) =  -155.682334289     A.U. after   11 cycles
 E2(B2PLYPD3) =    -0.2268409083D+00 E(B2PLYPD3) =    -0.15590917519704D+03

 The electronic state is 1-A.
 Alpha  occ. eigenvalues --  -10.63720 -10.62860 -10.61912 -10.60396  -0.92714
 Alpha  occ. eigenvalues --   -0.84831  -0.71667  -0.63940  -0.54929  -0.54146
 Alpha  occ. eigenvalues --   -0.46526  -0.45665  -0.41137  -0.37791  -0.27355
 Alpha virt. eigenvalues --    0.00771   0.07110   0.07445   0.07869   0.09203
 Alpha virt. eigenvalues --    0.11427   0.12719   0.15200   0.15503   0.16384
 Alpha virt. eigenvalues --    0.18784   0.19814   0.22313   0.23239   0.23695

 Mulliken charges:
               1
     1  C   -0.173113
     2  C   -0.039817
     3  C   -0.032707
     4  C   -0.162672
     5  H    0.085921
     6  H    0.068578
     7  H    0.061287
     8  H    0.059832
     9  H    0.067369
    10  H    0.065322
 Sum of Mulliken charges =   0.00000

 Dipole moment (field-independent basis, Debye):
    X=             -0.0894    Y=              0.0633    Z=              0.0276  Tot=              0.1130
 Quadrupole moment (field-independent basis, Debye-Ang):
   XX=            -23.0362   YY=            -23.3611   ZZ=            -29.1727
   XY=             -0.4891   XZ=             -0.7455   YZ=             -0.0753

 1\1\GINC-NODE33\SP\RB2PLYPD3-FC\def2QZVP\C4H6\BOITTIER\26-Aug-2020\0\\
 #p B2PLYPD3/Def2QZVP\\butadiene\\0,1\C,0,-3.858203,0.240914,0.022102\C
 ,0,-2.721003,-0.505753,0.004771\C,0,-1.394827,0.048172,0.007259\C,0,-0
 .245379,-0.658152,0.059364\H,0,-4.800966,-0.185501,0.167243\H,0,-3.907
 666,1.322479,-0.097027\H,0,-2.780028,-1.625372,0.270733\H,0,-1.252802,
 1.125684,0.089086\H,0,-0.087399,-1.634043,-0.144215\H,0,0.65988,-0.130
 056,-0.012593\\Version=ES64L-G09RevD.01\State=1-A\HF=-155.6823343\MP2=
 -155.9091752\RMSD=4.456e-09\PG=C01 [X(C4H6)]\\@

 Normal termination of Gaussian 09 at Wed Aug 26 12:29:40 2020.
