 Gaussian 09, Revision D.01,
 Gaussian 09:  ES64L-G09RevD.01 24-Apr-2013

 --------------------
 #p B2PLYPD3/Def2QZVP
 --------------------

 ---------
 butadiene
 ---------
 Symbolic Z-matrix:
 Charge =  0 Multiplicity = 1

                         Standard orientation:
 ---------------------------------------------------------------------
 Center     Atomic      Atomic             Coordinates (Angstroms)
 Number     Number       Type             X           Y           Z
 ---------------------------------------------------------------------
      1          6           0        1.824435   -0.119398    0.058444
      2          6           0        0.581217    0.412270   -0.080475
      3          6           0       -0.590891   -0.431157   -0.078603
      4          6           0       -1.827139    0.116708    0.024167
      5          1           0        2.672806    0.591952    0.220255
      6          1           0        2.083885   -1.095896    0.064410
      7          1           0        0.367017    1.419651   -0.099292
      8          1           0       -0.469661   -1.463003   -0.168979
      9          1           0       -1.914129    1.220885    0.054020
     10          1           0       -2.665645   -0.544133    0.388386
 ---------------------------------------------------------------------

 SCF Done:  E(RB2PLYPD3) =  -155.681299081     A.U. after   12 cycles
 E2(B2PLYPD3) =    -0.2270720504D+00 E(B2PLYPD3) =    -0.15590837113174D+03

 The electronic state is 1-A.
 Alpha  occ. eigenvalues --  -10.62414 -10.62357 -10.62196 -10.61533  -0.93258
 Alpha  occ. eigenvalues --   -0.84197  -0.70332  -0.65604  -0.54818  -0.53208
 Alpha  occ. eigenvalues --   -0.47141  -0.45691  -0.41799  -0.37543  -0.26958
 Alpha virt. eigenvalues --    0.01191   0.06884   0.07534   0.08066   0.08918
 Alpha virt. eigenvalues --    0.11852   0.12460   0.14827   0.15414   0.16135
 Alpha virt. eigenvalues --    0.18501   0.20147   0.21683   0.23359   0.23870

 Mulliken charges:
               1
     1  C   -0.181262
     2  C   -0.040669
     3  C   -0.031222
     4  C   -0.177362
     5  H    0.069055
     6  H    0.081478
     7  H    0.071677
     8  H    0.071454
     9  H    0.058618
    10  H    0.078232
 Sum of Mulliken charges =   0.00000

 Dipole moment (field-independent basis, Debye):
    X=              0.1116    Y=             -0.0774    Z=              0.2967  Tot=              0.3263
 Quadrupole moment (field-independent basis, Debye-Ang):
   XX=            -24.6044   YY=            -22.8479   ZZ=            -29.1285
   XY=             -0.4485   XZ=             -0.4554   YZ=             -0.0536

 1\1\GINC-NODE39\SP\RB2PLYPD3-FC\def2QZVP\C4H6\BOITTIER\26-Aug-2020\0\\
 #p B2PLYPD3/Def2QZVP\\butadiene\\0,1\C,0,-3.824114,0.242643,0.078333\C
 ,0,-2.702079,-0.515918,-0.036491\C,0,-1.393203,0.093705,-0.056823\C,0,
 -0.280734,-0.671312,0.07041\H,0,-4.790091,-0.292151,0.259487\H,0,-3.89
 6834,1.250031,0.050417\H,0,-2.679592,-1.545624,-0.020617\H,0,-1.319926
 ,1.126415,-0.182173\H,0,-0.40122,-1.770697,0.137511\H,0,0.666789,-0.16
 654,0.416621\\Version=ES64L-G09RevD.01\State=1-A\HF=-155.6812991\MP2=-
 155.9083711\RMSD=4.508e-09\PG=C01 [X(C4H6)]\\@

 Normal termination of Gaussian 09 at Wed Aug 26 15:00:15 2020.
