 Gaussian 09, Revision D.01,
 Gaussian 09:  ES64L-G09RevD.01 24-Apr-2013

 --------------------
 #p B2PLYPD3/Def2QZVP
 --------------------

 ---------
 butadiene
 ---------
 Symbolic Z-matrix:
 Charge =  0 Multiplicity = 1

                         Standard orientation:
 ---------------------------------------------------------------------
 Center     Atomic      Atomic             Coordinates (Angstroms)
 Number     Number       Type             X           Y           Z
 ---------------------------------------------------------------------
      1          6           0        1.845831    0.063965    0.098518
      2          6           0        0.590452   -0.382233   -0.119886
      3          6           0       -0.580408    0.455176   -0.031117
      4          6           0       -1.843418   -0.110442    0.040337
      5          1           0        2.642909   -0.602665    0.170030
      6          1           0        2.157975    1.147251   -0.105303
      7          1           0        0.345458   -1.422060   -0.069414
      8          1           0       -0.443591    1.602619   -0.112285
      9          1           0       -1.881807   -1.214229   -0.026392
     10          1           0       -2.895685    0.330288    0.216256
 ---------------------------------------------------------------------

 SCF Done:  E(RB2PLYPD3) =  -155.673889251     A.U. after   11 cycles
 E2(B2PLYPD3) =    -0.2292377090D+00 E(B2PLYPD3) =    -0.15590312696021D+03

 The electronic state is 1-A.
 Alpha  occ. eigenvalues --  -10.64344 -10.63476 -10.62936 -10.62120  -0.92785
 Alpha  occ. eigenvalues --   -0.83736  -0.70151  -0.63535  -0.54798  -0.52120
 Alpha  occ. eigenvalues --   -0.46590  -0.44333  -0.41298  -0.37701  -0.27019
 Alpha virt. eigenvalues --    0.00670   0.06959   0.07074   0.07886   0.08676
 Alpha virt. eigenvalues --    0.11237   0.12590   0.14241   0.15681   0.16669
 Alpha virt. eigenvalues --    0.18583   0.19516   0.21647   0.22715   0.24093

 Mulliken charges:
               1
     1  C   -0.164959
     2  C   -0.037111
     3  C   -0.023376
     4  C   -0.171528
     5  H    0.080577
     6  H    0.064901
     7  H    0.061591
     8  H    0.054251
     9  H    0.049725
    10  H    0.085929
 Sum of Mulliken charges =   0.00000

 Dipole moment (field-independent basis, Debye):
    X=             -0.0057    Y=             -0.0917    Z=             -0.0374  Tot=              0.0991
 Quadrupole moment (field-independent basis, Debye-Ang):
   XX=            -23.1763   YY=            -23.5591   ZZ=            -29.5512
   XY=              0.4082   XZ=             -0.3462   YZ=             -0.2365

 1\1\GINC-NODE18\SP\RB2PLYPD3-FC\def2QZVP\C4H6\BOITTIER\26-Aug-2020\0\\
 #p B2PLYPD3/Def2QZVP\\butadiene\\0,1\C,0,-3.851067,0.197428,-0.071452\
 C,0,-2.703395,-0.480277,0.143803\C,0,-1.394558,0.11892,0.054605\C,0,-0
 .262549,-0.676803,-0.020249\H,0,-4.760652,-0.304963,-0.142865\H,0,-3.9
 50817,1.319869,0.135095\H,0,-2.661073,-1.547615,0.090811\H,0,-1.310139
 ,1.271222,0.138313\H,0,-0.435071,-1.767837,0.044203\H,0,0.854169,-0.44
 4222,-0.197177\\Version=ES64L-G09RevD.01\State=1-A\HF=-155.6738893\MP2
 =-155.903127\RMSD=8.648e-09\PG=C01 [X(C4H6)]\\@

 Normal termination of Gaussian 09 at Wed Aug 26 13:08:14 2020.
