 Gaussian 09, Revision D.01,
 Gaussian 09:  ES64L-G09RevD.01 24-Apr-2013

 --------------------
 #p B2PLYPD3/Def2QZVP
 --------------------

 ---------
 butadiene
 ---------
 Symbolic Z-matrix:
 Charge =  0 Multiplicity = 1

                         Standard orientation:
 ---------------------------------------------------------------------
 Center     Atomic      Atomic             Coordinates (Angstroms)
 Number     Number       Type             X           Y           Z
 ---------------------------------------------------------------------
      1          6           0        1.843412   -0.135839   -0.046123
      2          6           0        0.617908    0.414938    0.032669
      3          6           0       -0.623857   -0.362115    0.019368
      4          6           0       -1.865451    0.089029   -0.030599
      5          1           0        2.749602    0.463235   -0.022615
      6          1           0        1.965823   -1.165523    0.001008
      7          1           0        0.553658    1.501285    0.164208
      8          1           0       -0.407054   -1.427093    0.083695
      9          1           0       -2.000590    1.161916   -0.127318
     10          1           0       -2.693510   -0.569896    0.049127
 ---------------------------------------------------------------------

 SCF Done:  E(RB2PLYPD3) =  -155.696434082     A.U. after   11 cycles
 E2(B2PLYPD3) =    -0.2255620109D+00 E(B2PLYPD3) =    -0.15592199609286D+03

 The electronic state is 1-A.
 Alpha  occ. eigenvalues --  -10.62893 -10.62422 -10.61364 -10.61232  -0.92861
 Alpha  occ. eigenvalues --   -0.85247  -0.70478  -0.63984  -0.54902  -0.53950
 Alpha  occ. eigenvalues --   -0.47211  -0.45935  -0.40883  -0.37735  -0.27888
 Alpha virt. eigenvalues --    0.01623   0.07039   0.07529   0.08040   0.09691
 Alpha virt. eigenvalues --    0.11676   0.12473   0.14671   0.15752   0.16190
 Alpha virt. eigenvalues --    0.18901   0.20280   0.21537   0.22905   0.23850

 Mulliken charges:
               1
     1  C   -0.175782
     2  C   -0.033934
     3  C   -0.023040
     4  C   -0.182143
     5  H    0.083374
     6  H    0.067213
     7  H    0.052659
     8  H    0.046927
     9  H    0.068400
    10  H    0.096327
 Sum of Mulliken charges =   0.00000

 Dipole moment (field-independent basis, Debye):
    X=              0.0646    Y=             -0.0264    Z=              0.1679  Tot=              0.1818
 Quadrupole moment (field-independent basis, Debye-Ang):
   XX=            -23.3035   YY=            -23.2878   ZZ=            -29.1854
   XY=             -0.0468   XZ=              0.0912   YZ=             -0.1083

 1\1\GINC-NODE35\SP\RB2PLYPD3-FC\def2QZVP\C4H6\BOITTIER\26-Aug-2020\0\\
 #p B2PLYPD3/Def2QZVP\\butadiene\\0,1\C,0,-3.846279,0.241692,-0.022367\
 C,0,-2.736102,-0.513236,0.072571\C,0,-1.377316,0.033069,0.037635\C,0,-
 0.234406,-0.630258,0.001035\H,0,-4.843421,-0.188093,0.017835\H,0,-3.78
 587,1.277786,-0.004636\H,0,-2.862889,-1.589857,0.235028\H,0,-1.403559,
 1.120949,0.071512\H,0,-0.290096,-1.712496,-0.065029\H,0,0.696797,-0.12
 4957,0.062288\\Version=ES64L-G09RevD.01\State=1-A\HF=-155.6964341\MP2=
 -155.9219961\RMSD=7.229e-09\PG=C01 [X(C4H6)]\\@

 Normal termination of Gaussian 09 at Wed Aug 26 07:53:16 2020.
