 Gaussian 09, Revision D.01,
 Gaussian 09:  ES64L-G09RevD.01 24-Apr-2013

 --------------------
 #p B2PLYPD3/Def2QZVP
 --------------------

 ---------
 butadiene
 ---------
 Symbolic Z-matrix:
 Charge =  0 Multiplicity = 1

                         Standard orientation:
 ---------------------------------------------------------------------
 Center     Atomic      Atomic             Coordinates (Angstroms)
 Number     Number       Type             X           Y           Z
 ---------------------------------------------------------------------
      1          6           0       -1.803683    0.131981   -0.014956
      2          6           0       -0.621494   -0.460372    0.018265
      3          6           0        0.613909    0.388844   -0.012404
      4          6           0        1.843322   -0.101406   -0.062538
      5          1           0       -2.773914   -0.375047   -0.017734
      6          1           0       -1.848016    1.277733   -0.133132
      7          1           0       -0.605418   -1.543127    0.221065
      8          1           0        0.400247    1.495951    0.234555
      9          1           0        1.969457   -1.169886   -0.079106
     10          1           0        2.665321    0.560091    0.204153
 ---------------------------------------------------------------------

 SCF Done:  E(RB2PLYPD3) =  -155.684799639     A.U. after   11 cycles
 E2(B2PLYPD3) =    -0.2267446849D+00 E(B2PLYPD3) =    -0.15591154432377D+03

 The electronic state is 1-A.
 Alpha  occ. eigenvalues --  -10.63468 -10.62917 -10.62181 -10.61197  -0.92604
 Alpha  occ. eigenvalues --   -0.85122  -0.68613  -0.63129  -0.54090  -0.53664
 Alpha  occ. eigenvalues --   -0.46688  -0.44304  -0.40666  -0.37393  -0.28311
 Alpha virt. eigenvalues --    0.02232   0.06840   0.07233   0.07766   0.08978
 Alpha virt. eigenvalues --    0.11620   0.12444   0.14224   0.15394   0.16336
 Alpha virt. eigenvalues --    0.18752   0.19285   0.21362   0.22997   0.23936

 Mulliken charges:
               1
     1  C   -0.161109
     2  C   -0.045225
     3  C   -0.024646
     4  C   -0.174408
     5  H    0.084756
     6  H    0.049865
     7  H    0.063599
     8  H    0.054495
     9  H    0.068442
    10  H    0.084229
 Sum of Mulliken charges =   0.00000

 Dipole moment (field-independent basis, Debye):
    X=             -0.1577    Y=             -0.0974    Z=              0.4042  Tot=              0.4447
 Quadrupole moment (field-independent basis, Debye-Ang):
   XX=            -23.9266   YY=            -23.2044   ZZ=            -29.2431
   XY=              0.0051   XZ=              0.7152   YZ=              0.1024

 1\1\GINC-NODE29\SP\RB2PLYPD3-FC\def2QZVP\C4H6\BOITTIER\26-Aug-2020\0\\
 #p B2PLYPD3/Def2QZVP\\butadiene\\0,1\C,0,-3.808002,0.232668,0.003198\C
 ,0,-2.746929,-0.554946,0.061026\C,0,-1.382593,0.065383,0.015115\C,0,-0
 .257099,-0.632324,-0.012905\H,0,-4.851627,-0.097873,0.007938\H,0,-3.65
 2149,1.364819,-0.147214\H,0,-2.919809,-1.617747,0.294075\H,0,-1.400896
 ,1.199395,0.229608\H,0,-0.318703,-1.706494,0.001221\H,0,0.666925,-0.11
 6397,0.240833\\Version=ES64L-G09RevD.01\State=1-A\HF=-155.6847996\MP2=
 -155.9115443\RMSD=5.596e-09\PG=C01 [X(C4H6)]\\@

 Normal termination of Gaussian 09 at Wed Aug 26 12:25:46 2020.
