 Gaussian 09, Revision D.01,
 Gaussian 09:  ES64L-G09RevD.01 24-Apr-2013

 --------------------
 #p B2PLYPD3/Def2QZVP
 --------------------

 ---------
 butadiene
 ---------
 Symbolic Z-matrix:
 Charge =  0 Multiplicity = 1

                         Standard orientation:
 ---------------------------------------------------------------------
 Center     Atomic      Atomic             Coordinates (Angstroms)
 Number     Number       Type             X           Y           Z
 ---------------------------------------------------------------------
      1          6           0       -1.853174   -0.117733    0.021894
      2          6           0       -0.615752    0.414511   -0.019628
      3          6           0        0.608970   -0.378450   -0.031013
      4          6           0        1.862630    0.095793    0.034383
      5          1           0       -2.803670    0.448770   -0.081035
      6          1           0       -1.990287   -1.186545    0.112945
      7          1           0       -0.489668    1.513598    0.027247
      8          1           0        0.492902   -1.473499   -0.071158
      9          1           0        2.061422    1.172753   -0.007980
     10          1           0        2.713256   -0.559800   -0.013840
 ---------------------------------------------------------------------

 SCF Done:  E(RB2PLYPD3) =  -155.696705260     A.U. after   11 cycles
 E2(B2PLYPD3) =    -0.2266506056D+00 E(B2PLYPD3) =    -0.15592335586512D+03

 The electronic state is 1-A.
 Alpha  occ. eigenvalues --  -10.63285 -10.62954 -10.62234 -10.61743  -0.92587
 Alpha  occ. eigenvalues --   -0.84664  -0.70134  -0.63644  -0.54523  -0.53486
 Alpha  occ. eigenvalues --   -0.46876  -0.45150  -0.40958  -0.37819  -0.27617
 Alpha virt. eigenvalues --    0.01298   0.06959   0.07391   0.07933   0.09484
 Alpha virt. eigenvalues --    0.11545   0.12497   0.14444   0.15760   0.16275
 Alpha virt. eigenvalues --    0.18962   0.20324   0.21704   0.22377   0.23607

 Mulliken charges:
               1
     1  C   -0.167642
     2  C   -0.035536
     3  C   -0.029366
     4  C   -0.173438
     5  H    0.084931
     6  H    0.063552
     7  H    0.056538
     8  H    0.050665
     9  H    0.063245
    10  H    0.087051
 Sum of Mulliken charges =   0.00000

 Dipole moment (field-independent basis, Debye):
    X=             -0.0369    Y=             -0.0280    Z=             -0.0668  Tot=              0.0813
 Quadrupole moment (field-independent basis, Debye-Ang):
   XX=            -23.1800   YY=            -23.3177   ZZ=            -29.4091
   XY=              0.1419   XZ=             -0.0820   YZ=             -0.0683

 1\1\GINC-NODE25\SP\RB2PLYPD3-FC\def2QZVP\C4H6\BOITTIER\26-Aug-2020\0\\
 #p B2PLYPD3/Def2QZVP\\butadiene\\0,1\C,0,-3.855006,0.230482,-0.004876\
 C,0,-2.731634,-0.511408,0.057215\C,0,-1.385536,0.051398,0.045833\C,0,-
 0.236234,-0.639816,-0.000791\H,0,-4.890651,-0.154557,0.114063\H,0,-3.8
 00443,1.303106,-0.131169\H,0,-2.802878,-1.616351,0.046617\H,0,-1.30517
 5,1.150371,0.049863\H,0,-0.231705,-1.732996,0.077266\H,0,0.717443,-0.1
 44484,0.028171\\Version=ES64L-G09RevD.01\State=1-A\HF=-155.6967053\MP2
 =-155.9233559\RMSD=4.685e-09\PG=C01 [X(C4H6)]\\@

 Normal termination of Gaussian 09 at Wed Aug 26 09:12:49 2020.
