 Gaussian 09, Revision D.01,
 Gaussian 09:  ES64L-G09RevD.01 24-Apr-2013

 --------------------
 #p B2PLYPD3/Def2QZVP
 --------------------

 ---------
 butadiene
 ---------
 Symbolic Z-matrix:
 Charge =  0 Multiplicity = 1

                         Standard orientation:
 ---------------------------------------------------------------------
 Center     Atomic      Atomic             Coordinates (Angstroms)
 Number     Number       Type             X           Y           Z
 ---------------------------------------------------------------------
      1          6           0        1.841585    0.112240   -0.019395
      2          6           0        0.602806   -0.397769    0.034312
      3          6           0       -0.615240    0.402689    0.014033
      4          6           0       -1.837457   -0.114657   -0.028611
      5          1           0        2.730464   -0.544703   -0.068877
      6          1           0        2.058589    1.166346   -0.014020
      7          1           0        0.484678   -1.474205    0.027751
      8          1           0       -0.497774    1.498323    0.071781
      9          1           0       -2.013210   -1.179244    0.021656
     10          1           0       -2.712910    0.518465   -0.040322
 ---------------------------------------------------------------------

 SCF Done:  E(RB2PLYPD3) =  -155.700079960     A.U. after   11 cycles
 E2(B2PLYPD3) =    -0.2257805685D+00 E(B2PLYPD3) =    -0.15592586052857D+03

 The electronic state is 1-A.
 Alpha  occ. eigenvalues --  -10.62708 -10.62650 -10.61796 -10.61372  -0.92871
 Alpha  occ. eigenvalues --   -0.84893  -0.70027  -0.63976  -0.54472  -0.53917
 Alpha  occ. eigenvalues --   -0.46656  -0.45469  -0.41007  -0.38038  -0.27737
 Alpha virt. eigenvalues --    0.01767   0.06976   0.07408   0.07977   0.09563
 Alpha virt. eigenvalues --    0.11629   0.12405   0.14728   0.15811   0.16214
 Alpha virt. eigenvalues --    0.18840   0.20443   0.21683   0.22752   0.23705

 Mulliken charges:
               1
     1  C   -0.172944
     2  C   -0.034897
     3  C   -0.029278
     4  C   -0.173416
     5  H    0.079615
     6  H    0.068338
     7  H    0.058089
     8  H    0.054337
     9  H    0.066025
    10  H    0.084131
 Sum of Mulliken charges =   0.00000

 Dipole moment (field-independent basis, Debye):
    X=             -0.0155    Y=              0.0069    Z=              0.0361  Tot=              0.0398
 Quadrupole moment (field-independent basis, Debye-Ang):
   XX=            -23.4335   YY=            -23.0924   ZZ=            -29.2979
   XY=              0.2316   XZ=             -0.2048   YZ=              0.0399

 1\1\GINC-NODE16\SP\RB2PLYPD3-FC\def2QZVP\C4H6\BOITTIER\26-Aug-2020\0\\
 #p B2PLYPD3/Def2QZVP\\butadiene\\0,1\C,0,-3.844843,0.22526,0.040018\C,
 0,-2.717544,-0.499602,0.003409\C,0,-1.37591,0.070276,-0.002628\C,0,-0.
 265662,-0.655698,0.057302\H,0,-4.836557,-0.260107,0.111078\H,0,-3.8699
 06,1.300438,-0.000274\H,0,-2.793748,-1.579011,0.04561\H,0,-1.295918,1.
 166777,-0.096623\H,0,-0.283379,-1.735616,0.042323\H,0,0.708937,-0.1893
 59,0.048187\\Version=ES64L-G09RevD.01\State=1-A\HF=-155.70008\MP2=-155
 .9258605\RMSD=4.582e-09\PG=C01 [X(C4H6)]\\@

 Normal termination of Gaussian 09 at Wed Aug 26 19:38:12 2020.
