 Gaussian 09, Revision D.01,
 Gaussian 09:  ES64L-G09RevD.01 24-Apr-2013

 --------------------
 #p B2PLYPD3/Def2QZVP
 --------------------

 ---------
 butadiene
 ---------
 Symbolic Z-matrix:
 Charge =  0 Multiplicity = 1

                         Standard orientation:
 ---------------------------------------------------------------------
 Center     Atomic      Atomic             Coordinates (Angstroms)
 Number     Number       Type             X           Y           Z
 ---------------------------------------------------------------------
      1          6           0       -1.832864    0.095806   -0.017309
      2          6           0       -0.592254   -0.384415    0.020438
      3          6           0        0.597911    0.408609    0.001249
      4          6           0        1.822505   -0.121318   -0.024527
      5          1           0       -2.706546   -0.541010    0.009625
      6          1           0       -2.017898    1.167734   -0.058004
      7          1           0       -0.429780   -1.457104    0.066721
      8          1           0        0.509289    1.518104    0.099014
      9          1           0        1.965881   -1.188949   -0.031928
     10          1           0        2.707265    0.509131    0.035469
 ---------------------------------------------------------------------

 SCF Done:  E(RB2PLYPD3) =  -155.699813153     A.U. after   11 cycles
 E2(B2PLYPD3) =    -0.2258555108D+00 E(B2PLYPD3) =    -0.15592566866335D+03

 The electronic state is 1-A.
 Alpha  occ. eigenvalues --  -10.62606 -10.62287 -10.61503 -10.61480  -0.93363
 Alpha  occ. eigenvalues --   -0.84906  -0.70257  -0.63783  -0.54629  -0.54021
 Alpha  occ. eigenvalues --   -0.46548  -0.45369  -0.41207  -0.38363  -0.27608
 Alpha virt. eigenvalues --    0.01662   0.07051   0.07311   0.07970   0.09750
 Alpha virt. eigenvalues --    0.11696   0.12430   0.14764   0.15787   0.16178
 Alpha virt. eigenvalues --    0.18733   0.20399   0.21654   0.22718   0.23805

 Mulliken charges:
               1
     1  C   -0.174896
     2  C   -0.029074
     3  C   -0.021603
     4  C   -0.178031
     5  H    0.086425
     6  H    0.064413
     7  H    0.052151
     8  H    0.050586
     9  H    0.065196
    10  H    0.084833
 Sum of Mulliken charges =   0.00000

 Dipole moment (field-independent basis, Debye):
    X=              0.0215    Y=             -0.0137    Z=              0.1221  Tot=              0.1247
 Quadrupole moment (field-independent basis, Debye-Ang):
   XX=            -23.5041   YY=            -23.1466   ZZ=            -29.2382
   XY=             -0.1159   XZ=              0.1750   YZ=              0.0377

 1\1\GINC-NODE19\SP\RB2PLYPD3-FC\def2QZVP\C4H6\BOITTIER\26-Aug-2020\0\\
 #p B2PLYPD3/Def2QZVP\\butadiene\\0,1\C,0,-3.836568,0.212216,0.001909\C
 ,0,-2.703891,-0.484418,0.055702\C,0,-1.389411,0.078304,0.020559\C,0,-0
 .281605,-0.66588,0.012041\H,0,-4.81143,-0.254287,0.041918\H,0,-3.82369
 ,1.298549,-0.066194\H,0,-2.739083,-1.567257,0.129337\H,0,-1.274712,1.1
 87529,0.090246\H,0,-0.33473,-1.741628,0.03182\H,0,0.703109,-0.20546,0.
 059129\\Version=ES64L-G09RevD.01\State=1-A\HF=-155.6998132\MP2=-155.92
 56687\RMSD=3.983e-09\PG=C01 [X(C4H6)]\\@

 Normal termination of Gaussian 09 at Wed Aug 26 19:49:35 2020.
