 Gaussian 09, Revision D.01,
 Gaussian 09:  ES64L-G09RevD.01 24-Apr-2013

 --------------------
 #p B2PLYPD3/Def2QZVP
 --------------------

 ---------
 butadiene
 ---------
 Symbolic Z-matrix:
 Charge =  0 Multiplicity = 1

                         Standard orientation:
 ---------------------------------------------------------------------
 Center     Atomic      Atomic             Coordinates (Angstroms)
 Number     Number       Type             X           Y           Z
 ---------------------------------------------------------------------
      1          6           0        1.835749   -0.108028    0.014049
      2          6           0        0.613597    0.404266   -0.028181
      3          6           0       -0.590621   -0.378228   -0.038414
      4          6           0       -1.844186    0.101659    0.036034
      5          1           0        2.722762    0.486735    0.003546
      6          1           0        1.986074   -1.170200    0.076286
      7          1           0        0.451551    1.485029    0.049164
      8          1           0       -0.421357   -1.437081   -0.016205
      9          1           0       -2.143839    1.108416   -0.028570
     10          1           0       -2.682426   -0.590916    0.014854
 ---------------------------------------------------------------------

 SCF Done:  E(RB2PLYPD3) =  -155.697759141     A.U. after   11 cycles
 E2(B2PLYPD3) =    -0.2255576406D+00 E(B2PLYPD3) =    -0.15592331678135D+03

 The electronic state is 1-A.
 Alpha  occ. eigenvalues --  -10.62434 -10.62313 -10.61425 -10.61282  -0.93273
 Alpha  occ. eigenvalues --   -0.84962  -0.70955  -0.64280  -0.55157  -0.53866
 Alpha  occ. eigenvalues --   -0.47147  -0.45736  -0.40923  -0.38219  -0.27621
 Alpha virt. eigenvalues --    0.01434   0.06982   0.07511   0.08135   0.09713
 Alpha virt. eigenvalues --    0.11675   0.12552   0.14973   0.15757   0.16137
 Alpha virt. eigenvalues --    0.18873   0.20449   0.22087   0.22672   0.23706

 Mulliken charges:
               1
     1  C   -0.174028
     2  C   -0.024547
     3  C   -0.031939
     4  C   -0.175680
     5  H    0.087426
     6  H    0.061989
     7  H    0.053700
     8  H    0.056048
     9  H    0.071290
    10  H    0.075741
 Sum of Mulliken charges =   0.00000

 Dipole moment (field-independent basis, Debye):
    X=              0.0386    Y=              0.0128    Z=              0.0363  Tot=              0.0546
 Quadrupole moment (field-independent basis, Debye-Ang):
   XX=            -23.1977   YY=            -23.2766   ZZ=            -29.1654
   XY=             -0.4484   XZ=              0.2248   YZ=             -0.0602

 1\1\GINC-NODE08\SP\RB2PLYPD3-FC\def2QZVP\C4H6\BOITTIER\26-Aug-2020\0\\
 #p B2PLYPD3/Def2QZVP\\butadiene\\0,1\C,0,-3.833978,0.233003,0.037853\C
 ,0,-2.727923,-0.497538,0.008923\C,0,-1.399785,0.048047,-0.021541\C,0,-
 0.256307,-0.653502,0.065329\H,0,-4.815757,-0.187392,0.042735\H,0,-3.78
 4891,1.30588,0.072568\H,0,-2.768264,-1.587297,0.114225\H,0,-1.370115,1
 .120151,-0.026756\H,0,-0.148404,-1.699637,0.026817\H,0,0.695487,-0.128
 797,0.026242\\Version=ES64L-G09RevD.01\State=1-A\HF=-155.6977591\MP2=-
 155.9233168\RMSD=5.601e-09\PG=C01 [X(C4H6)]\\@

 Normal termination of Gaussian 09 at Wed Aug 26 08:42:12 2020.
