 Gaussian 09, Revision D.01,
 Gaussian 09:  ES64L-G09RevD.01 24-Apr-2013

 --------------------
 #p B2PLYPD3/Def2QZVP
 --------------------

 ---------
 butadiene
 ---------
 Symbolic Z-matrix:
 Charge =  0 Multiplicity = 1

                         Standard orientation:
 ---------------------------------------------------------------------
 Center     Atomic      Atomic             Coordinates (Angstroms)
 Number     Number       Type             X           Y           Z
 ---------------------------------------------------------------------
      1          6           0        1.855603    0.104925   -0.033180
      2          6           0        0.615657   -0.402342    0.035026
      3          6           0       -0.613415    0.402611   -0.002193
      4          6           0       -1.848617   -0.108268   -0.007712
      5          1           0        2.718166   -0.494695   -0.018440
      6          1           0        1.945379    1.156104   -0.051381
      7          1           0        0.481523   -1.465617    0.126705
      8          1           0       -0.414881    1.482582    0.129757
      9          1           0       -2.056679   -1.168525   -0.130980
     10          1           0       -2.728879    0.508595   -0.007307
 ---------------------------------------------------------------------

 SCF Done:  E(RB2PLYPD3) =  -155.697580074     A.U. after   11 cycles
 E2(B2PLYPD3) =    -0.2257382197D+00 E(B2PLYPD3) =    -0.15592331829417D+03

 The electronic state is 1-A.
 Alpha  occ. eigenvalues --  -10.63056 -10.62500 -10.61701 -10.60990  -0.92709
 Alpha  occ. eigenvalues --   -0.84988  -0.70513  -0.64078  -0.55194  -0.53540
 Alpha  occ. eigenvalues --   -0.47390  -0.45738  -0.40940  -0.37682  -0.27794
 Alpha virt. eigenvalues --    0.01636   0.07085   0.07444   0.08131   0.09409
 Alpha virt. eigenvalues --    0.11644   0.12564   0.14720   0.15696   0.16172
 Alpha virt. eigenvalues --    0.18866   0.20263   0.21867   0.22988   0.23506

 Mulliken charges:
               1
     1  C   -0.179662
     2  C   -0.027717
     3  C   -0.035596
     4  C   -0.173944
     5  H    0.092374
     6  H    0.063284
     7  H    0.054726
     8  H    0.054442
     9  H    0.067911
    10  H    0.084181
 Sum of Mulliken charges =   0.00000

 Dipole moment (field-independent basis, Debye):
    X=             -0.0143    Y=             -0.0347    Z=              0.0562  Tot=              0.0676
 Quadrupole moment (field-independent basis, Debye-Ang):
   XX=            -23.2043   YY=            -23.2829   ZZ=            -29.2246
   XY=              0.2308   XZ=              0.1367   YZ=              0.1327

 1\1\GINC-NODE32\SP\RB2PLYPD3-FC\def2QZVP\C4H6\BOITTIER\26-Aug-2020\0\\
 #p B2PLYPD3/Def2QZVP\\butadiene\\0,1\C,0,-3.857329,0.223777,0.045935\C
 ,0,-2.729294,-0.500795,0.001563\C,0,-1.375205,0.070424,0.011768\C,0,-0
 .252217,-0.653996,0.041189\H,0,-4.813839,-0.210774,0.051487\H,0,-3.756
 226,1.273839,0.02318\H,0,-2.789213,-1.573574,-0.048487\H,0,-1.376442,1
 .162574,-0.162504\H,0,-0.238087,-1.728821,0.206056\H,0,0.724753,-0.206
 27,0.019897\\Version=ES64L-G09RevD.01\State=1-A\HF=-155.6975801\MP2=-1
 55.9233183\RMSD=4.961e-09\PG=C01 [X(C4H6)]\\@

 Normal termination of Gaussian 09 at Wed Aug 26 08:57:56 2020.
