 Gaussian 09, Revision D.01,
 Gaussian 09:  ES64L-G09RevD.01 24-Apr-2013

 --------------------
 #p B2PLYPD3/Def2QZVP
 --------------------

 ---------
 butadiene
 ---------
 Symbolic Z-matrix:
 Charge =  0 Multiplicity = 1

                         Standard orientation:
 ---------------------------------------------------------------------
 Center     Atomic      Atomic             Coordinates (Angstroms)
 Number     Number       Type             X           Y           Z
 ---------------------------------------------------------------------
      1          6           0        1.822829   -0.130136    0.013867
      2          6           0        0.598057    0.422234   -0.016564
      3          6           0       -0.605665   -0.381960   -0.050160
      4          6           0       -1.832376    0.101628    0.010031
      5          1           0        2.711029    0.508917    0.025280
      6          1           0        1.935398   -1.227994    0.108067
      7          1           0        0.556693    1.515230   -0.071885
      8          1           0       -0.417381   -1.474539    0.005545
      9          1           0       -1.992421    1.161474    0.159649
     10          1           0       -2.690386   -0.553681    0.030290
 ---------------------------------------------------------------------

 SCF Done:  E(RB2PLYPD3) =  -155.697352434     A.U. after   11 cycles
 E2(B2PLYPD3) =    -0.2261214989D+00 E(B2PLYPD3) =    -0.15592347393271D+03

 The electronic state is 1-A.
 Alpha  occ. eigenvalues --  -10.62614 -10.62524 -10.61952 -10.61233  -0.93133
 Alpha  occ. eigenvalues --   -0.84945  -0.69728  -0.63645  -0.54368  -0.53966
 Alpha  occ. eigenvalues --   -0.46236  -0.45327  -0.41226  -0.38210  -0.27679
 Alpha virt. eigenvalues --    0.01792   0.07034   0.07255   0.07950   0.09505
 Alpha virt. eigenvalues --    0.11733   0.12342   0.14691   0.15590   0.16308
 Alpha virt. eigenvalues --    0.18681   0.20102   0.21591   0.22797   0.23866

 Mulliken charges:
               1
     1  C   -0.176754
     2  C   -0.030888
     3  C   -0.024419
     4  C   -0.173880
     5  H    0.084507
     6  H    0.063116
     7  H    0.054441
     8  H    0.050149
     9  H    0.067452
    10  H    0.086275
 Sum of Mulliken charges =   0.00000

 Dipole moment (field-independent basis, Debye):
    X=              0.0164    Y=              0.0278    Z=              0.1959  Tot=              0.1985
 Quadrupole moment (field-independent basis, Debye-Ang):
   XX=            -23.7740   YY=            -23.0521   ZZ=            -29.2752
   XY=              0.0638   XZ=             -0.2046   YZ=             -0.0610

 1\1\GINC-NODE02\SP\RB2PLYPD3-FC\def2QZVP\C4H6\BOITTIER\26-Aug-2020\0\\
 #p B2PLYPD3/Def2QZVP\\butadiene\\0,1\C,0,-3.824157,0.239361,0.034406\C
 ,0,-2.717434,-0.522904,0.01953\C,0,-1.389686,0.053068,-0.026795\C,0,-0
 .268758,-0.639968,0.047507\H,0,-4.812015,-0.230833,0.056164\H,0,-3.739
 245,1.341445,0.105377\H,0,-2.871528,-1.6067,-0.012908\H,0,-1.380235,1.
 162639,0.005548\H,0,-0.300072,-1.707982,0.219666\H,0,0.692303,-0.14773
 6,0.056975\\Version=ES64L-G09RevD.01\State=1-A\HF=-155.6973524\MP2=-15
 5.9234739\RMSD=6.352e-09\PG=C01 [X(C4H6)]\\@

 Normal termination of Gaussian 09 at Wed Aug 26 08:45:43 2020.
