 Gaussian 09, Revision D.01,
 Gaussian 09:  ES64L-G09RevD.01 24-Apr-2013

 --------------------
 #p B2PLYPD3/Def2QZVP
 --------------------

 ---------
 butadiene
 ---------
 Symbolic Z-matrix:
 Charge =  0 Multiplicity = 1

                         Standard orientation:
 ---------------------------------------------------------------------
 Center     Atomic      Atomic             Coordinates (Angstroms)
 Number     Number       Type             X           Y           Z
 ---------------------------------------------------------------------
      1          6           0       -1.841448    0.106058    0.019449
      2          6           0       -0.611827   -0.380000   -0.024183
      3          6           0        0.608674    0.407734   -0.026825
      4          6           0        1.841609   -0.120906    0.000165
      5          1           0       -2.660669   -0.573254    0.028161
      6          1           0       -2.031771    1.162119    0.020258
      7          1           0       -0.516325   -1.465762    0.019303
      8          1           0        0.501862    1.504706   -0.014225
      9          1           0        2.004231   -1.208949    0.016009
     10          1           0        2.720626    0.503824    0.118860
 ---------------------------------------------------------------------

 SCF Done:  E(RB2PLYPD3) =  -155.699809620     A.U. after   11 cycles
 E2(B2PLYPD3) =    -0.2256637084D+00 E(B2PLYPD3) =    -0.15592547332806D+03

 The electronic state is 1-A.
 Alpha  occ. eigenvalues --  -10.62867 -10.62290 -10.61874 -10.60975  -0.92972
 Alpha  occ. eigenvalues --   -0.85106  -0.70107  -0.63738  -0.54575  -0.54119
 Alpha  occ. eigenvalues --   -0.46531  -0.45546  -0.41078  -0.38167  -0.27767
 Alpha virt. eigenvalues --    0.01746   0.07007   0.07388   0.07990   0.09716
 Alpha virt. eigenvalues --    0.11671   0.12361   0.14732   0.15806   0.16218
 Alpha virt. eigenvalues --    0.18809   0.20218   0.21675   0.22726   0.23971

 Mulliken charges:
               1
     1  C   -0.178423
     2  C   -0.020733
     3  C   -0.037066
     4  C   -0.171322
     5  H    0.086675
     6  H    0.067437
     7  H    0.050206
     8  H    0.053118
     9  H    0.064909
    10  H    0.085199
 Sum of Mulliken charges =   0.00000

 Dipole moment (field-independent basis, Debye):
    X=             -0.0052    Y=             -0.0020    Z=              0.1361  Tot=              0.1362
 Quadrupole moment (field-independent basis, Debye-Ang):
   XX=            -23.5665   YY=            -23.0421   ZZ=            -29.2558
   XY=             -0.0476   XZ=              0.2632   YZ=              0.0187

 1\1\GINC-NODE35\SP\RB2PLYPD3-FC\def2QZVP\C4H6\BOITTIER\26-Aug-2020\0\\
 #p B2PLYPD3/Def2QZVP\\butadiene\\0,1\C,0,-3.845386,0.215829,0.03767\C,
 0,-2.721728,-0.481983,0.01366\C,0,-1.380724,0.076019,-0.008603\C,0,-0.
 261245,-0.662081,0.039298\H,0,-4.772223,-0.306601,0.064181\H,0,-3.8451
 04,1.288414,0.005268\H,0,-2.820522,-1.565572,0.090891\H,0,-1.290971,1.
 174379,-0.030162\H,0,-0.294439,-1.760689,0.089224\H,0,0.714965,-0.2000
 14,0.142038\\Version=ES64L-G09RevD.01\State=1-A\HF=-155.6998096\MP2=-1
 55.9254733\RMSD=5.276e-09\PG=C01 [X(C4H6)]\\@

 Normal termination of Gaussian 09 at Wed Aug 26 08:00:13 2020.
