 Gaussian 09, Revision D.01,
 Gaussian 09:  ES64L-G09RevD.01 24-Apr-2013

 --------------------
 #p B2PLYPD3/Def2QZVP
 --------------------

 ---------
 butadiene
 ---------
 Symbolic Z-matrix:
 Charge =  0 Multiplicity = 1

                         Standard orientation:
 ---------------------------------------------------------------------
 Center     Atomic      Atomic             Coordinates (Angstroms)
 Number     Number       Type             X           Y           Z
 ---------------------------------------------------------------------
      1          6           0        1.844857   -0.098665    0.030477
      2          6           0        0.595235    0.377482   -0.058767
      3          6           0       -0.621068   -0.428941   -0.043931
      4          6           0       -1.835675    0.123180    0.044981
      5          1           0        2.617319    0.596939    0.116415
      6          1           0        2.113417   -1.125739   -0.012353
      7          1           0        0.496260    1.456616   -0.016367
      8          1           0       -0.425037   -1.469571    0.054286
      9          1           0       -1.990056    1.217896    0.020835
     10          1           0       -2.712003   -0.514482    0.000624
 ---------------------------------------------------------------------

 SCF Done:  E(RB2PLYPD3) =  -155.695913832     A.U. after   11 cycles
 E2(B2PLYPD3) =    -0.2257350676D+00 E(B2PLYPD3) =    -0.15592164889998D+03

 The electronic state is 1-A.
 Alpha  occ. eigenvalues --  -10.62483 -10.62340 -10.61957 -10.60788  -0.92904
 Alpha  occ. eigenvalues --   -0.84972  -0.70416  -0.64283  -0.54537  -0.54106
 Alpha  occ. eigenvalues --   -0.46950  -0.45786  -0.41146  -0.37904  -0.27620
 Alpha virt. eigenvalues --    0.01630   0.07027   0.07471   0.08166   0.09404
 Alpha virt. eigenvalues --    0.11729   0.12380   0.14918   0.15551   0.16213
 Alpha virt. eigenvalues --    0.18815   0.20017   0.21734   0.22823   0.24425

 Mulliken charges:
               1
     1  C   -0.185440
     2  C   -0.020824
     3  C   -0.046465
     4  C   -0.168005
     5  H    0.082730
     6  H    0.068342
     7  H    0.050825
     8  H    0.065762
     9  H    0.069517
    10  H    0.083558
 Sum of Mulliken charges =   0.00000

 Dipole moment (field-independent basis, Debye):
    X=             -0.0016    Y=             -0.0167    Z=              0.0697  Tot=              0.0717
 Quadrupole moment (field-independent basis, Debye-Ang):
   XX=            -23.6452   YY=            -22.9700   ZZ=            -29.2320
   XY=             -0.3227   XZ=              0.2564   YZ=              0.0553

 1\1\GINC-NODE36\SP\RB2PLYPD3-FC\def2QZVP\C4H6\BOITTIER\26-Aug-2020\0\\
 #p B2PLYPD3/Def2QZVP\\butadiene\\0,1\C,0,-3.850263,0.218334,0.055325\C
 ,0,-2.709436,-0.481242,-0.017775\C,0,-1.366052,0.088925,-0.03043\C,0,-
 0.272428,-0.672939,0.077108\H,0,-4.736398,-0.320838,0.1649\H,0,-3.9266
 4,1.275203,-0.022359\H,0,-2.809305,-1.55823,0.06126\H,0,-1.367759,1.15
 0545,0.032386\H,0,-0.321097,-1.777602,0.09016\H,0,0.705478,-0.208323,0
 .011051\\Version=ES64L-G09RevD.01\State=1-A\HF=-155.6959138\MP2=-155.9
 216489\RMSD=4.714e-09\PG=C01 [X(C4H6)]\\@

 Normal termination of Gaussian 09 at Wed Aug 26 10:52:55 2020.
