 Gaussian 09, Revision D.01,
 Gaussian 09:  ES64L-G09RevD.01 24-Apr-2013

 --------------------
 #p B2PLYPD3/Def2QZVP
 --------------------

 ---------
 butadiene
 ---------
 Symbolic Z-matrix:
 Charge =  0 Multiplicity = 1

                         Standard orientation:
 ---------------------------------------------------------------------
 Center     Atomic      Atomic             Coordinates (Angstroms)
 Number     Number       Type             X           Y           Z
 ---------------------------------------------------------------------
      1          6           0       -1.838966   -0.108851   -0.000681
      2          6           0       -0.594697    0.396401    0.008386
      3          6           0        0.607824   -0.416708   -0.001112
      4          6           0        1.835369    0.118200   -0.014592
      5          1           0       -2.665134    0.552767   -0.022823
      6          1           0       -2.036114   -1.154652   -0.050251
      7          1           0       -0.467297    1.489485    0.061556
      8          1           0        0.436961   -1.477179    0.059580
      9          1           0        1.965213    1.183147   -0.036203
     10          1           0        2.709197   -0.527823    0.036130
 ---------------------------------------------------------------------

 SCF Done:  E(RB2PLYPD3) =  -155.699964143     A.U. after   11 cycles
 E2(B2PLYPD3) =    -0.2258022684D+00 E(B2PLYPD3) =    -0.15592576641119D+03

 The electronic state is 1-A.
 Alpha  occ. eigenvalues --  -10.62636 -10.62437 -10.61571 -10.61084  -0.92961
 Alpha  occ. eigenvalues --   -0.84831  -0.70319  -0.64171  -0.54439  -0.54175
 Alpha  occ. eigenvalues --   -0.46602  -0.45990  -0.41358  -0.38002  -0.27517
 Alpha virt. eigenvalues --    0.01667   0.07043   0.07400   0.08103   0.09483
 Alpha virt. eigenvalues --    0.11762   0.12398   0.14864   0.15892   0.15960
 Alpha virt. eigenvalues --    0.18711   0.20461   0.21623   0.22980   0.24046

 Mulliken charges:
               1
     1  C   -0.184109
     2  C   -0.024517
     3  C   -0.033933
     4  C   -0.177318
     5  H    0.085859
     6  H    0.067819
     7  H    0.050436
     8  H    0.058516
     9  H    0.071127
    10  H    0.086121
 Sum of Mulliken charges =   0.00000

 Dipole moment (field-independent basis, Debye):
    X=              0.0027    Y=             -0.0133    Z=              0.0425  Tot=              0.0446
 Quadrupole moment (field-independent basis, Debye-Ang):
   XX=            -23.6893   YY=            -22.9559   ZZ=            -29.2753
   XY=              0.2214   XZ=              0.2261   YZ=             -0.0274

 1\1\GINC-NODE26\SP\RB2PLYPD3-FC\def2QZVP\C4H6\BOITTIER\26-Aug-2020\0\\
 #p B2PLYPD3/Def2QZVP\\butadiene\\0,1\C,0,-3.841975,0.225761,0.020732\C
 ,0,-2.710491,-0.497613,0.027124\C,0,-1.38005,0.082899,0.012077\C,0,-0.
 270285,-0.665904,0.041904\H,0,-4.774613,-0.273432,0.062848\H,0,-3.8452
 52,1.290983,0.038535\H,0,-2.78442,-1.596715,0.007149\H,0,-1.355409,1.1
 54463,-0.080773\H,0,-0.336285,-1.735565,0.095823\H,0,0.706224,-0.19156
 7,-0.028301\\Version=ES64L-G09RevD.01\State=1-A\HF=-155.6999641\MP2=-1
 55.9257664\RMSD=2.654e-09\PG=C01 [X(C4H6)]\\@

 Normal termination of Gaussian 09 at Wed Aug 26 11:07:15 2020.
