 Gaussian 09, Revision D.01,
 Gaussian 09:  ES64L-G09RevD.01 24-Apr-2013

 --------------------
 #p B2PLYPD3/Def2QZVP
 --------------------

 ---------
 butadiene
 ---------
 Symbolic Z-matrix:
 Charge =  0 Multiplicity = 1

                         Standard orientation:
 ---------------------------------------------------------------------
 Center     Atomic      Atomic             Coordinates (Angstroms)
 Number     Number       Type             X           Y           Z
 ---------------------------------------------------------------------
      1          6           0        1.808672   -0.127032    0.021556
      2          6           0        0.579525    0.403788   -0.060971
      3          6           0       -0.593804   -0.394263   -0.037860
      4          6           0       -1.816014    0.090273    0.041361
      5          1           0        2.691109    0.561875    0.094752
      6          1           0        2.062492   -1.129036    0.264466
      7          1           0        0.386172    1.482168   -0.149968
      8          1           0       -0.389988   -1.380740   -0.248604
      9          1           0       -1.911086    1.207531    0.181393
     10          1           0       -2.708969   -0.578399    0.073446
 ---------------------------------------------------------------------

 SCF Done:  E(RB2PLYPD3) =  -155.687223580     A.U. after   11 cycles
 E2(B2PLYPD3) =    -0.2262545902D+00 E(B2PLYPD3) =    -0.15591347817037D+03

 The electronic state is 1-A.
 Alpha  occ. eigenvalues --  -10.62542 -10.62106 -10.61802 -10.61097  -0.93956
 Alpha  occ. eigenvalues --   -0.84675  -0.70227  -0.64572  -0.55004  -0.53012
 Alpha  occ. eigenvalues --   -0.47100  -0.45186  -0.40859  -0.38266  -0.27663
 Alpha virt. eigenvalues --    0.01565   0.06981   0.07405   0.07959   0.09489
 Alpha virt. eigenvalues --    0.11818   0.12324   0.14941   0.15178   0.16014
 Alpha virt. eigenvalues --    0.18506   0.20093   0.21549   0.22752   0.23545

 Mulliken charges:
               1
     1  C   -0.177434
     2  C   -0.030849
     3  C   -0.022843
     4  C   -0.180267
     5  H    0.069226
     6  H    0.073910
     7  H    0.055261
     8  H    0.067235
     9  H    0.058456
    10  H    0.087307
 Sum of Mulliken charges =   0.00000

 Dipole moment (field-independent basis, Debye):
    X=             -0.0066    Y=             -0.0694    Z=              0.1407  Tot=              0.1570
 Quadrupole moment (field-independent basis, Debye-Ang):
   XX=            -23.9822   YY=            -23.2581   ZZ=            -29.0347
   XY=             -0.2828   XZ=              0.3842   YZ=              0.0088

 1\1\GINC-NODE22\SP\RB2PLYPD3-FC\def2QZVP\C4H6\BOITTIER\26-Aug-2020\0\\
 #p B2PLYPD3/Def2QZVP\\butadiene\\0,1\C,0,-3.807609,0.247425,0.047375\C
 ,0,-2.700599,-0.507167,-0.019714\C,0,-1.398166,0.056551,-0.02323\C,0,-
 0.288135,-0.646305,0.06989\H,0,-4.803157,-0.260824,0.14336\H,0,-3.8670
 62,1.286289,0.258728\H,0,-2.713787,-1.604895,-0.074743\H,0,-1.414631,1
 .056766,-0.264869\H,0,-0.403532,-1.756661,0.245119\H,0,0.714689,-0.156
 645,0.079762\\Version=ES64L-G09RevD.01\State=1-A\HF=-155.6872236\MP2=-
 155.9134782\RMSD=9.457e-09\PG=C01 [X(C4H6)]\\@

 Normal termination of Gaussian 09 at Wed Aug 26 13:42:03 2020.
