 Gaussian 09, Revision D.01,
 Gaussian 09:  ES64L-G09RevD.01 24-Apr-2013

 --------------------
 #p B2PLYPD3/Def2QZVP
 --------------------

 ---------
 butadiene
 ---------
 Symbolic Z-matrix:
 Charge =  0 Multiplicity = 1

                         Standard orientation:
 ---------------------------------------------------------------------
 Center     Atomic      Atomic             Coordinates (Angstroms)
 Number     Number       Type             X           Y           Z
 ---------------------------------------------------------------------
      1          6           0       -1.876803    0.070970   -0.011686
      2          6           0       -0.644299   -0.313254   -0.044626
      3          6           0        0.636744    0.434237   -0.034007
      4          6           0        1.846477   -0.166573    0.030478
      5          1           0       -2.684385   -0.597645    0.317627
      6          1           0       -1.958877    1.146257   -0.039787
      7          1           0       -0.480835   -1.396640   -0.051346
      8          1           0        0.580807    1.464561    0.076619
      9          1           0        1.945321   -1.211031   -0.040489
     10          1           0        2.825257    0.442219    0.096423
 ---------------------------------------------------------------------

 SCF Done:  E(RB2PLYPD3) =  -155.682254777     A.U. after   11 cycles
 E2(B2PLYPD3) =    -0.2258232145D+00 E(B2PLYPD3) =    -0.15590807799199D+03

 The electronic state is 1-A.
 Alpha  occ. eigenvalues --  -10.62861 -10.62617 -10.62068 -10.60887  -0.93020
 Alpha  occ. eigenvalues --   -0.85657  -0.69808  -0.64232  -0.54836  -0.53451
 Alpha  occ. eigenvalues --   -0.47911  -0.44888  -0.40225  -0.37859  -0.28289
 Alpha virt. eigenvalues --    0.01608   0.06856   0.07683   0.07888   0.09726
 Alpha virt. eigenvalues --    0.11653   0.12450   0.14461   0.15407   0.16276
 Alpha virt. eigenvalues --    0.18677   0.19296   0.21914   0.22593   0.24111

 Mulliken charges:
               1
     1  C   -0.175746
     2  C   -0.001047
     3  C   -0.057580
     4  C   -0.168567
     5  H    0.094273
     6  H    0.054013
     7  H    0.037827
     8  H    0.062812
     9  H    0.075264
    10  H    0.078750
 Sum of Mulliken charges =   0.00000

 Dipole moment (field-independent basis, Debye):
    X=              0.1878    Y=             -0.0204    Z=              0.2834  Tot=              0.3406
 Quadrupole moment (field-independent basis, Debye-Ang):
   XX=            -23.6141   YY=            -23.4151   ZZ=            -29.0659
   XY=              0.1907   XZ=             -0.6379   YZ=             -0.0402

 1\1\GINC-NODE13\SP\RB2PLYPD3-FC\def2QZVP\C4H6\BOITTIER\26-Aug-2020\0\\
 #p B2PLYPD3/Def2QZVP\\butadiene\\0,1\C,0,-3.887333,0.16581,0.022838\C,
 0,-2.736542,-0.419814,0.000434\C,0,-1.348697,0.103089,-0.019237\C,0,-0
 .255651,-0.688731,0.063564\H,0,-4.792276,-0.346572,0.378121\H,0,-3.789
 091,1.238048,-0.043664\H,0,-2.756189,-1.514846,0.032211\H,0,-1.230989,
 1.13151,0.054444\H,0,-0.33307,-1.73686,0.02991\H,0,0.811516,-0.250066,
 0.104975\\Version=ES64L-G09RevD.01\State=1-A\HF=-155.6822548\MP2=-155.
 908078\RMSD=7.042e-09\PG=C01 [X(C4H6)]\\@

 Normal termination of Gaussian 09 at Wed Aug 26 14:16:29 2020.
