 Gaussian 09, Revision D.01,
 Gaussian 09:  ES64L-G09RevD.01 24-Apr-2013

 --------------------
 #p B2PLYPD3/Def2QZVP
 --------------------

 ---------
 butadiene
 ---------
 Symbolic Z-matrix:
 Charge =  0 Multiplicity = 1

                         Standard orientation:
 ---------------------------------------------------------------------
 Center     Atomic      Atomic             Coordinates (Angstroms)
 Number     Number       Type             X           Y           Z
 ---------------------------------------------------------------------
      1          6           0       -1.848283    0.101149   -0.016451
      2          6           0       -0.609313   -0.386210    0.013171
      3          6           0        0.604880    0.399704    0.019472
      4          6           0        1.841422   -0.113085   -0.015812
      5          1           0       -2.724307   -0.542709   -0.003737
      6          1           0       -1.991889    1.183170   -0.081741
      7          1           0       -0.460961   -1.453731    0.076809
      8          1           0        0.517571    1.509055    0.100267
      9          1           0        2.004327   -1.190656   -0.049929
     10          1           0        2.723021    0.485526   -0.043946
 ---------------------------------------------------------------------

 SCF Done:  E(RB2PLYPD3) =  -155.699823429     A.U. after   11 cycles
 E2(B2PLYPD3) =    -0.2258987165D+00 E(B2PLYPD3) =    -0.15592572214545D+03

 The electronic state is 1-A.
 Alpha  occ. eigenvalues --  -10.62889 -10.62412 -10.61695 -10.61550  -0.93007
 Alpha  occ. eigenvalues --   -0.84946  -0.70280  -0.63718  -0.54779  -0.53805
 Alpha  occ. eigenvalues --   -0.46893  -0.45253  -0.41065  -0.38111  -0.27721
 Alpha virt. eigenvalues --    0.01611   0.07031   0.07381   0.07979   0.09718
 Alpha virt. eigenvalues --    0.11621   0.12443   0.14610   0.15848   0.16152
 Alpha virt. eigenvalues --    0.18836   0.20475   0.21528   0.22658   0.23690

 Mulliken charges:
               1
     1  C   -0.175244
     2  C   -0.028944
     3  C   -0.027736
     4  C   -0.174892
     5  H    0.089700
     6  H    0.065480
     7  H    0.054079
     8  H    0.048839
     9  H    0.060557
    10  H    0.088162
 Sum of Mulliken charges =   0.00000

 Dipole moment (field-independent basis, Debye):
    X=              0.0344    Y=             -0.0224    Z=              0.0144  Tot=              0.0435
 Quadrupole moment (field-independent basis, Debye-Ang):
   XX=            -23.2994   YY=            -23.2420   ZZ=            -29.2790
   XY=             -0.0080   XZ=             -0.0500   YZ=             -0.0379

 1\1\GINC-NODE38\SP\RB2PLYPD3-FC\def2QZVP\C4H6\BOITTIER\26-Aug-2020\0\\
 #p B2PLYPD3/Def2QZVP\\butadiene\\0,1\C,0,-3.85143,0.213873,0.002922\C,
 0,-2.719283,-0.485812,0.049024\C,0,-1.384261,0.070468,0.033698\C,0,-0.
 259291,-0.655721,0.01568\H,0,-4.828283,-0.262525,0.03353\H,0,-3.799783
 ,1.301722,-0.094922\H,0,-2.763678,-1.560297,0.14479\H,0,-1.271784,1.17
 9481,0.081144\H,0,-0.291535,-1.745592,0.014058\H,0,0.714909,-0.225276,
 -0.028979\\Version=ES64L-G09RevD.01\State=1-A\HF=-155.6998234\MP2=-155
 .9257221\RMSD=3.391e-09\PG=C01 [X(C4H6)]\\@

 Normal termination of Gaussian 09 at Wed Aug 26 19:59:50 2020.
