 Gaussian 09, Revision D.01,
 Gaussian 09:  ES64L-G09RevD.01 24-Apr-2013

 --------------------
 #p B2PLYPD3/Def2QZVP
 --------------------

 ---------
 butadiene
 ---------
 Symbolic Z-matrix:
 Charge =  0 Multiplicity = 1

                         Standard orientation:
 ---------------------------------------------------------------------
 Center     Atomic      Atomic             Coordinates (Angstroms)
 Number     Number       Type             X           Y           Z
 ---------------------------------------------------------------------
      1          6           0       -1.848255   -0.115184    0.018796
      2          6           0       -0.612995    0.407826   -0.043868
      3          6           0        0.612710   -0.394782   -0.018898
      4          6           0        1.856041    0.120529    0.043821
      5          1           0       -2.710705    0.488513    0.137381
      6          1           0       -2.003750   -1.170473   -0.020468
      7          1           0       -0.506061    1.483303   -0.028532
      8          1           0        0.487206   -1.437619   -0.066465
      9          1           0        2.084389    1.170045   -0.062818
     10          1           0        2.603910   -0.644102    0.041796
 ---------------------------------------------------------------------

 SCF Done:  E(RB2PLYPD3) =  -155.696064939     A.U. after   11 cycles
 E2(B2PLYPD3) =    -0.2257981596D+00 E(B2PLYPD3) =    -0.15592186309808D+03

 The electronic state is 1-A.
 Alpha  occ. eigenvalues --  -10.62556 -10.62381 -10.61450 -10.61211  -0.92709
 Alpha  occ. eigenvalues --   -0.84980  -0.70352  -0.64480  -0.54604  -0.54145
 Alpha  occ. eigenvalues --   -0.46896  -0.45921  -0.41484  -0.37648  -0.27523
 Alpha virt. eigenvalues --    0.01561   0.06996   0.07549   0.08135   0.09397
 Alpha virt. eigenvalues --    0.11727   0.12343   0.14912   0.15844   0.16114
 Alpha virt. eigenvalues --    0.18845   0.20430   0.21384   0.23117   0.24162

 Mulliken charges:
               1
     1  C   -0.177105
     2  C   -0.031242
     3  C   -0.039586
     4  C   -0.178727
     5  H    0.085994
     6  H    0.064669
     7  H    0.056177
     8  H    0.059971
     9  H    0.079430
    10  H    0.080418
 Sum of Mulliken charges =   0.00000

 Dipole moment (field-independent basis, Debye):
    X=             -0.0596    Y=             -0.0224    Z=             -0.0551  Tot=              0.0842
 Quadrupole moment (field-independent basis, Debye-Ang):
   XX=            -23.8208   YY=            -22.8375   ZZ=            -29.2567
   XY=              0.1928   XZ=             -0.4653   YZ=              0.0601

 1\1\GINC-NODE20\SP\RB2PLYPD3-FC\def2QZVP\C4H6\BOITTIER\26-Aug-2020\0\\
 #p B2PLYPD3/Def2QZVP\\butadiene\\0,1\C,0,-3.850552,0.230461,-0.006542\
 C,0,-2.728906,-0.503262,0.076485\C,0,-1.379301,0.066035,0.036196\C,0,-
 0.248309,-0.664994,-0.006279\H,0,-4.807128,-0.212156,-0.113249\H,0,-3.
 814603,1.297214,0.003519\H,0,-2.816251,-1.580523,0.090638\H,0,-1.31607
 7,1.115402,0.055045\H,0,-0.21158,-1.735112,0.129726\H,0,0.624375,-0.04
 6789,-0.021004\\Version=ES64L-G09RevD.01\State=1-A\HF=-155.6960649\MP2
 =-155.9218631\RMSD=5.096e-09\PG=C01 [X(C4H6)]\\@

 Normal termination of Gaussian 09 at Wed Aug 26 10:23:24 2020.
