 Gaussian 09, Revision D.01,
 Gaussian 09:  ES64L-G09RevD.01 24-Apr-2013

 --------------------
 #p B2PLYPD3/Def2QZVP
 --------------------

 ---------
 butadiene
 ---------
 Symbolic Z-matrix:
 Charge =  0 Multiplicity = 1

                         Standard orientation:
 ---------------------------------------------------------------------
 Center     Atomic      Atomic             Coordinates (Angstroms)
 Number     Number       Type             X           Y           Z
 ---------------------------------------------------------------------
      1          6           0       -1.886969    0.071292    0.010183
      2          6           0       -0.601946   -0.351605   -0.029455
      3          6           0        0.636322    0.468618   -0.064550
      4          6           0        1.858893   -0.166840    0.038853
      5          1           0       -2.783905   -0.563186   -0.015101
      6          1           0       -2.141981    1.116059    0.263762
      7          1           0       -0.485010   -1.450935   -0.110286
      8          1           0        0.569288    1.509145   -0.032725
      9          1           0        2.032099   -1.243273    0.195947
     10          1           0        2.771706    0.503393   -0.031787
 ---------------------------------------------------------------------

 SCF Done:  E(RB2PLYPD3) =  -155.684899105     A.U. after   11 cycles
 E2(B2PLYPD3) =    -0.2280639686D+00 E(B2PLYPD3) =    -0.15591296307396D+03

 The electronic state is 1-A.
 Alpha  occ. eigenvalues --  -10.63631 -10.63390 -10.63374 -10.62056  -0.91841
 Alpha  occ. eigenvalues --   -0.83996  -0.69700  -0.64286  -0.53890  -0.53190
 Alpha  occ. eigenvalues --   -0.47233  -0.44426  -0.41009  -0.37110  -0.27304
 Alpha virt. eigenvalues --    0.00906   0.06851   0.07403   0.07891   0.08940
 Alpha virt. eigenvalues --    0.11418   0.12152   0.14524   0.15819   0.16261
 Alpha virt. eigenvalues --    0.19061   0.20041   0.21565   0.22045   0.23204

 Mulliken charges:
               1
     1  C   -0.173495
     2  C   -0.030523
     3  C   -0.062029
     4  C   -0.163179
     5  H    0.080759
     6  H    0.055656
     7  H    0.056392
     8  H    0.079663
     9  H    0.082191
    10  H    0.074564
 Sum of Mulliken charges =   0.00000

 Dipole moment (field-independent basis, Debye):
    X=              0.1267    Y=             -0.0021    Z=              0.2005  Tot=              0.2371
 Quadrupole moment (field-independent basis, Debye-Ang):
   XX=            -23.4708   YY=            -23.1434   ZZ=            -29.5645
   XY=             -0.1697   XZ=             -0.1279   YZ=              0.1090

 1\1\GINC-NODE17\SP\RB2PLYPD3-FC\def2QZVP\C4H6\BOITTIER\26-Aug-2020\0\\
 #p B2PLYPD3/Def2QZVP\\butadiene\\0,1\C,0,-3.899532,0.182752,0.038206\C
 ,0,-2.708041,-0.458518,0.009602\C,0,-1.346023,0.132128,-0.04828\C,0,-0
 .252322,-0.703666,0.071913\H,0,-4.893394,-0.286156,0.030545\H,0,-3.967
 352,1.262373,0.263352\H,0,-2.784804,-1.563167,-0.041322\H,0,-1.230616,
 1.168888,-0.044763\H,0,-0.26847,-1.789221,0.258181\H,0,0.762911,-0.204
 895,-0.017294\\Version=ES64L-G09RevD.01\State=1-A\HF=-155.6848991\MP2=
 -155.9129631\RMSD=8.819e-09\PG=C01 [X(C4H6)]\\@

 Normal termination of Gaussian 09 at Wed Aug 26 15:44:43 2020.
