 Gaussian 09, Revision D.01,
 Gaussian 09:  ES64L-G09RevD.01 24-Apr-2013

 --------------------
 #p B2PLYPD3/Def2QZVP
 --------------------

 ---------
 butadiene
 ---------
 Symbolic Z-matrix:
 Charge =  0 Multiplicity = 1

                         Standard orientation:
 ---------------------------------------------------------------------
 Center     Atomic      Atomic             Coordinates (Angstroms)
 Number     Number       Type             X           Y           Z
 ---------------------------------------------------------------------
      1          6           0        1.869345   -0.098863   -0.064332
      2          6           0        0.625723    0.384066    0.023261
      3          6           0       -0.635313   -0.381138    0.044610
      4          6           0       -1.872136    0.112308   -0.025881
      5          1           0        2.827725    0.439504    0.258186
      6          1           0        1.911700   -1.202840   -0.206317
      7          1           0        0.513149    1.487022    0.056579
      8          1           0       -0.499613   -1.472183    0.143160
      9          1           0       -2.039947    1.251818   -0.150021
     10          1           0       -2.638728   -0.601560    0.032462
 ---------------------------------------------------------------------

 SCF Done:  E(RB2PLYPD3) =  -155.682409920     A.U. after   11 cycles
 E2(B2PLYPD3) =    -0.2272893481D+00 E(B2PLYPD3) =    -0.15590969926787D+03

 The electronic state is 1-A.
 Alpha  occ. eigenvalues --  -10.63097 -10.63045 -10.62585 -10.62287  -0.92543
 Alpha  occ. eigenvalues --   -0.85068  -0.69513  -0.62878  -0.54353  -0.52967
 Alpha  occ. eigenvalues --   -0.46996  -0.44857  -0.40324  -0.37538  -0.27985
 Alpha virt. eigenvalues --    0.01208   0.06932   0.07210   0.07829   0.09582
 Alpha virt. eigenvalues --    0.11581   0.12133   0.14265   0.15410   0.16171
 Alpha virt. eigenvalues --    0.19030   0.19299   0.21092   0.21971   0.24006

 Mulliken charges:
               1
     1  C   -0.168462
     2  C   -0.022553
     3  C   -0.039088
     4  C   -0.176055
     5  H    0.091953
     6  H    0.051393
     7  H    0.048209
     8  H    0.044908
     9  H    0.072931
    10  H    0.096763
 Sum of Mulliken charges =   0.00000

 Dipole moment (field-independent basis, Debye):
    X=             -0.0915    Y=             -0.0417    Z=              0.1726  Tot=              0.1997
 Quadrupole moment (field-independent basis, Debye-Ang):
   XX=            -23.6735   YY=            -23.4155   ZZ=            -29.3453
   XY=              0.1579   XZ=              0.6719   YZ=              0.0576

 1\1\GINC-NODE39\SP\RB2PLYPD3-FC\def2QZVP\C4H6\BOITTIER\26-Aug-2020\0\\
 #p B2PLYPD3/Def2QZVP\\butadiene\\0,1\C,0,-3.878231,0.205514,-0.032976\
 C,0,-2.73602,-0.482483,0.064502\C,0,-1.361659,0.053537,0.059911\C,0,-0
 .229236,-0.648019,-0.000306\H,0,-4.912547,-0.149957,0.307876\H,0,-3.73
 0456,1.295833,-0.206431\H,0,-2.815334,-1.586944,0.129083\H,0,-1.306116
 ,1.153921,0.127558\H,0,-0.261727,-1.802378,-0.092243\H,0,0.649558,-0.0
 76056,0.035117\\Version=ES64L-G09RevD.01\State=1-A\HF=-155.6824099\MP2
 =-155.9096993\RMSD=7.713e-09\PG=C01 [X(C4H6)]\\@

 Normal termination of Gaussian 09 at Wed Aug 26 15:42:06 2020.
