 Gaussian 09, Revision D.01,
 Gaussian 09:  ES64L-G09RevD.01 24-Apr-2013

 --------------------
 #p B2PLYPD3/Def2QZVP
 --------------------

 ---------
 butadiene
 ---------
 Symbolic Z-matrix:
 Charge =  0 Multiplicity = 1

                         Standard orientation:
 ---------------------------------------------------------------------
 Center     Atomic      Atomic             Coordinates (Angstroms)
 Number     Number       Type             X           Y           Z
 ---------------------------------------------------------------------
      1          6           0       -1.824452    0.115117   -0.058626
      2          6           0       -0.619802   -0.449859    0.059659
      3          6           0        0.577950    0.386191    0.091605
      4          6           0        1.849795   -0.091497   -0.098176
      5          1           0       -2.754008   -0.437983   -0.083812
      6          1           0       -1.982180    1.240857   -0.128850
      7          1           0       -0.481180   -1.489664    0.057064
      8          1           0        0.452994    1.397110    0.260277
      9          1           0        2.249245   -1.085089    0.103607
     10          1           0        2.614188    0.615055   -0.175056
 ---------------------------------------------------------------------

 SCF Done:  E(RB2PLYPD3) =  -155.683342930     A.U. after   12 cycles
 E2(B2PLYPD3) =    -0.2266960213D+00 E(B2PLYPD3) =    -0.15591003895114D+03

 The electronic state is 1-A.
 Alpha  occ. eigenvalues --  -10.62722 -10.62434 -10.62221 -10.61452  -0.92798
 Alpha  occ. eigenvalues --   -0.84398  -0.70493  -0.65012  -0.54880  -0.53407
 Alpha  occ. eigenvalues --   -0.47164  -0.45662  -0.41486  -0.37200  -0.27148
 Alpha virt. eigenvalues --    0.01147   0.06981   0.07494   0.08119   0.08917
 Alpha virt. eigenvalues --    0.11520   0.12583   0.14625   0.15738   0.16688
 Alpha virt. eigenvalues --    0.18841   0.20084   0.21573   0.22619   0.24023

 Mulliken charges:
               1
     1  C   -0.160203
     2  C   -0.040423
     3  C   -0.050570
     4  C   -0.178678
     5  H    0.080671
     6  H    0.057699
     7  H    0.073902
     8  H    0.074668
     9  H    0.073591
    10  H    0.069342
 Sum of Mulliken charges =   0.00000

 Dipole moment (field-independent basis, Debye):
    X=             -0.0680    Y=              0.0097    Z=              0.1739  Tot=              0.1870
 Quadrupole moment (field-independent basis, Debye-Ang):
   XX=            -23.4094   YY=            -23.1599   ZZ=            -29.2258
   XY=             -0.4221   XZ=              0.3812   YZ=             -0.1276

 1\1\GINC-NODE07\SP\RB2PLYPD3-FC\def2QZVP\C4H6\BOITTIER\26-Aug-2020\0\\
 #p B2PLYPD3/Def2QZVP\\butadiene\\0,1\C,0,-3.819863,0.241102,-0.047063\
 C,0,-2.742102,-0.533768,0.10253\C,0,-1.408742,0.063525,0.103086\C,0,-0
 .249662,-0.652136,-0.058642\H,0,-4.836714,-0.128517,-0.052176\H,0,-3.7
 63975,1.372138,-0.16844\H,0,-2.800894,-1.580174,0.147215\H,0,-1.341376
 ,1.08649,0.225672\H,0,-0.042892,-1.692899,0.18947\H,0,0.633377,-0.1055
 72,-0.163204\\Version=ES64L-G09RevD.01\State=1-A\HF=-155.6833429\MP2=-
 155.910039\RMSD=3.880e-09\PG=C01 [X(C4H6)]\\@

 Normal termination of Gaussian 09 at Wed Aug 26 15:48:39 2020.
