 Gaussian 09, Revision D.01,
 Gaussian 09:  ES64L-G09RevD.01 24-Apr-2013

 --------------------
 #p B2PLYPD3/Def2QZVP
 --------------------

 ---------
 butadiene
 ---------
 Symbolic Z-matrix:
 Charge =  0 Multiplicity = 1

                         Standard orientation:
 ---------------------------------------------------------------------
 Center     Atomic      Atomic             Coordinates (Angstroms)
 Number     Number       Type             X           Y           Z
 ---------------------------------------------------------------------
      1          6           0       -1.863828    0.063146    0.064125
      2          6           0       -0.642784   -0.355273   -0.025274
      3          6           0        0.622514    0.439836   -0.032568
      4          6           0        1.841187   -0.151204    0.011409
      5          1           0       -2.751938   -0.524718   -0.012235
      6          1           0       -2.085989    1.219374   -0.135091
      7          1           0       -0.444617   -1.429152   -0.003300
      8          1           0        0.733583    1.580610   -0.035889
      9          1           0        1.998663   -1.217394   -0.122336
     10          1           0        2.807761    0.392254    0.202706
 ---------------------------------------------------------------------

 SCF Done:  E(RB2PLYPD3) =  -155.676319340     A.U. after   11 cycles
 E2(B2PLYPD3) =    -0.2270418664D+00 E(B2PLYPD3) =    -0.15590336120682D+03

 The electronic state is 1-A.
 Alpha  occ. eigenvalues --  -10.64085 -10.63006 -10.62500 -10.61946  -0.92527
 Alpha  occ. eigenvalues --   -0.85200  -0.69295  -0.63127  -0.54924  -0.52989
 Alpha  occ. eigenvalues --   -0.46962  -0.43659  -0.40005  -0.37801  -0.28289
 Alpha virt. eigenvalues --    0.01705   0.06968   0.07215   0.07684   0.09255
 Alpha virt. eigenvalues --    0.11277   0.12318   0.14055   0.15684   0.16912
 Alpha virt. eigenvalues --    0.18990   0.19393   0.21414   0.22914   0.23295

 Mulliken charges:
               1
     1  C   -0.147171
     2  C   -0.035487
     3  C   -0.036248
     4  C   -0.168394
     5  H    0.086746
     6  H    0.045457
     7  H    0.058065
     8  H    0.057577
     9  H    0.061681
    10  H    0.077773
 Sum of Mulliken charges =   0.00000

 Dipole moment (field-independent basis, Debye):
    X=              0.1300    Y=             -0.1366    Z=             -0.1468  Tot=              0.2389
 Quadrupole moment (field-independent basis, Debye-Ang):
   XX=            -23.0317   YY=            -23.5908   ZZ=            -29.3624
   XY=              0.2047   XZ=              0.6739   YZ=              0.0359

 1\1\GINC-NODE21\SP\RB2PLYPD3-FC\def2QZVP\C4H6\BOITTIER\26-Aug-2020\0\\
 #p B2PLYPD3/Def2QZVP\\butadiene\\0,1\C,0,-3.873267,0.16656,0.071116\C,
 0,-2.741032,-0.456196,0.006056\C,0,-1.358991,0.111646,-0.021311\C,0,-0
 .258555,-0.675695,0.05325\H,0,-4.848307,-0.264389,0.009998\H,0,-3.8954
 85,1.335422,-0.172142\H,0,-2.728302,-1.546539,0.06899\H,0,-1.055632,1.
 216049,-0.06582\H,0,-0.284475,-1.757397,-0.040004\H,0,0.786155,-0.2974
 88,0.231428\\Version=ES64L-G09RevD.01\State=1-A\HF=-155.6763193\MP2=-1
 55.9033612\RMSD=9.526e-09\PG=C01 [X(C4H6)]\\@

 Normal termination of Gaussian 09 at Wed Aug 26 14:21:08 2020.
