 Gaussian 09, Revision D.01,
 Gaussian 09:  ES64L-G09RevD.01 24-Apr-2013

 --------------------
 #p B2PLYPD3/Def2QZVP
 --------------------

 ---------
 butadiene
 ---------
 Symbolic Z-matrix:
 Charge =  0 Multiplicity = 1

                         Standard orientation:
 ---------------------------------------------------------------------
 Center     Atomic      Atomic             Coordinates (Angstroms)
 Number     Number       Type             X           Y           Z
 ---------------------------------------------------------------------
      1          6           0       -1.842439    0.110034    0.024004
      2          6           0       -0.628607   -0.409412   -0.032922
      3          6           0        0.600549    0.377654   -0.022224
      4          6           0        1.856880   -0.095496    0.016867
      5          1           0       -2.799767   -0.456505    0.136248
      6          1           0       -1.932939    1.223538   -0.037495
      7          1           0       -0.489149   -1.508573   -0.110186
      8          1           0        0.503901    1.477089   -0.030912
      9          1           0        2.100414   -1.146572    0.069250
     10          1           0        2.699246    0.514345    0.058743
 ---------------------------------------------------------------------

 SCF Done:  E(RB2PLYPD3) =  -155.694771491     A.U. after   11 cycles
 E2(B2PLYPD3) =    -0.2260812758D+00 E(B2PLYPD3) =    -0.15592085276634D+03

 The electronic state is 1-A.
 Alpha  occ. eigenvalues --  -10.63020 -10.62903 -10.62300 -10.61188  -0.92819
 Alpha  occ. eigenvalues --   -0.85022  -0.70204  -0.63525  -0.54906  -0.53456
 Alpha  occ. eigenvalues --   -0.47304  -0.44751  -0.40789  -0.37933  -0.27855
 Alpha virt. eigenvalues --    0.01656   0.06977   0.07347   0.07950   0.09629
 Alpha virt. eigenvalues --    0.11488   0.12555   0.14442   0.15786   0.16336
 Alpha virt. eigenvalues --    0.18847   0.20416   0.21683   0.22396   0.23780

 Mulliken charges:
               1
     1  C   -0.162395
     2  C   -0.032507
     3  C   -0.027979
     4  C   -0.174009
     5  H    0.088926
     6  H    0.058280
     7  H    0.055136
     8  H    0.048387
     9  H    0.059583
    10  H    0.086578
 Sum of Mulliken charges =   0.00000

 Dipole moment (field-independent basis, Debye):
    X=             -0.0107    Y=             -0.0162    Z=              0.0458  Tot=              0.0498
 Quadrupole moment (field-independent basis, Debye-Ang):
   XX=            -23.0135   YY=            -23.4230   ZZ=            -29.2919
   XY=             -0.0701   XZ=              0.0074   YZ=             -0.0751

 1\1\GINC-NODE28\SP\RB2PLYPD3-FC\def2QZVP\C4H6\BOITTIER\26-Aug-2020\0\\
 #p B2PLYPD3/Def2QZVP\\butadiene\\0,1\C,0,-3.843507,0.222972,0.042753\C
 ,0,-2.741508,-0.505431,0.004295\C,0,-1.392013,0.050593,-0.006363\C,0,-
 0.239647,-0.63691,0.049832\H,0,-4.885904,-0.160718,0.170157\H,0,-3.734
 878,1.332442,-0.052854\H,0,-2.799867,-1.61371,-0.039128\H,0,-1.291761,
 1.148921,-0.048767\H,0,-0.186614,-1.712451,0.134753\H,0,0.697824,-0.18
 5512,0.074909\\Version=ES64L-G09RevD.01\State=1-A\HF=-155.6947715\MP2=
 -155.9208528\RMSD=6.871e-09\PG=C01 [X(C4H6)]\\@

 Normal termination of Gaussian 09 at Wed Aug 26 08:49:51 2020.
