 Gaussian 09, Revision D.01,
 Gaussian 09:  ES64L-G09RevD.01 24-Apr-2013

 --------------------
 #p B2PLYPD3/Def2QZVP
 --------------------

 ---------
 butadiene
 ---------
 Symbolic Z-matrix:
 Charge =  0 Multiplicity = 1

                         Standard orientation:
 ---------------------------------------------------------------------
 Center     Atomic      Atomic             Coordinates (Angstroms)
 Number     Number       Type             X           Y           Z
 ---------------------------------------------------------------------
      1          6           0        1.845238    0.117615    0.028297
      2          6           0        0.615019   -0.399267   -0.023860
      3          6           0       -0.613878    0.401462   -0.033106
      4          6           0       -1.840046   -0.112494    0.012578
      5          1           0        2.718886   -0.527408    0.021692
      6          1           0        2.013877    1.161712   -0.002338
      7          1           0        0.500606   -1.462582   -0.014491
      8          1           0       -0.536669    1.489602   -0.008213
      9          1           0       -1.988621   -1.191685    0.019243
     10          1           0       -2.746085    0.486468    0.080652
 ---------------------------------------------------------------------

 SCF Done:  E(RB2PLYPD3) =  -155.700438870     A.U. after   11 cycles
 E2(B2PLYPD3) =    -0.2254522481D+00 E(B2PLYPD3) =    -0.15592589111841D+03

 The electronic state is 1-A.
 Alpha  occ. eigenvalues --  -10.62634 -10.62543 -10.61552 -10.61290  -0.92832
 Alpha  occ. eigenvalues --   -0.85076  -0.69975  -0.64271  -0.54460  -0.54226
 Alpha  occ. eigenvalues --   -0.46769  -0.45481  -0.41122  -0.38023  -0.27831
 Alpha virt. eigenvalues --    0.01859   0.06996   0.07520   0.08017   0.09552
 Alpha virt. eigenvalues --    0.11651   0.12507   0.14613   0.15905   0.16257
 Alpha virt. eigenvalues --    0.18871   0.20414   0.21627   0.22894   0.23807

 Mulliken charges:
               1
     1  C   -0.173408
     2  C   -0.036921
     3  C   -0.030906
     4  C   -0.170831
     5  H    0.082978
     6  H    0.070146
     7  H    0.059727
     8  H    0.054554
     9  H    0.059894
    10  H    0.084767
 Sum of Mulliken charges =   0.00000

 Dipole moment (field-independent basis, Debye):
    X=             -0.0098    Y=              0.0028    Z=              0.0457  Tot=              0.0468
 Quadrupole moment (field-independent basis, Debye-Ang):
   XX=            -23.3517   YY=            -23.1174   ZZ=            -29.2539
   XY=              0.0491   XZ=             -0.2461   YZ=              0.0227

 1\1\GINC-NODE27\SP\RB2PLYPD3-FC\def2QZVP\C4H6\BOITTIER\26-Aug-2020\0\\
 #p B2PLYPD3/Def2QZVP\\butadiene\\0,1\C,0,-3.847774,0.222354,-0.008483\
 C,0,-2.72684,-0.500341,0.058933\C,0,-1.37666,0.072572,0.043966\C,0,-0.
 259732,-0.649417,0.013498\H,0,-4.820844,-0.259116,0.017601\H,0,-3.8307
 63,1.280289,-0.009126\H,0,-2.800488,-1.567059,0.081418\H,0,-1.26222,1.
 156191,-0.013516\H,0,-0.302513,-1.737665,0.039156\H,0,0.736827,-0.2207
 64,-0.072652\\Version=ES64L-G09RevD.01\State=1-A\HF=-155.7004389\MP2=-
 155.9258911\RMSD=5.017e-09\PG=C01 [X(C4H6)]\\@

 Normal termination of Gaussian 09 at Wed Aug 26 19:07:05 2020.
