 Gaussian 09, Revision D.01,
 Gaussian 09:  ES64L-G09RevD.01 24-Apr-2013

 --------------------
 #p B2PLYPD3/Def2QZVP
 --------------------

 ---------
 butadiene
 ---------
 Symbolic Z-matrix:
 Charge =  0 Multiplicity = 1

                         Standard orientation:
 ---------------------------------------------------------------------
 Center     Atomic      Atomic             Coordinates (Angstroms)
 Number     Number       Type             X           Y           Z
 ---------------------------------------------------------------------
      1          6           0        1.841753   -0.112861    0.010249
      2          6           0        0.604549    0.404487   -0.015665
      3          6           0       -0.603346   -0.422123   -0.020614
      4          6           0       -1.834118    0.112297    0.015025
      5          1           0        2.693031    0.556695   -0.003619
      6          1           0        2.006266   -1.168630    0.016801
      7          1           0        0.432056    1.498428    0.056931
      8          1           0       -0.474473   -1.495631    0.005002
      9          1           0       -1.957268    1.198578   -0.046410
     10          1           0       -2.752639   -0.480245    0.037324
 ---------------------------------------------------------------------

 SCF Done:  E(RB2PLYPD3) =  -155.699230838     A.U. after   11 cycles
 E2(B2PLYPD3) =    -0.2262472256D+00 E(B2PLYPD3) =    -0.15592547806394D+03

 The electronic state is 1-A.
 Alpha  occ. eigenvalues --  -10.62951 -10.62679 -10.61858 -10.61469  -0.92747
 Alpha  occ. eigenvalues --   -0.84657  -0.69839  -0.64008  -0.54295  -0.53832
 Alpha  occ. eigenvalues --   -0.46449  -0.45651  -0.41211  -0.37915  -0.27580
 Alpha virt. eigenvalues --    0.01725   0.07020   0.07315   0.08058   0.09288
 Alpha virt. eigenvalues --    0.11701   0.12440   0.14615   0.15759   0.16108
 Alpha virt. eigenvalues --    0.18718   0.20349   0.21574   0.23168   0.23770

 Mulliken charges:
               1
     1  C   -0.181371
     2  C   -0.028469
     3  C   -0.033342
     4  C   -0.173184
     5  H    0.086701
     6  H    0.071660
     7  H    0.054011
     8  H    0.057188
     9  H    0.061970
    10  H    0.084837
 Sum of Mulliken charges =   0.00000

 Dipole moment (field-independent basis, Debye):
    X=             -0.0187    Y=             -0.0271    Z=              0.0315  Tot=              0.0455
 Quadrupole moment (field-independent basis, Debye-Ang):
   XX=            -23.6160   YY=            -23.0292   ZZ=            -29.3778
   XY=             -0.1824   XZ=              0.0188   YZ=             -0.0428

 1\1\GINC-NODE06\SP\RB2PLYPD3-FC\def2QZVP\C4H6\BOITTIER\26-Aug-2020\0\\
 #p B2PLYPD3/Def2QZVP\\butadiene\\0,1\C,0,-3.842573,0.226701,0.030545\C
 ,0,-2.719151,-0.505982,0.020977\C,0,-1.381934,0.088564,-0.005194\C,0,-
 0.267701,-0.658036,0.047234\H,0,-4.800753,-0.278324,0.034069\H,0,-3.81
 3823,1.294592,0.00737\H,0,-2.746661,-1.610649,0.124347\H,0,-1.314861,1
 .167992,-0.009753\H,0,-0.342835,-1.749982,0.016335\H,0,0.742748,-0.240
 633,0.05439\\Version=ES64L-G09RevD.01\State=1-A\HF=-155.6992308\MP2=-1
 55.9254781\RMSD=3.769e-09\PG=C01 [X(C4H6)]\\@

 Normal termination of Gaussian 09 at Wed Aug 26 19:51:15 2020.
