 Gaussian 09, Revision D.01,
 Gaussian 09:  ES64L-G09RevD.01 24-Apr-2013

 --------------------
 #p B2PLYPD3/Def2QZVP
 --------------------

 ---------
 butadiene
 ---------
 Symbolic Z-matrix:
 Charge =  0 Multiplicity = 1

                         Standard orientation:
 ---------------------------------------------------------------------
 Center     Atomic      Atomic             Coordinates (Angstroms)
 Number     Number       Type             X           Y           Z
 ---------------------------------------------------------------------
      1          6           0        1.823671    0.062464   -0.048697
      2          6           0        0.587157   -0.374716    0.056573
      3          6           0       -0.562034    0.447404   -0.012175
      4          6           0       -1.818573   -0.128932   -0.005060
      5          1           0        2.654139   -0.518024    0.106010
      6          1           0        2.025223    1.151249   -0.024074
      7          1           0        0.439910   -1.511683   -0.013684
      8          1           0       -0.459465    1.522862    0.023433
      9          1           0       -2.126803   -1.197943   -0.127651
     10          1           0       -2.714335    0.516220    0.092119
 ---------------------------------------------------------------------

 SCF Done:  E(RB2PLYPD3) =  -155.682118281     A.U. after   12 cycles
 E2(B2PLYPD3) =    -0.2275325253D+00 E(B2PLYPD3) =    -0.15590965080660D+03

 The electronic state is 1-A.
 Alpha  occ. eigenvalues --  -10.63262 -10.62997 -10.62520 -10.60649  -0.93407
 Alpha  occ. eigenvalues --   -0.84354  -0.70606  -0.63576  -0.55170  -0.53365
 Alpha  occ. eigenvalues --   -0.46798  -0.44030  -0.41315  -0.38311  -0.27114
 Alpha virt. eigenvalues --    0.00964   0.07018   0.07192   0.07927   0.09331
 Alpha virt. eigenvalues --    0.11440   0.12472   0.14811   0.15431   0.16611
 Alpha virt. eigenvalues --    0.18771   0.19816   0.22230   0.22674   0.23315

 Mulliken charges:
               1
     1  C   -0.162372
     2  C   -0.013529
     3  C   -0.045801
     4  C   -0.172982
     5  H    0.084346
     6  H    0.046373
     7  H    0.050062
     8  H    0.069216
     9  H    0.074415
    10  H    0.070272
 Sum of Mulliken charges =   0.00000

 Dipole moment (field-independent basis, Debye):
    X=             -0.0580    Y=              0.0012    Z=              0.0845  Tot=              0.1025
 Quadrupole moment (field-independent basis, Debye-Ang):
   XX=            -23.5101   YY=            -23.1580   ZZ=            -29.3391
   XY=              0.4303   XZ=              0.2536   YZ=              0.2219

 1\1\GINC-NODE25\SP\RB2PLYPD3-FC\def2QZVP\C4H6\BOITTIER\26-Aug-2020\0\\
 #p B2PLYPD3/Def2QZVP\\butadiene\\0,1\C,0,-3.826738,0.197675,0.061071\C
 ,0,-2.697561,-0.473046,-0.018096\C,0,-1.411694,0.115642,0.017125\C,0,-
 0.289102,-0.690735,0.042618\H,0,-4.753851,-0.219313,-0.069929\H,0,-3.8
 15789,1.302529,-0.015474\H,0,-2.770837,-1.612576,0.106051\H,0,-1.30620
 9,1.187928,-0.069329\H,0,-0.191108,-1.792078,0.216568\H,0,0.713325,-0.
 234688,-0.080731\\Version=ES64L-G09RevD.01\State=1-A\HF=-155.6821183\M
 P2=-155.9096508\RMSD=4.950e-09\PG=C01 [X(C4H6)]\\@

 Normal termination of Gaussian 09 at Wed Aug 26 12:20:54 2020.
