 Gaussian 09, Revision D.01,
 Gaussian 09:  ES64L-G09RevD.01 24-Apr-2013

 --------------------
 #p B2PLYPD3/Def2QZVP
 --------------------

 ---------
 butadiene
 ---------
 Symbolic Z-matrix:
 Charge =  0 Multiplicity = 1

                         Standard orientation:
 ---------------------------------------------------------------------
 Center     Atomic      Atomic             Coordinates (Angstroms)
 Number     Number       Type             X           Y           Z
 ---------------------------------------------------------------------
      1          6           0       -1.842402    0.091019    0.019097
      2          6           0       -0.609992   -0.361325   -0.021271
      3          6           0        0.602240    0.408773    0.009048
      4          6           0        1.849805   -0.122706   -0.008621
      5          1           0       -2.675573   -0.602071   -0.037355
      6          1           0       -2.109564    1.124056    0.107860
      7          1           0       -0.464805   -1.419717   -0.090293
      8          1           0        0.454727    1.468587   -0.132668
      9          1           0        2.031797   -1.146859    0.147770
     10          1           0        2.765507    0.481435    0.015169
 ---------------------------------------------------------------------

 SCF Done:  E(RB2PLYPD3) =  -155.696565609     A.U. after   11 cycles
 E2(B2PLYPD3) =    -0.2255685885D+00 E(B2PLYPD3) =    -0.15592213419760D+03

 The electronic state is 1-A.
 Alpha  occ. eigenvalues --  -10.62750 -10.61852 -10.61819 -10.61143  -0.93282
 Alpha  occ. eigenvalues --   -0.84986  -0.70910  -0.64372  -0.54849  -0.54087
 Alpha  occ. eigenvalues --   -0.47083  -0.45742  -0.40803  -0.38224  -0.27715
 Alpha virt. eigenvalues --    0.01356   0.06988   0.07604   0.08062   0.09736
 Alpha virt. eigenvalues --    0.11632   0.12495   0.14995   0.15591   0.16310
 Alpha virt. eigenvalues --    0.18873   0.19944   0.22217   0.22567   0.23659

 Mulliken charges:
               1
     1  C   -0.174993
     2  C   -0.020503
     3  C   -0.042600
     4  C   -0.173220
     5  H    0.081771
     6  H    0.066544
     7  H    0.053939
     8  H    0.061963
     9  H    0.068314
    10  H    0.078786
 Sum of Mulliken charges =   0.00000

 Dipole moment (field-independent basis, Debye):
    X=             -0.0093    Y=             -0.0186    Z=              0.0227  Tot=              0.0308
 Quadrupole moment (field-independent basis, Debye-Ang):
   XX=            -23.1746   YY=            -23.3433   ZZ=            -29.1116
   XY=             -0.3845   XZ=              0.1993   YZ=             -0.0943

 1\1\GINC-NODE01\SP\RB2PLYPD3-FC\def2QZVP\C4H6\BOITTIER\26-Aug-2020\0\\
 #p B2PLYPD3/Def2QZVP\\butadiene\\0,1\C,0,-3.847232,0.209833,0.033187\C
 ,0,-2.718117,-0.46087,0.014873\C,0,-1.385685,0.075861,0.019636\C,0,-0.
 256019,-0.674472,0.027133\H,0,-4.79301,-0.321374,0.000689\H,0,-3.92123
 ,1.276922,0.080791\H,0,-2.768602,-1.529861,-0.012461\H,0,-1.337973,1.1
 38485,-0.163671\H,0,-0.263277,-1.707778,0.223843\H,0,0.754571,-0.24697
 2,0.030747\\Version=ES64L-G09RevD.01\State=1-A\HF=-155.6965656\MP2=-15
 5.9221342\RMSD=6.015e-09\PG=C01 [X(C4H6)]\\@

 Normal termination of Gaussian 09 at Wed Aug 26 09:02:26 2020.
