 Gaussian 09, Revision D.01,
 Gaussian 09:  ES64L-G09RevD.01 24-Apr-2013

 --------------------
 #p B2PLYPD3/Def2QZVP
 --------------------

 ---------
 butadiene
 ---------
 Symbolic Z-matrix:
 Charge =  0 Multiplicity = 1

                         Standard orientation:
 ---------------------------------------------------------------------
 Center     Atomic      Atomic             Coordinates (Angstroms)
 Number     Number       Type             X           Y           Z
 ---------------------------------------------------------------------
      1          6           0        1.828910   -0.114905    0.019368
      2          6           0        0.600150    0.419886   -0.020584
      3          6           0       -0.600853   -0.402168   -0.023763
      4          6           0       -1.832050    0.102382    0.018532
      5          1           0        2.750567    0.462581    0.011938
      6          1           0        1.981000   -1.175325    0.059726
      7          1           0        0.480241    1.481799   -0.080970
      8          1           0       -0.498386   -1.469785   -0.033957
      9          1           0       -1.992299    1.194220    0.101361
     10          1           0       -2.698061   -0.524655   -0.019414
 ---------------------------------------------------------------------

 SCF Done:  E(RB2PLYPD3) =  -155.700200668     A.U. after   11 cycles
 E2(B2PLYPD3) =    -0.2255982183D+00 E(B2PLYPD3) =    -0.15592579888660D+03

 The electronic state is 1-A.
 Alpha  occ. eigenvalues --  -10.62563 -10.62285 -10.61514 -10.61440  -0.93031
 Alpha  occ. eigenvalues --   -0.84842  -0.70010  -0.64454  -0.54787  -0.53896
 Alpha  occ. eigenvalues --   -0.46765  -0.45276  -0.41456  -0.38073  -0.27617
 Alpha virt. eigenvalues --    0.01826   0.07045   0.07447   0.08084   0.09458
 Alpha virt. eigenvalues --    0.11655   0.12535   0.14607   0.15871   0.16347
 Alpha virt. eigenvalues --    0.18801   0.20439   0.21722   0.22790   0.23821

 Mulliken charges:
               1
     1  C   -0.171309
     2  C   -0.036587
     3  C   -0.030646
     4  C   -0.175409
     5  H    0.081167
     6  H    0.063980
     7  H    0.062712
     8  H    0.058544
     9  H    0.061251
    10  H    0.086298
 Sum of Mulliken charges =   0.00000

 Dipole moment (field-independent basis, Debye):
    X=              0.0248    Y=             -0.0321    Z=              0.0044  Tot=              0.0409
 Quadrupole moment (field-independent basis, Debye-Ang):
   XX=            -23.4426   YY=            -23.0792   ZZ=            -29.2449
   XY=             -0.0994   XZ=             -0.0130   YZ=              0.0065

 1\1\GINC-NODE27\SP\RB2PLYPD3-FC\def2QZVP\C4H6\BOITTIER\26-Aug-2020\0\\
 #p B2PLYPD3/Def2QZVP\\butadiene\\0,1\C,0,-3.830643,0.228654,0.037527\C
 ,0,-2.718533,-0.519784,0.01518\C,0,-1.389045,0.071888,-0.008861\C,0,-0
 .268829,-0.644937,0.050155\H,0,-4.841313,-0.17321,0.044601\H,0,-3.7889
 8,1.299828,0.047557\H,0,-2.792182,-1.58719,-0.014892\H,0,-1.297433,1.1
 39768,-0.049468\H,0,-0.307743,-1.744999,0.164168\H,0,0.695895,-0.18560
 3,-0.00379\\Version=ES64L-G09RevD.01\State=1-A\HF=-155.7002007\MP2=-15
 5.9257989\RMSD=5.080e-09\PG=C01 [X(C4H6)]\\@

 Normal termination of Gaussian 09 at Wed Aug 26 21:55:28 2020.
