 Gaussian 09, Revision D.01,
 Gaussian 09:  ES64L-G09RevD.01 24-Apr-2013

 --------------------
 #p B2PLYPD3/Def2QZVP
 --------------------

 ---------
 butadiene
 ---------
 Symbolic Z-matrix:
 Charge =  0 Multiplicity = 1

                         Standard orientation:
 ---------------------------------------------------------------------
 Center     Atomic      Atomic             Coordinates (Angstroms)
 Number     Number       Type             X           Y           Z
 ---------------------------------------------------------------------
      1          6           0       -1.844345    0.101160   -0.043360
      2          6           0       -0.610308   -0.410366    0.020723
      3          6           0        0.594043    0.439150    0.031599
      4          6           0        1.834834   -0.122314   -0.034940
      5          1           0       -2.712505   -0.536715    0.088797
      6          1           0       -1.962038    1.173791   -0.122592
      7          1           0       -0.364887   -1.479722    0.098767
      8          1           0        0.517842    1.515906    0.172824
      9          1           0        1.973040   -1.183306   -0.049887
     10          1           0        2.703209    0.464267   -0.032038
 ---------------------------------------------------------------------

 SCF Done:  E(RB2PLYPD3) =  -155.695614397     A.U. after   11 cycles
 E2(B2PLYPD3) =    -0.2264780660D+00 E(B2PLYPD3) =    -0.15592209246312D+03

 The electronic state is 1-A.
 Alpha  occ. eigenvalues --  -10.63046 -10.62921 -10.61574 -10.61354  -0.92528
 Alpha  occ. eigenvalues --   -0.84551  -0.70076  -0.64161  -0.54395  -0.53816
 Alpha  occ. eigenvalues --   -0.46495  -0.46080  -0.41446  -0.37457  -0.27434
 Alpha virt. eigenvalues --    0.01608   0.07121   0.07312   0.08076   0.09113
 Alpha virt. eigenvalues --    0.11706   0.12468   0.14628   0.15724   0.16188
 Alpha virt. eigenvalues --    0.18770   0.20060   0.21687   0.23134   0.23876

 Mulliken charges:
               1
     1  C   -0.176563
     2  C   -0.031921
     3  C   -0.036584
     4  C   -0.182764
     5  H    0.088665
     6  H    0.070270
     7  H    0.057759
     8  H    0.061106
     9  H    0.064441
    10  H    0.085591
 Sum of Mulliken charges =   0.00000

 Dipole moment (field-independent basis, Debye):
    X=              0.0728    Y=              0.0116    Z=              0.1815  Tot=              0.1959
 Quadrupole moment (field-independent basis, Debye-Ang):
   XX=            -23.6868   YY=            -22.9974   ZZ=            -29.3483
   XY=             -0.2417   XZ=             -0.1803   YZ=             -0.0763

 1\1\GINC-NODE35\SP\RB2PLYPD3-FC\def2QZVP\C4H6\BOITTIER\26-Aug-2020\0\\
 #p B2PLYPD3/Def2QZVP\\butadiene\\0,1\C,0,-3.844675,0.217969,-0.01903\C
 ,0,-2.72402,-0.507562,0.060656\C,0,-1.385179,0.108558,0.048066\C,0,-0.
 267552,-0.670992,-0.001377\H,0,-4.813795,-0.247254,0.130717\H,0,-3.765
 613,1.291421,-0.12911\H,0,-2.676896,-1.601073,0.169553\H,0,-1.263582,1
 .184766,0.158266\H,0,-0.324747,-1.739408,0.014245\H,0,0.693052,-0.2523
 93,-0.014648\\Version=ES64L-G09RevD.01\State=1-A\HF=-155.6956144\MP2=-
 155.9220925\RMSD=8.133e-09\PG=C01 [X(C4H6)]\\@

 Normal termination of Gaussian 09 at Wed Aug 26 08:30:24 2020.
