 Gaussian 09, Revision D.01,
 Gaussian 09:  ES64L-G09RevD.01 24-Apr-2013

 --------------------
 #p B2PLYPD3/Def2QZVP
 --------------------

 ---------
 butadiene
 ---------
 Symbolic Z-matrix:
 Charge =  0 Multiplicity = 1

                         Standard orientation:
 ---------------------------------------------------------------------
 Center     Atomic      Atomic             Coordinates (Angstroms)
 Number     Number       Type             X           Y           Z
 ---------------------------------------------------------------------
      1          6           0       -1.843948    0.111733   -0.019658
      2          6           0       -0.617974   -0.399760    0.009150
      3          6           0        0.622600    0.398876    0.042176
      4          6           0        1.851667   -0.109698   -0.030590
      5          1           0       -2.705598   -0.498164   -0.060653
      6          1           0       -2.050396    1.198791   -0.022401
      7          1           0       -0.563544   -1.510897    0.083767
      8          1           0        0.507019    1.517958    0.059556
      9          1           0        1.974129   -1.198535    0.012394
     10          1           0        2.764319    0.483945   -0.079133
 ---------------------------------------------------------------------

 SCF Done:  E(RB2PLYPD3) =  -155.696606545     A.U. after   11 cycles
 E2(B2PLYPD3) =    -0.2260160262D+00 E(B2PLYPD3) =    -0.15592262257156D+03

 The electronic state is 1-A.
 Alpha  occ. eigenvalues --  -10.63242 -10.63068 -10.61782 -10.61422  -0.92550
 Alpha  occ. eigenvalues --   -0.85111  -0.69772  -0.63233  -0.54694  -0.53632
 Alpha  occ. eigenvalues --   -0.46900  -0.44771  -0.40789  -0.37848  -0.27996
 Alpha virt. eigenvalues --    0.01908   0.07036   0.07253   0.07906   0.09528
 Alpha virt. eigenvalues --    0.11489   0.12443   0.14398   0.15790   0.16390
 Alpha virt. eigenvalues --    0.18819   0.20344   0.21630   0.22528   0.23735

 Mulliken charges:
               1
     1  C   -0.170183
     2  C   -0.030259
     3  C   -0.034388
     4  C   -0.166836
     5  H    0.086338
     6  H    0.060828
     7  H    0.051610
     8  H    0.051721
     9  H    0.062314
    10  H    0.088856
 Sum of Mulliken charges =   0.00000

 Dipole moment (field-independent basis, Debye):
    X=             -0.0262    Y=             -0.0073    Z=              0.0287  Tot=              0.0395
 Quadrupole moment (field-independent basis, Debye-Ang):
   XX=            -23.1751   YY=            -23.2392   ZZ=            -29.3524
   XY=              0.0259   XZ=             -0.0344   YZ=             -0.1055

 1\1\GINC-NODE38\SP\RB2PLYPD3-FC\def2QZVP\C4H6\BOITTIER\26-Aug-2020\0\\
 #p B2PLYPD3/Def2QZVP\\butadiene\\0,1\C,0,-3.849907,0.215441,-0.001856\
 C,0,-2.731587,-0.500371,0.047549\C,0,-1.370776,0.070673,0.053696\C,0,-
 0.249375,-0.646461,0.001493\H,0,-4.804762,-0.23615,-0.022169\H,0,-3.86
 3956,1.321027,-0.044357\H,0,-2.871091,-1.60059,0.162493\H,0,-1.289678,
 1.192672,0.030297\H,0,-0.318151,-1.737722,0.084131\H,0,0.752457,-0.222
 969,-0.066998\\Version=ES64L-G09RevD.01\State=1-A\HF=-155.6966065\MP2=
 -155.9226226\RMSD=3.019e-09\PG=C01 [X(C4H6)]\\@

 Normal termination of Gaussian 09 at Wed Aug 26 09:26:51 2020.
