 Gaussian 09, Revision D.01,
 Gaussian 09:  ES64L-G09RevD.01 24-Apr-2013

 --------------------
 #p B2PLYPD3/Def2QZVP
 --------------------

 ---------
 butadiene
 ---------
 Symbolic Z-matrix:
 Charge =  0 Multiplicity = 1

                         Standard orientation:
 ---------------------------------------------------------------------
 Center     Atomic      Atomic             Coordinates (Angstroms)
 Number     Number       Type             X           Y           Z
 ---------------------------------------------------------------------
      1          6           0        1.834432    0.102781   -0.018317
      2          6           0        0.603376   -0.399615    0.015118
      3          6           0       -0.601675    0.416394   -0.008193
      4          6           0       -1.833049   -0.118478   -0.002341
      5          1           0        2.699326   -0.510453    0.027142
      6          1           0        1.960661    1.186772   -0.009479
      7          1           0        0.491213   -1.486595    0.033307
      8          1           0       -0.476947    1.510754    0.059822
      9          1           0       -1.973473   -1.213548   -0.037774
     10          1           0       -2.719280    0.506573    0.009378
 ---------------------------------------------------------------------

 SCF Done:  E(RB2PLYPD3) =  -155.699712482     A.U. after   11 cycles
 E2(B2PLYPD3) =    -0.2260144728D+00 E(B2PLYPD3) =    -0.15592572695481D+03

 The electronic state is 1-A.
 Alpha  occ. eigenvalues --  -10.62900 -10.62466 -10.61899 -10.61193  -0.92933
 Alpha  occ. eigenvalues --   -0.84852  -0.69856  -0.63766  -0.54635  -0.53803
 Alpha  occ. eigenvalues --   -0.46514  -0.45239  -0.41320  -0.38098  -0.27661
 Alpha virt. eigenvalues --    0.01806   0.07064   0.07269   0.08029   0.09476
 Alpha virt. eigenvalues --    0.11680   0.12437   0.14566   0.15776   0.16259
 Alpha virt. eigenvalues --    0.18708   0.20283   0.21595   0.22888   0.23921

 Mulliken charges:
               1
     1  C   -0.175207
     2  C   -0.024646
     3  C   -0.033563
     4  C   -0.175322
     5  H    0.088732
     6  H    0.060585
     7  H    0.051898
     8  H    0.054717
     9  H    0.066209
    10  H    0.086596
 Sum of Mulliken charges =   0.00000

 Dipole moment (field-independent basis, Debye):
    X=             -0.0073    Y=             -0.0112    Z=              0.0807  Tot=              0.0819
 Quadrupole moment (field-independent basis, Debye-Ang):
   XX=            -23.5930   YY=            -23.0414   ZZ=            -29.3294
   XY=             -0.0176   XZ=              0.0881   YZ=              0.0737

 1\1\GINC-NODE02\SP\RB2PLYPD3-FC\def2QZVP\C4H6\BOITTIER\26-Aug-2020\0\\
 #p B2PLYPD3/Def2QZVP\\butadiene\\0,1\C,0,-3.83816,0.215264,0.032786\C,
 0,-2.717159,-0.500427,0.020084\C,0,-1.385335,0.086772,0.018242\C,0,-0.
 26974,-0.659952,0.034234\H,0,-4.799085,-0.23428,0.006355\H,0,-3.768173
 ,1.303363,-0.014024\H,0,-2.801619,-1.589881,0.03995\H,0,-1.312227,1.18
 2747,-0.088065\H,0,-0.327651,-1.760566,0.108046\H,0,0.714086,-0.204593
 ,0.003169\\Version=ES64L-G09RevD.01\State=1-A\HF=-155.6997125\MP2=-155
 .925727\RMSD=5.051e-09\PG=C01 [X(C4H6)]\\@

 Normal termination of Gaussian 09 at Wed Aug 26 20:21:06 2020.
