 Gaussian 09, Revision D.01,
 Gaussian 09:  ES64L-G09RevD.01 24-Apr-2013

 --------------------
 #p B2PLYPD3/Def2QZVP
 --------------------

 ---------
 butadiene
 ---------
 Symbolic Z-matrix:
 Charge =  0 Multiplicity = 1

                         Standard orientation:
 ---------------------------------------------------------------------
 Center     Atomic      Atomic             Coordinates (Angstroms)
 Number     Number       Type             X           Y           Z
 ---------------------------------------------------------------------
      1          6           0       -1.828844    0.121193   -0.068602
      2          6           0       -0.605067   -0.399034    0.095466
      3          6           0        0.610403    0.355357    0.026847
      4          6           0        1.842342   -0.128601   -0.035583
      5          1           0       -2.791440   -0.389951   -0.012408
      6          1           0       -1.982803    1.157416    0.019187
      7          1           0       -0.641446   -1.537829   -0.038622
      8          1           0        0.547052    1.505186   -0.011946
      9          1           0        2.146988   -1.115907   -0.094249
     10          1           0        2.608640    0.687593    0.029263
 ---------------------------------------------------------------------

 SCF Done:  E(RB2PLYPD3) =  -155.679303186     A.U. after   11 cycles
 E2(B2PLYPD3) =    -0.2269358206D+00 E(B2PLYPD3) =    -0.15590623900642D+03

 The electronic state is 1-A.
 Alpha  occ. eigenvalues --  -10.63229 -10.63148 -10.61396 -10.61334  -0.93147
 Alpha  occ. eigenvalues --   -0.85309  -0.70496  -0.63365  -0.55119  -0.53962
 Alpha  occ. eigenvalues --   -0.46061  -0.44499  -0.40507  -0.38259  -0.27808
 Alpha virt. eigenvalues --    0.01270   0.06793   0.07237   0.07775   0.09626
 Alpha virt. eigenvalues --    0.11442   0.12542   0.14748   0.15469   0.16347
 Alpha virt. eigenvalues --    0.18807   0.19497   0.21977   0.22553   0.24237

 Mulliken charges:
               1
     1  C   -0.153214
     2  C   -0.037158
     3  C   -0.017923
     4  C   -0.176235
     5  H    0.074183
     6  H    0.054814
     7  H    0.053802
     8  H    0.046054
     9  H    0.082600
    10  H    0.073078
 Sum of Mulliken charges =   0.00000

 Dipole moment (field-independent basis, Debye):
    X=             -0.0806    Y=              0.0075    Z=             -0.0157  Tot=              0.0825
 Quadrupole moment (field-independent basis, Debye-Ang):
   XX=            -23.3366   YY=            -23.2788   ZZ=            -29.2651
   XY=             -0.1673   XZ=             -0.0662   YZ=              0.2624

 1\1\GINC-NODE34\SP\RB2PLYPD3-FC\def2QZVP\C4H6\BOITTIER\26-Aug-2020\0\\
 #p B2PLYPD3/Def2QZVP\\butadiene\\0,1\C,0,-3.834213,0.22415,-0.048489\C
 ,0,-2.718153,-0.49694,0.123625\C,0,-1.390938,0.035454,0.044631\C,0,-0.
 261051,-0.654567,-0.01025\H,0,-4.870419,-0.112458,0.014672\H,0,-3.8069
 8,1.272549,0.024231\H,0,-2.950657,-1.614198,0.006011\H,0,-1.255124,1.1
 78303,-0.010821\H,0,-0.13136,-1.680358,-0.054492\H,0,0.634656,0.018077
 ,0.043116\\Version=ES64L-G09RevD.01\State=1-A\HF=-155.6793032\MP2=-155
 .906239\RMSD=6.445e-09\PG=C01 [X(C4H6)]\\@

 Normal termination of Gaussian 09 at Wed Aug 26 12:27:38 2020.
