 Gaussian 09, Revision D.01,
 Gaussian 09:  ES64L-G09RevD.01 24-Apr-2013

 --------------------
 #p B2PLYPD3/Def2QZVP
 --------------------

 ---------
 butadiene
 ---------
 Symbolic Z-matrix:
 Charge =  0 Multiplicity = 1

                         Standard orientation:
 ---------------------------------------------------------------------
 Center     Atomic      Atomic             Coordinates (Angstroms)
 Number     Number       Type             X           Y           Z
 ---------------------------------------------------------------------
      1          6           0        1.836156    0.105659   -0.001714
      2          6           0        0.596273   -0.389872   -0.014122
      3          6           0       -0.607963    0.414065   -0.026815
      4          6           0       -1.830619   -0.123753    0.008488
      5          1           0        2.684340   -0.536336    0.076067
      6          1           0        1.997344    1.153292    0.020450
      7          1           0        0.493713   -1.471173    0.009226
      8          1           0       -0.485258    1.494123    0.034361
      9          1           0       -1.976736   -1.202080    0.007918
     10          1           0       -2.676484    0.525581    0.056958
 ---------------------------------------------------------------------

 SCF Done:  E(RB2PLYPD3) =  -155.700429788     A.U. after   11 cycles
 E2(B2PLYPD3) =    -0.2255295773D+00 E(B2PLYPD3) =    -0.15592595936564D+03

 The electronic state is 1-A.
 Alpha  occ. eigenvalues --  -10.62515 -10.62305 -10.61441 -10.60929  -0.93094
 Alpha  occ. eigenvalues --   -0.85047  -0.70238  -0.64121  -0.54583  -0.54351
 Alpha  occ. eigenvalues --   -0.46444  -0.45821  -0.41490  -0.38149  -0.27596
 Alpha virt. eigenvalues --    0.01770   0.07058   0.07411   0.08079   0.09600
 Alpha virt. eigenvalues --    0.11758   0.12425   0.14808   0.15822   0.16192
 Alpha virt. eigenvalues --    0.18725   0.20381   0.21635   0.23001   0.24085

 Mulliken charges:
               1
     1  C   -0.179989
     2  C   -0.022952
     3  C   -0.034487
     4  C   -0.177116
     5  H    0.085602
     6  H    0.064609
     7  H    0.051464
     8  H    0.055523
     9  H    0.070701
    10  H    0.086646
 Sum of Mulliken charges =   0.00000

 Dipole moment (field-independent basis, Debye):
    X=             -0.0271    Y=              0.0088    Z=              0.1611  Tot=              0.1636
 Quadrupole moment (field-independent basis, Debye-Ang):
   XX=            -23.6827   YY=            -22.9505   ZZ=            -29.2195
   XY=              0.0536   XZ=              0.0666   YZ=              0.0400

 1\1\GINC-NODE37\SP\RB2PLYPD3-FC\def2QZVP\C4H6\BOITTIER\26-Aug-2020\0\\
 #p B2PLYPD3/Def2QZVP\\butadiene\\0,1\C,0,-3.840529,0.217875,0.014662\C
 ,0,-2.709658,-0.491472,0.045874\C,0,-1.38067,0.083288,0.035781\C,0,-0.
 274496,-0.666065,0.020616\H,0,-4.790405,-0.263627,-0.044616\H,0,-3.811
 18,1.27618,-0.041338\H,0,-2.802878,-1.57381,0.057319\H,0,-1.307776,1.1
 65327,-0.060154\H,0,-0.324251,-1.752533,0.055977\H,0,0.673991,-0.18095
 2,-0.046533\\Version=ES64L-G09RevD.01\State=1-A\HF=-155.7004298\MP2=-1
 55.9259594\RMSD=3.923e-09\PG=C01 [X(C4H6)]\\@

 Normal termination of Gaussian 09 at Wed Aug 26 16:18:01 2020.
