 Gaussian 09, Revision D.01,
 Gaussian 09:  ES64L-G09RevD.01 24-Apr-2013

 --------------------
 #p B2PLYPD3/Def2QZVP
 --------------------

 ---------
 butadiene
 ---------
 Symbolic Z-matrix:
 Charge =  0 Multiplicity = 1

                         Standard orientation:
 ---------------------------------------------------------------------
 Center     Atomic      Atomic             Coordinates (Angstroms)
 Number     Number       Type             X           Y           Z
 ---------------------------------------------------------------------
      1          6           0       -1.830080    0.102925    0.000265
      2          6           0       -0.624501   -0.426834   -0.072241
      3          6           0        0.600162    0.438777   -0.066278
      4          6           0        1.811926   -0.125590    0.036932
      5          1           0       -2.682464   -0.520353    0.236548
      6          1           0       -1.870807    1.256042    0.128285
      7          1           0       -0.396361   -1.456026   -0.010989
      8          1           0        0.522844    1.544326    0.068276
      9          1           0        1.961655   -1.255094    0.133899
     10          1           0        2.720091    0.495437    0.051910
 ---------------------------------------------------------------------

 SCF Done:  E(RB2PLYPD3) =  -155.684109589     A.U. after   11 cycles
 E2(B2PLYPD3) =    -0.2269788757D+00 E(B2PLYPD3) =    -0.15591108846507D+03

 The electronic state is 1-A.
 Alpha  occ. eigenvalues --  -10.63194 -10.62471 -10.62372 -10.61956  -0.92663
 Alpha  occ. eigenvalues --   -0.84735  -0.68629  -0.63783  -0.54330  -0.52764
 Alpha  occ. eigenvalues --   -0.46616  -0.44625  -0.40714  -0.37691  -0.28001
 Alpha virt. eigenvalues --    0.02145   0.06849   0.07031   0.08049   0.08824
 Alpha virt. eigenvalues --    0.11775   0.12303   0.14140   0.15530   0.16224
 Alpha virt. eigenvalues --    0.18622   0.19436   0.21526   0.23496   0.23761

 Mulliken charges:
               1
     1  C   -0.154714
     2  C   -0.036588
     3  C   -0.035386
     4  C   -0.174248
     5  H    0.083909
     6  H    0.054535
     7  H    0.063628
     8  H    0.058132
     9  H    0.058934
    10  H    0.081797
 Sum of Mulliken charges =   0.00000

 Dipole moment (field-independent basis, Debye):
    X=              0.1184    Y=             -0.0657    Z=              0.4654  Tot=              0.4847
 Quadrupole moment (field-independent basis, Debye-Ang):
   XX=            -24.3349   YY=            -22.9480   ZZ=            -29.3656
   XY=              0.0919   XZ=             -0.5064   YZ=             -0.0163

 1\1\GINC-NODE14\SP\RB2PLYPD3-FC\def2QZVP\C4H6\BOITTIER\26-Aug-2020\0\\
 #p B2PLYPD3/Def2QZVP\\butadiene\\0,1\C,0,-3.829332,0.2137,0.037341\C,0
 ,-2.738016,-0.524345,-0.022986\C,0,-1.378651,0.108779,-0.042981\C,0,-0
 .286232,-0.659753,0.073275\H,0,-4.777557,-0.241049,0.292168\H,0,-3.662
 986,1.35857,0.13393\H,0,-2.696587,-1.575735,0.065887\H,0,-1.256744,1.2
 1356,0.061508\H,0,-0.339598,-1.794877,0.200737\H,0,0.718172,-0.210508,
 0.06957\\Version=ES64L-G09RevD.01\State=1-A\HF=-155.6841096\MP2=-155.9
 110885\RMSD=6.085e-09\PG=C01 [X(C4H6)]\\@

 Normal termination of Gaussian 09 at Wed Aug 26 12:51:48 2020.
