 Gaussian 09, Revision D.01,
 Gaussian 09:  ES64L-G09RevD.01 24-Apr-2013

 --------------------
 #p B2PLYPD3/Def2QZVP
 --------------------

 ---------
 butadiene
 ---------
 Symbolic Z-matrix:
 Charge =  0 Multiplicity = 1

                         Standard orientation:
 ---------------------------------------------------------------------
 Center     Atomic      Atomic             Coordinates (Angstroms)
 Number     Number       Type             X           Y           Z
 ---------------------------------------------------------------------
      1          6           0        1.842559    0.095870   -0.014801
      2          6           0        0.608651   -0.364400    0.021390
      3          6           0       -0.609941    0.420634    0.002013
      4          6           0       -1.832810   -0.141528   -0.007798
      5          1           0        2.707412   -0.595580   -0.059747
      6          1           0        2.026754    1.154140   -0.072921
      7          1           0        0.529531   -1.423604    0.172280
      8          1           0       -0.567634    1.537166    0.096842
      9          1           0       -2.028452   -1.226206   -0.150199
     10          1           0       -2.718367    0.490625    0.008919
 ---------------------------------------------------------------------

 SCF Done:  E(RB2PLYPD3) =  -155.695439127     A.U. after   11 cycles
 E2(B2PLYPD3) =    -0.2260570271D+00 E(B2PLYPD3) =    -0.15592149615394D+03

 The electronic state is 1-A.
 Alpha  occ. eigenvalues --  -10.63221 -10.62110 -10.62015 -10.61311  -0.93006
 Alpha  occ. eigenvalues --   -0.85016  -0.69760  -0.63656  -0.54348  -0.53993
 Alpha  occ. eigenvalues --   -0.46290  -0.45109  -0.41178  -0.37962  -0.27804
 Alpha virt. eigenvalues --    0.01727   0.07015   0.07391   0.07781   0.09584
 Alpha virt. eigenvalues --    0.11607   0.12301   0.14636   0.15648   0.16206
 Alpha virt. eigenvalues --    0.18837   0.20063   0.21440   0.22563   0.23857

 Mulliken charges:
               1
     1  C   -0.175191
     2  C   -0.022342
     3  C   -0.045235
     4  C   -0.171279
     5  H    0.083166
     6  H    0.064618
     7  H    0.060230
     8  H    0.056136
     9  H    0.069773
    10  H    0.080125
 Sum of Mulliken charges =   0.00000

 Dipole moment (field-independent basis, Debye):
    X=             -0.0511    Y=             -0.0091    Z=             -0.0013  Tot=              0.0519
 Quadrupole moment (field-independent basis, Debye-Ang):
   XX=            -23.5761   YY=            -23.0960   ZZ=            -29.2577
   XY=             -0.0407   XZ=             -0.0129   YZ=              0.0829

 1\1\GINC-NODE07\SP\RB2PLYPD3-FC\def2QZVP\C4H6\BOITTIER\26-Aug-2020\0\\
 #p B2PLYPD3/Def2QZVP\\butadiene\\0,1\C,0,-3.848981,0.200884,0.032112\C
 ,0,-2.714581,-0.468841,0.015003\C,0,-1.377555,0.091453,0.007777\C,0,-0
 .271603,-0.674927,0.040352\H,0,-4.821066,-0.326775,0.100819\H,0,-3.845
 284,1.276461,0.051096\H,0,-2.822331,-1.53036,-0.096841\H,0,-1.22469,1.
 19401,-0.127967\H,0,-0.267708,-1.771193,0.222742\H,0,0.710645,-0.20820
 3,0.002064\\Version=ES64L-G09RevD.01\State=1-A\HF=-155.6954391\MP2=-15
 5.9214962\RMSD=6.012e-09\PG=C01 [X(C4H6)]\\@

 Normal termination of Gaussian 09 at Wed Aug 26 09:07:52 2020.
