 Gaussian 09, Revision D.01,
 Gaussian 09:  ES64L-G09RevD.01 24-Apr-2013

 --------------------
 #p B2PLYPD3/Def2QZVP
 --------------------

 ---------
 butadiene
 ---------
 Symbolic Z-matrix:
 Charge =  0 Multiplicity = 1

                         Standard orientation:
 ---------------------------------------------------------------------
 Center     Atomic      Atomic             Coordinates (Angstroms)
 Number     Number       Type             X           Y           Z
 ---------------------------------------------------------------------
      1          6           0       -1.860537    0.097975    0.012586
      2          6           0       -0.623053   -0.386917   -0.047841
      3          6           0        0.609553    0.429410   -0.003482
      4          6           0        1.845820   -0.129064   -0.011684
      5          1           0       -2.741632   -0.571121    0.081618
      6          1           0       -2.074746    1.130371   -0.001879
      7          1           0       -0.408916   -1.428553    0.061016
      8          1           0        0.569982    1.541668    0.028007
      9          1           0        2.054607   -1.222696    0.052961
     10          1           0        2.770001    0.481910    0.080805
 ---------------------------------------------------------------------

 SCF Done:  E(RB2PLYPD3) =  -155.693481142     A.U. after   11 cycles
 E2(B2PLYPD3) =    -0.2266322006D+00 E(B2PLYPD3) =    -0.15592011334240D+03

 The electronic state is 1-A.
 Alpha  occ. eigenvalues --  -10.63496 -10.62725 -10.62516 -10.61603  -0.92427
 Alpha  occ. eigenvalues --   -0.84568  -0.69847  -0.63977  -0.54189  -0.53604
 Alpha  occ. eigenvalues --   -0.46696  -0.45183  -0.40689  -0.37747  -0.27762
 Alpha virt. eigenvalues --    0.01580   0.06943   0.07371   0.07943   0.09215
 Alpha virt. eigenvalues --    0.11543   0.12356   0.14515   0.15650   0.16361
 Alpha virt. eigenvalues --    0.18940   0.20098   0.21655   0.22979   0.23400

 Mulliken charges:
               1
     1  C   -0.171503
     2  C   -0.031506
     3  C   -0.042124
     4  C   -0.167851
     5  H    0.080762
     6  H    0.073469
     7  H    0.065858
     8  H    0.056965
     9  H    0.059456
    10  H    0.076474
 Sum of Mulliken charges =   0.00000

 Dipole moment (field-independent basis, Debye):
    X=             -0.0024    Y=              0.0224    Z=              0.2356  Tot=              0.2367
 Quadrupole moment (field-independent basis, Debye-Ang):
   XX=            -23.3431   YY=            -23.1743   ZZ=            -29.4311
   XY=             -0.3621   XZ=              0.0881   YZ=             -0.1354

 1\1\GINC-NODE36\SP\RB2PLYPD3-FC\def2QZVP\C4H6\BOITTIER\26-Aug-2020\0\\
 #p B2PLYPD3/Def2QZVP\\butadiene\\0,1\C,0,-3.86262,0.211643,0.034041\C,
 0,-2.731331,-0.487591,-0.003306\C,0,-1.373048,0.097653,0.011956\C,0,-0
 .255817,-0.67163,0.029734\H,0,-4.848338,-0.286816,0.127216\H,0,-3.8899
 22,1.264263,-0.02236\H,0,-2.705343,-1.545517,0.14778\H,0,-1.214101,1.1
 99578,-0.001212\H,0,-0.244526,-1.781494,0.138709\H,0,0.762651,-0.23153
 5,0.100403\\Version=ES64L-G09RevD.01\State=1-A\HF=-155.6934811\MP2=-15
 5.9201133\RMSD=5.189e-09\PG=C01 [X(C4H6)]\\@

 Normal termination of Gaussian 09 at Wed Aug 26 22:17:00 2020.
