 Gaussian 09, Revision D.01,
 Gaussian 09:  ES64L-G09RevD.01 24-Apr-2013

 --------------------
 #p B2PLYPD3/Def2QZVP
 --------------------

 ---------
 butadiene
 ---------
 Symbolic Z-matrix:
 Charge =  0 Multiplicity = 1

                         Standard orientation:
 ---------------------------------------------------------------------
 Center     Atomic      Atomic             Coordinates (Angstroms)
 Number     Number       Type             X           Y           Z
 ---------------------------------------------------------------------
      1          6           0       -1.861247    0.079685    0.005742
      2          6           0       -0.613581   -0.364210   -0.033369
      3          6           0        0.632358    0.417382   -0.025950
      4          6           0        1.845747   -0.132494    0.011815
      5          1           0       -2.732288   -0.518342    0.109474
      6          1           0       -1.994225    1.178181    0.059389
      7          1           0       -0.448278   -1.441361    0.014739
      8          1           0        0.509067    1.502737   -0.060938
      9          1           0        1.939511   -1.190020   -0.023310
     10          1           0        2.706549    0.466635    0.151219
 ---------------------------------------------------------------------

 SCF Done:  E(RB2PLYPD3) =  -155.697499362     A.U. after   11 cycles
 E2(B2PLYPD3) =    -0.2254405012D+00 E(B2PLYPD3) =    -0.15592293986345D+03

 The electronic state is 1-A.
 Alpha  occ. eigenvalues --  -10.62825 -10.62509 -10.61440 -10.61231  -0.92867
 Alpha  occ. eigenvalues --   -0.85347  -0.70333  -0.63845  -0.55177  -0.53816
 Alpha  occ. eigenvalues --   -0.47538  -0.45502  -0.40555  -0.37975  -0.28013
 Alpha virt. eigenvalues --    0.01767   0.07033   0.07450   0.08135   0.09670
 Alpha virt. eigenvalues --    0.11652   0.12588   0.14538   0.15698   0.16281
 Alpha virt. eigenvalues --    0.18896   0.20323   0.21676   0.22956   0.23737

 Mulliken charges:
               1
     1  C   -0.172706
     2  C   -0.021752
     3  C   -0.032934
     4  C   -0.175566
     5  H    0.093484
     6  H    0.053179
     7  H    0.044073
     8  H    0.051662
     9  H    0.069332
    10  H    0.091228
 Sum of Mulliken charges =   0.00000

 Dipole moment (field-independent basis, Debye):
    X=              0.0690    Y=             -0.0160    Z=              0.1951  Tot=              0.2076
 Quadrupole moment (field-independent basis, Debye-Ang):
   XX=            -23.2573   YY=            -23.3394   ZZ=            -29.1710
   XY=              0.0492   XZ=             -0.0897   YZ=              0.0230

 1\1\GINC-NODE09\SP\RB2PLYPD3-FC\def2QZVP\C4H6\BOITTIER\26-Aug-2020\0\\
 #p B2PLYPD3/Def2QZVP\\butadiene\\0,1\C,0,-3.870858,0.191624,0.031092\C
 ,0,-2.720969,-0.46598,0.007545\C,0,-1.356924,0.083926,-0.009455\C,0,-0
 .259048,-0.669436,0.047258\H,0,-4.833016,-0.240085,0.15352\H,0,-3.8082
 14,1.297526,0.048781\H,0,-2.74754,-1.553289,0.090888\H,0,-1.28749,1.17
 2335,-0.079917\H,0,-0.352995,-1.727529,0.046712\H,0,0.694415,-0.227,0.
 167792\\Version=ES64L-G09RevD.01\State=1-A\HF=-155.6974994\MP2=-155.92
 29399\RMSD=5.657e-09\PG=C01 [X(C4H6)]\\@

 Normal termination of Gaussian 09 at Wed Aug 26 09:35:05 2020.
