 Gaussian 09, Revision D.01,
 Gaussian 09:  ES64L-G09RevD.01 24-Apr-2013

 --------------------
 #p B2PLYPD3/Def2QZVP
 --------------------

 ---------
 butadiene
 ---------
 Symbolic Z-matrix:
 Charge =  0 Multiplicity = 1

                         Standard orientation:
 ---------------------------------------------------------------------
 Center     Atomic      Atomic             Coordinates (Angstroms)
 Number     Number       Type             X           Y           Z
 ---------------------------------------------------------------------
      1          6           0        1.842528   -0.121350    0.000184
      2          6           0        0.597864    0.409368    0.005281
      3          6           0       -0.606759   -0.380752   -0.005156
      4          6           0       -1.845757    0.097774   -0.003030
      5          1           0        2.719598    0.528434   -0.000206
      6          1           0        2.017966   -1.175088   -0.069227
      7          1           0        0.466120    1.479765    0.038222
      8          1           0       -0.438309   -1.461920    0.088274
      9          1           0       -2.006598    1.149691   -0.031772
     10          1           0       -2.686033   -0.551120   -0.008964
 ---------------------------------------------------------------------

 SCF Done:  E(RB2PLYPD3) =  -155.699780499     A.U. after   11 cycles
 E2(B2PLYPD3) =    -0.2258085535D+00 E(B2PLYPD3) =    -0.15592558905288D+03

 The electronic state is 1-A.
 Alpha  occ. eigenvalues --  -10.62640 -10.62329 -10.61834 -10.61020  -0.93098
 Alpha  occ. eigenvalues --   -0.84869  -0.70607  -0.64110  -0.54714  -0.54073
 Alpha  occ. eigenvalues --   -0.46809  -0.45875  -0.41232  -0.38117  -0.27533
 Alpha virt. eigenvalues --    0.01468   0.07024   0.07460   0.08079   0.09664
 Alpha virt. eigenvalues --    0.11720   0.12439   0.14864   0.15714   0.16127
 Alpha virt. eigenvalues --    0.18772   0.20396   0.21750   0.22972   0.23761

 Mulliken charges:
               1
     1  C   -0.178593
     2  C   -0.035541
     3  C   -0.018922
     4  C   -0.182248
     5  H    0.084058
     6  H    0.070576
     7  H    0.054760
     8  H    0.049683
     9  H    0.065925
    10  H    0.090301
 Sum of Mulliken charges =   0.00000

 Dipole moment (field-independent basis, Debye):
    X=              0.0031    Y=              0.0072    Z=              0.0047  Tot=              0.0091
 Quadrupole moment (field-independent basis, Debye-Ang):
   XX=            -23.4525   YY=            -23.1298   ZZ=            -29.2459
   XY=             -0.1999   XZ=             -0.0863   YZ=             -0.0059

 1\1\GINC-NODE32\SP\RB2PLYPD3-FC\def2QZVP\C4H6\BOITTIER\26-Aug-2020\0\\
 #p B2PLYPD3/Def2QZVP\\butadiene\\0,1\C,0,-3.843058,0.239729,0.017719\C
 ,0,-2.715607,-0.50807,0.040634\C,0,-1.38745,0.049287,0.011189\C,0,-0.2
 56089,-0.646264,0.02967\H,0,-4.823638,-0.239534,0.033243\H,0,-3.824192
 ,1.305459,-0.081402\H,0,-2.780563,-1.583245,0.103655\H,0,-1.356296,1.1
 45234,0.0741\H,0,-0.289237,-1.710278,0.030589\H,0,0.688131,-0.161362,0
 .007758\\Version=ES64L-G09RevD.01\State=1-A\HF=-155.6997805\MP2=-155.9
 255891\RMSD=5.695e-09\PG=C01 [X(C4H6)]\\@

 Normal termination of Gaussian 09 at Wed Aug 26 16:36:48 2020.
