 Gaussian 09, Revision D.01,
 Gaussian 09:  ES64L-G09RevD.01 24-Apr-2013

 --------------------
 #p B2PLYPD3/Def2QZVP
 --------------------

 ---------
 butadiene
 ---------
 Symbolic Z-matrix:
 Charge =  0 Multiplicity = 1

                         Standard orientation:
 ---------------------------------------------------------------------
 Center     Atomic      Atomic             Coordinates (Angstroms)
 Number     Number       Type             X           Y           Z
 ---------------------------------------------------------------------
      1          6           0       -1.874933    0.070047   -0.046855
      2          6           0       -0.598949   -0.356249    0.059421
      3          6           0        0.615811    0.421909    0.042976
      4          6           0        1.855016   -0.147790   -0.033805
      5          1           0       -2.683878   -0.564429   -0.120278
      6          1           0       -2.207758    1.093743   -0.156726
      7          1           0       -0.376240   -1.383019    0.349145
      8          1           0        0.623646    1.589323    0.148450
      9          1           0        2.014187   -1.164177   -0.320845
     10          1           0        2.648374    0.501051   -0.030168
 ---------------------------------------------------------------------

 SCF Done:  E(RB2PLYPD3) =  -155.680931402     A.U. after   11 cycles
 E2(B2PLYPD3) =    -0.2271220052D+00 E(B2PLYPD3) =    -0.15590805340702D+03

 The electronic state is 1-A.
 Alpha  occ. eigenvalues --  -10.63809 -10.63057 -10.61435 -10.61212  -0.92588
 Alpha  occ. eigenvalues --   -0.84788  -0.71674  -0.63130  -0.55403  -0.53678
 Alpha  occ. eigenvalues --   -0.47108  -0.45592  -0.41328  -0.37039  -0.27361
 Alpha virt. eigenvalues --    0.00783   0.07151   0.07436   0.07804   0.09206
 Alpha virt. eigenvalues --    0.11388   0.12573   0.14730   0.15606   0.16465
 Alpha virt. eigenvalues --    0.18903   0.19801   0.21894   0.22334   0.22979

 Mulliken charges:
               1
     1  C   -0.173689
     2  C   -0.039836
     3  C   -0.036672
     4  C   -0.178684
     5  H    0.085574
     6  H    0.065502
     7  H    0.070317
     8  H    0.047729
     9  H    0.074606
    10  H    0.085153
 Sum of Mulliken charges =   0.00000

 Dipole moment (field-independent basis, Debye):
    X=             -0.0273    Y=              0.0242    Z=             -0.0955  Tot=              0.1022
 Quadrupole moment (field-independent basis, Debye-Ang):
   XX=            -23.1450   YY=            -23.4451   ZZ=            -29.1239
   XY=             -0.2557   XZ=             -0.0964   YZ=              0.0653

 1\1\GINC-NODE21\SP\RB2PLYPD3-FC\def2QZVP\C4H6\BOITTIER\26-Aug-2020\0\\
 #p B2PLYPD3/Def2QZVP\\butadiene\\0,1\C,0,-3.882853,0.195318,-0.027585\
 C,0,-2.705358,-0.453751,0.088057\C,0,-1.369512,0.090508,0.060835\C,0,-
 0.254456,-0.695938,-0.004233\H,0,-4.793653,-0.282857,-0.091884\H,0,-4.
 024394,1.260451,-0.155078\H,0,-2.672433,-1.49891,0.395232\H,0,-1.14968
 9,1.238687,0.146875\H,0,-0.282856,-1.72898,-0.274028\H,0,0.643537,-0.2
 01974,-0.009977\\Version=ES64L-G09RevD.01\State=1-A\HF=-155.6809314\MP
 2=-155.9080534\RMSD=9.419e-09\PG=C01 [X(C4H6)]\\@

 Normal termination of Gaussian 09 at Wed Aug 26 14:08:20 2020.
