 Gaussian 09, Revision D.01,
 Gaussian 09:  ES64L-G09RevD.01 24-Apr-2013

 --------------------
 #p B2PLYPD3/Def2QZVP
 --------------------

 ---------
 butadiene
 ---------
 Symbolic Z-matrix:
 Charge =  0 Multiplicity = 1

                         Standard orientation:
 ---------------------------------------------------------------------
 Center     Atomic      Atomic             Coordinates (Angstroms)
 Number     Number       Type             X           Y           Z
 ---------------------------------------------------------------------
      1          6           0        1.821367   -0.119702    0.040629
      2          6           0        0.605595    0.420822   -0.051766
      3          6           0       -0.589894   -0.403846   -0.013671
      4          6           0       -1.843678    0.101766    0.015318
      5          1           0        2.714156    0.537597    0.096694
      6          1           0        1.953702   -1.212914   -0.063634
      7          1           0        0.496843    1.518846   -0.015170
      8          1           0       -0.387050   -1.500620   -0.061535
      9          1           0       -1.997142    1.166198   -0.018228
     10          1           0       -2.740851   -0.503344    0.118812
 ---------------------------------------------------------------------

 SCF Done:  E(RB2PLYPD3) =  -155.695806781     A.U. after   11 cycles
 E2(B2PLYPD3) =    -0.2268457511D+00 E(B2PLYPD3) =    -0.15592265253247D+03

 The electronic state is 1-A.
 Alpha  occ. eigenvalues --  -10.63209 -10.62705 -10.62054 -10.61757  -0.92896
 Alpha  occ. eigenvalues --   -0.84490  -0.69749  -0.63640  -0.54304  -0.53415
 Alpha  occ. eigenvalues --   -0.46296  -0.45318  -0.41252  -0.38012  -0.27473
 Alpha virt. eigenvalues --    0.01608   0.07019   0.07162   0.07980   0.09233
 Alpha virt. eigenvalues --    0.11676   0.12414   0.14593   0.15623   0.16226
 Alpha virt. eigenvalues --    0.18673   0.19992   0.21652   0.23207   0.23638

 Mulliken charges:
               1
     1  C   -0.172954
     2  C   -0.026723
     3  C   -0.029160
     4  C   -0.178442
     5  H    0.081955
     6  H    0.066391
     7  H    0.054876
     8  H    0.051227
     9  H    0.065800
    10  H    0.087030
 Sum of Mulliken charges =   0.00000

 Dipole moment (field-independent basis, Debye):
    X=              0.0322    Y=              0.0423    Z=              0.0030  Tot=              0.0533
 Quadrupole moment (field-independent basis, Debye-Ang):
   XX=            -23.6906   YY=            -23.0876   ZZ=            -29.4116
   XY=             -0.1723   XZ=             -0.1347   YZ=              0.1242

 1\1\GINC-NODE24\SP\RB2PLYPD3-FC\def2QZVP\C4H6\BOITTIER\26-Aug-2020\0\\
 #p B2PLYPD3/Def2QZVP\\butadiene\\0,1\C,0,-3.821749,0.235353,0.055934\C
 ,0,-2.724876,-0.520321,-0.012124\C,0,-1.39923,0.074039,-0.001046\C,0,-
 0.258196,-0.649693,0.05101\H,0,-4.818971,-0.246065,0.133669\H,0,-3.753
 458,1.329714,-0.089685\H,0,-2.817474,-1.617658,0.065979\H,0,-1.399423,
 1.186836,-0.090671\H,0,-0.30097,-1.724782,0.057908\H,0,0.734419,-0.214
 376,0.134692\\Version=ES64L-G09RevD.01\State=1-A\HF=-155.6958068\MP2=-
 155.9226525\RMSD=5.139e-09\PG=C01 [X(C4H6)]\\@

 Normal termination of Gaussian 09 at Wed Aug 26 08:43:26 2020.
