 Gaussian 09, Revision D.01,
 Gaussian 09:  ES64L-G09RevD.01 24-Apr-2013

 --------------------
 #p B2PLYPD3/Def2QZVP
 --------------------

 ---------
 butadiene
 ---------
 Symbolic Z-matrix:
 Charge =  0 Multiplicity = 1

                         Standard orientation:
 ---------------------------------------------------------------------
 Center     Atomic      Atomic             Coordinates (Angstroms)
 Number     Number       Type             X           Y           Z
 ---------------------------------------------------------------------
      1          6           0       -1.828492    0.086046    0.006863
      2          6           0       -0.597784   -0.379685   -0.055065
      3          6           0        0.596158    0.411384   -0.012515
      4          6           0        1.826646   -0.125533    0.024867
      5          1           0       -2.689643   -0.566256    0.181279
      6          1           0       -1.997057    1.173751    0.028887
      7          1           0       -0.409065   -1.439937   -0.000231
      8          1           0        0.414296    1.517291   -0.069584
      9          1           0        2.004438   -1.170225   -0.032219
     10          1           0        2.697863    0.532104    0.106972
 ---------------------------------------------------------------------

 SCF Done:  E(RB2PLYPD3) =  -155.696258159     A.U. after   11 cycles
 E2(B2PLYPD3) =    -0.2260065115D+00 E(B2PLYPD3) =    -0.15592226467014D+03

 The electronic state is 1-A.
 Alpha  occ. eigenvalues --  -10.62881 -10.61881 -10.61680 -10.61550  -0.93450
 Alpha  occ. eigenvalues --   -0.84911  -0.70304  -0.63809  -0.54655  -0.53726
 Alpha  occ. eigenvalues --   -0.46789  -0.45569  -0.40812  -0.38389  -0.27646
 Alpha virt. eigenvalues --    0.01620   0.07007   0.07281   0.08053   0.09667
 Alpha virt. eigenvalues --    0.11763   0.12376   0.14842   0.15555   0.16109
 Alpha virt. eigenvalues --    0.18707   0.20274   0.21666   0.23020   0.23707

 Mulliken charges:
               1
     1  C   -0.173275
     2  C   -0.016540
     3  C   -0.028087
     4  C   -0.182923
     5  H    0.085978
     6  H    0.058484
     7  H    0.050069
     8  H    0.048198
     9  H    0.073490
    10  H    0.084606
 Sum of Mulliken charges =   0.00000

 Dipole moment (field-independent basis, Debye):
    X=              0.0357    Y=             -0.0413    Z=              0.1462  Tot=              0.1560
 Quadrupole moment (field-independent basis, Debye-Ang):
   XX=            -23.6857   YY=            -23.1867   ZZ=            -29.1946
   XY=             -0.3086   XZ=             -0.4255   YZ=             -0.0873

 1\1\GINC-NODE13\SP\RB2PLYPD3-FC\def2QZVP\C4H6\BOITTIER\26-Aug-2020\0\\
 #p B2PLYPD3/Def2QZVP\\butadiene\\0,1\C,0,-3.832314,0.210377,0.034624\C
 ,0,-2.709888,-0.477722,-0.010798\C,0,-1.389638,0.07899,-0.000318\C,0,-
 0.279797,-0.675219,0.056246\H,0,-4.798003,-0.263674,0.235175\H,0,-3.79
 6048,1.310511,0.014828\H,0,-2.720614,-1.551742,0.084714\H,0,-1.363726,
 1.196481,-0.099835\H,0,-0.299313,-1.736154,0.039334\H,0,0.698925,-0.18
 8121,0.111806\\Version=ES64L-G09RevD.01\State=1-A\HF=-155.6962582\MP2=
 -155.9222647\RMSD=6.422e-09\PG=C01 [X(C4H6)]\\@

 Normal termination of Gaussian 09 at Wed Aug 26 11:17:27 2020.
