 Gaussian 09, Revision D.01,
 Gaussian 09:  ES64L-G09RevD.01 24-Apr-2013

 --------------------
 #p B2PLYPD3/Def2QZVP
 --------------------

 ---------
 butadiene
 ---------
 Symbolic Z-matrix:
 Charge =  0 Multiplicity = 1

                         Standard orientation:
 ---------------------------------------------------------------------
 Center     Atomic      Atomic             Coordinates (Angstroms)
 Number     Number       Type             X           Y           Z
 ---------------------------------------------------------------------
      1          6           0        1.843488   -0.086643   -0.054455
      2          6           0        0.592570    0.388667    0.042197
      3          6           0       -0.600729   -0.440488    0.039957
      4          6           0       -1.842627    0.116964   -0.034898
      5          1           0        2.673315    0.521272   -0.039397
      6          1           0        2.001890   -1.143188   -0.000636
      7          1           0        0.421423    1.480142    0.092433
      8          1           0       -0.392910   -1.472496    0.109135
      9          1           0       -1.910929    1.214527   -0.005156
     10          1           0       -2.749003   -0.471253   -0.113189
 ---------------------------------------------------------------------

 SCF Done:  E(RB2PLYPD3) =  -155.694591070     A.U. after   11 cycles
 E2(B2PLYPD3) =    -0.2264512825D+00 E(B2PLYPD3) =    -0.15592104235280D+03

 The electronic state is 1-A.
 Alpha  occ. eigenvalues --  -10.62772 -10.62674 -10.62340 -10.60788  -0.92890
 Alpha  occ. eigenvalues --   -0.84531  -0.70611  -0.64377  -0.55007  -0.53581
 Alpha  occ. eigenvalues --   -0.47092  -0.45663  -0.41659  -0.37699  -0.27322
 Alpha virt. eigenvalues --    0.01360   0.07052   0.07366   0.08216   0.09303
 Alpha virt. eigenvalues --    0.11678   0.12632   0.14641   0.15842   0.16152
 Alpha virt. eigenvalues --    0.18778   0.20312   0.21686   0.23123   0.23990

 Mulliken charges:
               1
     1  C   -0.181960
     2  C   -0.016141
     3  C   -0.041009
     4  C   -0.174649
     5  H    0.089206
     6  H    0.059198
     7  H    0.046177
     8  H    0.061590
     9  H    0.067525
    10  H    0.090063
 Sum of Mulliken charges =   0.00000

 Dipole moment (field-independent basis, Debye):
    X=             -0.0176    Y=             -0.0286    Z=              0.0971  Tot=              0.1027
 Quadrupole moment (field-independent basis, Debye-Ang):
   XX=            -23.4833   YY=            -23.1596   ZZ=            -29.3217
   XY=             -0.1661   XZ=              0.2558   YZ=              0.0044

 1\1\GINC-NODE14\SP\RB2PLYPD3-FC\def2QZVP\C4H6\BOITTIER\26-Aug-2020\0\\
 #p B2PLYPD3/Def2QZVP\\butadiene\\0,1\C,0,-3.849453,0.208323,-0.030355\
 C,0,-2.707728,-0.487914,0.078158\C,0,-1.381563,0.105559,0.054922\C,0,-
 0.264725,-0.67395,-0.005945\H,0,-4.777411,-0.234811,0.000089\H,0,-3.80
 9231,1.276929,-0.003183\H,0,-2.7414,-1.590618,0.155888\H,0,-1.394373,1
 .159593,0.09807\H,0,-0.400686,-1.764094,0.051458\H,0,0.73451,-0.265912
 ,-0.099111\\Version=ES64L-G09RevD.01\State=1-A\HF=-155.6945911\MP2=-15
 5.9210424\RMSD=9.550e-09\PG=C01 [X(C4H6)]\\@

 Normal termination of Gaussian 09 at Wed Aug 26 10:45:37 2020.
