 Gaussian 09, Revision D.01,
 Gaussian 09:  ES64L-G09RevD.01 24-Apr-2013

 --------------------
 #p B2PLYPD3/Def2QZVP
 --------------------

 ---------
 butadiene
 ---------
 Symbolic Z-matrix:
 Charge =  0 Multiplicity = 1

                         Standard orientation:
 ---------------------------------------------------------------------
 Center     Atomic      Atomic             Coordinates (Angstroms)
 Number     Number       Type             X           Y           Z
 ---------------------------------------------------------------------
      1          6           0        1.837758   -0.130437    0.014632
      2          6           0        0.611801    0.440182   -0.026002
      3          6           0       -0.593142   -0.403472   -0.073401
      4          6           0       -1.830782    0.102113    0.027394
      5          1           0        2.749592    0.503399    0.074343
      6          1           0        1.890120   -1.203804    0.127103
      7          1           0        0.416769    1.500163   -0.056081
      8          1           0       -0.471612   -1.500759    0.005871
      9          1           0       -2.019528    1.194565    0.114560
     10          1           0       -2.719152   -0.543879    0.078464
 ---------------------------------------------------------------------

 SCF Done:  E(RB2PLYPD3) =  -155.694589322     A.U. after   11 cycles
 E2(B2PLYPD3) =    -0.2270086536D+00 E(B2PLYPD3) =    -0.15592159797514D+03

 The electronic state is 1-A.
 Alpha  occ. eigenvalues --  -10.62999 -10.62891 -10.62130 -10.62036  -0.92626
 Alpha  occ. eigenvalues --   -0.84365  -0.69396  -0.64011  -0.54006  -0.53359
 Alpha  occ. eigenvalues --   -0.46429  -0.45378  -0.41103  -0.37801  -0.27516
 Alpha virt. eigenvalues --    0.01678   0.06996   0.07196   0.08003   0.09019
 Alpha virt. eigenvalues --    0.11703   0.12351   0.14520   0.15526   0.16230
 Alpha virt. eigenvalues --    0.18676   0.20002   0.21662   0.22877   0.23880

 Mulliken charges:
               1
     1  C   -0.173379
     2  C   -0.039439
     3  C   -0.025890
     4  C   -0.175466
     5  H    0.085090
     6  H    0.071264
     7  H    0.062077
     8  H    0.053590
     9  H    0.059815
    10  H    0.082338
 Sum of Mulliken charges =   0.00000

 Dipole moment (field-independent basis, Debye):
    X=             -0.0359    Y=              0.0254    Z=              0.2511  Tot=              0.2549
 Quadrupole moment (field-independent basis, Debye-Ang):
   XX=            -23.8967   YY=            -22.9910   ZZ=            -29.4596
   XY=             -0.1020   XZ=             -0.0587   YZ=             -0.1417

 1\1\GINC-NODE05\SP\RB2PLYPD3-FC\def2QZVP\C4H6\BOITTIER\26-Aug-2020\0\\
 #p B2PLYPD3/Def2QZVP\\butadiene\\0,1\C,0,-3.833254,0.244308,0.039492\C
 ,0,-2.729899,-0.538027,0.01144\C,0,-1.392966,0.074309,-0.04806\C,0,-0.
 266282,-0.643684,0.064186\H,0,-4.844121,-0.214137,0.108277\H,0,-3.6916
 8,1.311405,0.133134\H,0,-2.728638,-1.616162,0.00025\H,0,-1.315166,1.17
 6785,0.011823\H,0,-0.276923,-1.750571,0.170776\H,0,0.723801,-0.167123,
 0.105904\\Version=ES64L-G09RevD.01\State=1-A\HF=-155.6945893\MP2=-155.
 921598\RMSD=6.617e-09\PG=C01 [X(C4H6)]\\@

 Normal termination of Gaussian 09 at Wed Aug 26 12:09:05 2020.
