 Gaussian 09, Revision D.01,
 Gaussian 09:  ES64L-G09RevD.01 24-Apr-2013

 --------------------
 #p B2PLYPD3/Def2QZVP
 --------------------

 ---------
 butadiene
 ---------
 Symbolic Z-matrix:
 Charge =  0 Multiplicity = 1

                         Standard orientation:
 ---------------------------------------------------------------------
 Center     Atomic      Atomic             Coordinates (Angstroms)
 Number     Number       Type             X           Y           Z
 ---------------------------------------------------------------------
      1          6           0       -1.848517   -0.149595    0.017393
      2          6           0       -0.614387    0.449467   -0.079888
      3          6           0        0.640743   -0.354438   -0.081365
      4          6           0        1.873141    0.085051    0.070336
      5          1           0       -2.762274    0.426146    0.210648
      6          1           0       -1.949896   -1.313829    0.241264
      7          1           0       -0.715113    1.560083   -0.149616
      8          1           0        0.424355   -1.436532   -0.083722
      9          1           0        1.993406    1.163606    0.281848
     10          1           0        2.703641   -0.582380   -0.059281
 ---------------------------------------------------------------------

 SCF Done:  E(RB2PLYPD3) =  -155.679105776     A.U. after   12 cycles
 E2(B2PLYPD3) =    -0.2279495947D+00 E(B2PLYPD3) =    -0.15590705537115D+03

 The electronic state is 1-A.
 Alpha  occ. eigenvalues --  -10.64029 -10.63345 -10.63087 -10.61579  -0.92239
 Alpha  occ. eigenvalues --   -0.84686  -0.69174  -0.62949  -0.54396  -0.53247
 Alpha  occ. eigenvalues --   -0.46246  -0.44259  -0.40872  -0.37472  -0.27797
 Alpha virt. eigenvalues --    0.01276   0.06920   0.07224   0.07676   0.09206
 Alpha virt. eigenvalues --    0.11494   0.12110   0.14096   0.15639   0.16492
 Alpha virt. eigenvalues --    0.18941   0.19181   0.21201   0.22323   0.23545

 Mulliken charges:
               1
     1  C   -0.161224
     2  C   -0.049475
     3  C   -0.024005
     4  C   -0.176595
     5  H    0.081143
     6  H    0.044488
     7  H    0.059737
     8  H    0.058472
     9  H    0.070267
    10  H    0.097193
 Sum of Mulliken charges =   0.00000

 Dipole moment (field-independent basis, Debye):
    X=              0.0071    Y=              0.0641    Z=              0.2854  Tot=              0.2926
 Quadrupole moment (field-independent basis, Debye-Ang):
   XX=            -23.7778   YY=            -23.2913   ZZ=            -29.4291
   XY=             -0.4560   XZ=             -0.6710   YZ=              0.1087

 1\1\GINC-NODE21\SP\RB2PLYPD3-FC\def2QZVP\C4H6\BOITTIER\26-Aug-2020\0\\
 #p B2PLYPD3/Def2QZVP\\butadiene\\0,1\C,0,-3.853986,0.245919,-0.018689\
 C,0,-2.738465,-0.547705,0.112423\C,0,-1.365741,0.032474,0.087179\C,0,-
 0.225251,-0.614626,-0.037376\H,0,-4.851929,-0.175507,-0.192719\H,0,-3.
 757788,1.39965,-0.293438\H,0,-3.024976,-1.621329,0.229548\H,0,-1.39654
 5,1.134608,0.041257\H,0,-0.288794,-1.706236,-0.201182\H,0,0.70603,-0.0
 91668,0.068567\\Version=ES64L-G09RevD.01\State=1-A\HF=-155.6791058\MP2
 =-155.9070554\RMSD=3.026e-09\PG=C01 [X(C4H6)]\\@

 Normal termination of Gaussian 09 at Wed Aug 26 14:32:55 2020.
