 Gaussian 09, Revision D.01,
 Gaussian 09:  ES64L-G09RevD.01 24-Apr-2013

 --------------------
 #p B2PLYPD3/Def2QZVP
 --------------------

 ---------
 butadiene
 ---------
 Symbolic Z-matrix:
 Charge =  0 Multiplicity = 1

                         Standard orientation:
 ---------------------------------------------------------------------
 Center     Atomic      Atomic             Coordinates (Angstroms)
 Number     Number       Type             X           Y           Z
 ---------------------------------------------------------------------
      1          6           0       -1.837404    0.101767   -0.023254
      2          6           0       -0.603030   -0.389713    0.042336
      3          6           0        0.606138    0.425543    0.018642
      4          6           0        1.832562   -0.127301   -0.026276
      5          1           0       -2.707460   -0.540984   -0.041221
      6          1           0       -1.960672    1.177885   -0.024665
      7          1           0       -0.477206   -1.479456   -0.008778
      8          1           0        0.489095    1.502726    0.029251
      9          1           0        1.939791   -1.189718   -0.003755
     10          1           0        2.726853    0.467769   -0.019525
 ---------------------------------------------------------------------

 SCF Done:  E(RB2PLYPD3) =  -155.700188413     A.U. after   11 cycles
 E2(B2PLYPD3) =    -0.2258490195D+00 E(B2PLYPD3) =    -0.15592603743247D+03

 The electronic state is 1-A.
 Alpha  occ. eigenvalues --  -10.62771 -10.62490 -10.61441 -10.61343  -0.92929
 Alpha  occ. eigenvalues --   -0.84898  -0.69972  -0.64092  -0.54487  -0.54113
 Alpha  occ. eigenvalues --   -0.46563  -0.45564  -0.41414  -0.38045  -0.27623
 Alpha virt. eigenvalues --    0.01780   0.07051   0.07390   0.08065   0.09437
 Alpha virt. eigenvalues --    0.11716   0.12527   0.14613   0.15772   0.16221
 Alpha virt. eigenvalues --    0.18727   0.20304   0.21558   0.23136   0.24018

 Mulliken charges:
               1
     1  C   -0.178654
     2  C   -0.022403
     3  C   -0.037210
     4  C   -0.175211
     5  H    0.089031
     6  H    0.063309
     7  H    0.050976
     8  H    0.056326
     9  H    0.067688
    10  H    0.086147
 Sum of Mulliken charges =   0.00000

 Dipole moment (field-independent basis, Debye):
    X=              0.0288    Y=             -0.0006    Z=             -0.0183  Tot=              0.0341
 Quadrupole moment (field-independent basis, Debye-Ang):
   XX=            -23.5701   YY=            -23.0421   ZZ=            -29.2985
   XY=              0.0211   XZ=              0.1488   YZ=              0.0530

 1\1\GINC-NODE12\SP\RB2PLYPD3-FC\def2QZVP\C4H6\BOITTIER\26-Aug-2020\0\\
 #p B2PLYPD3/Def2QZVP\\butadiene\\0,1\C,0,-3.842371,0.20997,-0.007262\C
 ,0,-2.714832,-0.491234,0.073374\C,0,-1.380118,0.095513,0.033888\C,0,-0
 .271457,-0.667267,0.005471\H,0,-4.812784,-0.268279,-0.012533\H,0,-3.77
 2539,1.290532,-0.034379\H,0,-2.784643,-1.586899,0.048308\H,0,-1.303954
 ,1.176302,0.018781\H,0,-0.354611,-1.731002,0.053323\H,0,0.714319,-0.24
 0498,0.000721\\Version=ES64L-G09RevD.01\State=1-A\HF=-155.7001884\MP2=
 -155.9260374\RMSD=6.079e-09\PG=C01 [X(C4H6)]\\@

 Normal termination of Gaussian 09 at Wed Aug 26 18:38:36 2020.
