 Gaussian 09, Revision D.01,
 Gaussian 09:  ES64L-G09RevD.01 24-Apr-2013

 --------------------
 #p B2PLYPD3/Def2QZVP
 --------------------

 ---------
 butadiene
 ---------
 Symbolic Z-matrix:
 Charge =  0 Multiplicity = 1

                         Standard orientation:
 ---------------------------------------------------------------------
 Center     Atomic      Atomic             Coordinates (Angstroms)
 Number     Number       Type             X           Y           Z
 ---------------------------------------------------------------------
      1          6           0       -1.824518    0.057251   -0.103152
      2          6           0       -0.585192   -0.393433    0.133447
      3          6           0        0.596465    0.451275    0.063245
      4          6           0        1.835584   -0.120169   -0.051450
      5          1           0       -2.853734   -0.435219   -0.104055
      6          1           0       -1.990543    1.171401    0.030222
      7          1           0       -0.367225   -1.510529   -0.007902
      8          1           0        0.364881    1.508224    0.053789
      9          1           0        1.987675   -1.160087   -0.043867
     10          1           0        2.724909    0.456666   -0.180732
 ---------------------------------------------------------------------

 SCF Done:  E(RB2PLYPD3) =  -155.679009354     A.U. after   12 cycles
 E2(B2PLYPD3) =    -0.2283383234D+00 E(B2PLYPD3) =    -0.15590734767707D+03

 The electronic state is 1-A.
 Alpha  occ. eigenvalues --  -10.63523 -10.63462 -10.62863 -10.61858  -0.92864
 Alpha  occ. eigenvalues --   -0.84136  -0.70357  -0.63790  -0.54860  -0.52610
 Alpha  occ. eigenvalues --   -0.47048  -0.44852  -0.39971  -0.38118  -0.27459
 Alpha virt. eigenvalues --    0.01011   0.07005   0.07132   0.08099   0.08604
 Alpha virt. eigenvalues --    0.11505   0.12715   0.14233   0.15266   0.16744
 Alpha virt. eigenvalues --    0.18911   0.19220   0.22379   0.22739   0.23876

 Mulliken charges:
               1
     1  C   -0.157600
     2  C   -0.019885
     3  C   -0.036921
     4  C   -0.173004
     5  H    0.080062
     6  H    0.038977
     7  H    0.049597
     8  H    0.061916
     9  H    0.072740
    10  H    0.084117
 Sum of Mulliken charges =   0.00000

 Dipole moment (field-independent basis, Debye):
    X=              0.0338    Y=              0.0299    Z=             -0.0898  Tot=              0.1005
 Quadrupole moment (field-independent basis, Debye-Ang):
   XX=            -23.0294   YY=            -23.6530   ZZ=            -29.4557
   XY=             -0.5803   XZ=             -0.3367   YZ=              0.1826

 1\1\GINC-NODE38\SP\RB2PLYPD3-FC\def2QZVP\C4H6\BOITTIER\26-Aug-2020\0\\
 #p B2PLYPD3/Def2QZVP\\butadiene\\0,1\C,0,-3.83543,0.188831,-0.081532\C
 ,0,-2.703922,-0.487882,0.156743\C,0,-1.383323,0.116147,0.079676\C,0,-0
 .275799,-0.6813,-0.032532\H,0,-4.939532,-0.098849,-0.078071\H,0,-3.786
 177,1.315039,0.04461\H,0,-2.702761,-1.626914,0.02259\H,0,-1.409642,1.1
 97768,0.063441\H,0,-0.324286,-1.731091,-0.018199\H,0,0.706715,-0.28500
 9,-0.166588\\Version=ES64L-G09RevD.01\State=1-A\HF=-155.6790094\MP2=-1
 55.9073477\RMSD=4.358e-09\PG=C01 [X(C4H6)]\\@

 Normal termination of Gaussian 09 at Wed Aug 26 15:59:25 2020.
