 Gaussian 09, Revision D.01,
 Gaussian 09:  ES64L-G09RevD.01 24-Apr-2013

 --------------------
 #p B2PLYPD3/Def2QZVP
 --------------------

 ---------
 butadiene
 ---------
 Symbolic Z-matrix:
 Charge =  0 Multiplicity = 1

                         Standard orientation:
 ---------------------------------------------------------------------
 Center     Atomic      Atomic             Coordinates (Angstroms)
 Number     Number       Type             X           Y           Z
 ---------------------------------------------------------------------
      1          6           0       -1.856034   -0.103019    0.016685
      2          6           0       -0.621632    0.425214   -0.086166
      3          6           0        0.620493   -0.387644   -0.100314
      4          6           0        1.865682    0.083204    0.060275
      5          1           0       -2.863263    0.419646    0.283323
      6          1           0       -2.007591   -1.193647    0.154010
      7          1           0       -0.440013    1.470826   -0.042572
      8          1           0        0.430258   -1.435699   -0.013787
      9          1           0        2.135609    1.223056    0.131011
     10          1           0        2.693950   -0.590712    0.145138
 ---------------------------------------------------------------------

 SCF Done:  E(RB2PLYPD3) =  -155.681892827     A.U. after   11 cycles
 E2(B2PLYPD3) =    -0.2274256361D+00 E(B2PLYPD3) =    -0.15590931846301D+03

 The electronic state is 1-A.
 Alpha  occ. eigenvalues --  -10.63217 -10.63062 -10.62959 -10.62730  -0.92454
 Alpha  occ. eigenvalues --   -0.84408  -0.69694  -0.64140  -0.54711  -0.52217
 Alpha  occ. eigenvalues --   -0.47723  -0.44178  -0.40095  -0.37786  -0.27932
 Alpha virt. eigenvalues --    0.01335   0.06855   0.07112   0.08128   0.09116
 Alpha virt. eigenvalues --    0.11349   0.12358   0.14106   0.15679   0.16408
 Alpha virt. eigenvalues --    0.19132   0.19877   0.21469   0.22658   0.23324

 Mulliken charges:
               1
     1  C   -0.151859
     2  C   -0.038664
     3  C   -0.036972
     4  C   -0.169520
     5  H    0.072530
     6  H    0.051088
     7  H    0.064562
     8  H    0.061087
     9  H    0.059638
    10  H    0.088109
 Sum of Mulliken charges =   0.00000

 Dipole moment (field-independent basis, Debye):
    X=              0.0605    Y=             -0.0516    Z=              0.4544  Tot=              0.4613
 Quadrupole moment (field-independent basis, Debye-Ang):
   XX=            -23.3214   YY=            -23.5122   ZZ=            -29.3922
   XY=              0.4471   XZ=             -0.4490   YZ=             -0.0548

 1\1\GINC-NODE28\SP\RB2PLYPD3-FC\def2QZVP\C4H6\BOITTIER\26-Aug-2020\0\\
 #p B2PLYPD3/Def2QZVP\\butadiene\\0,1\C,0,-3.858835,0.225967,-0.019771\
 C,0,-2.741684,-0.514319,0.111787\C,0,-1.371854,0.057744,0.100709\C,0,-
 0.233974,-0.638875,-0.033201\H,0,-4.945021,-0.114248,-0.271242\H,0,-3.
 808614,1.31941,-0.201863\H,0,-2.754372,-1.576406,0.111478\H,0,-1.36737
 2,1.118505,-0.029146\H,0,-0.177111,-1.81078,-0.056294\H,0,0.703433,-0.
 131699,-0.140123\\Version=ES64L-G09RevD.01\State=1-A\HF=-155.6818928\M
 P2=-155.9093185\RMSD=4.492e-09\PG=C01 [X(C4H6)]\\@

 Normal termination of Gaussian 09 at Wed Aug 26 11:56:17 2020.
