 Gaussian 09, Revision D.01,
 Gaussian 09:  ES64L-G09RevD.01 24-Apr-2013

 --------------------
 #p B2PLYPD3/Def2QZVP
 --------------------

 ---------
 butadiene
 ---------
 Symbolic Z-matrix:
 Charge =  0 Multiplicity = 1

                         Standard orientation:
 ---------------------------------------------------------------------
 Center     Atomic      Atomic             Coordinates (Angstroms)
 Number     Number       Type             X           Y           Z
 ---------------------------------------------------------------------
      1          6           0        1.829411   -0.103398    0.015037
      2          6           0        0.600152    0.388494   -0.046874
      3          6           0       -0.606670   -0.418810   -0.049136
      4          6           0       -1.838577    0.107626    0.019191
      5          1           0        2.743638    0.536143    0.088647
      6          1           0        2.031922   -1.137077    0.086814
      7          1           0        0.460205    1.467034    0.053320
      8          1           0       -0.412161   -1.457329   -0.008063
      9          1           0       -1.936713    1.227497    0.009308
     10          1           0       -2.792789   -0.479735    0.140670
 ---------------------------------------------------------------------

 SCF Done:  E(RB2PLYPD3) =  -155.694044155     A.U. after   11 cycles
 E2(B2PLYPD3) =    -0.2262231851D+00 E(B2PLYPD3) =    -0.15592026733975D+03

 The electronic state is 1-A.
 Alpha  occ. eigenvalues --  -10.62713 -10.62491 -10.62430 -10.61481  -0.93176
 Alpha  occ. eigenvalues --   -0.84680  -0.69817  -0.64420  -0.54551  -0.53328
 Alpha  occ. eigenvalues --   -0.47034  -0.44971  -0.40810  -0.38195  -0.27751
 Alpha virt. eigenvalues --    0.01684   0.06922   0.07369   0.08015   0.09461
 Alpha virt. eigenvalues --    0.11643   0.12505   0.14479   0.15712   0.16160
 Alpha virt. eigenvalues --    0.18756   0.20169   0.21837   0.22864   0.23707

 Mulliken charges:
               1
     1  C   -0.174371
     2  C   -0.018245
     3  C   -0.040658
     4  C   -0.165810
     5  H    0.077675
     6  H    0.063181
     7  H    0.053293
     8  H    0.059684
     9  H    0.059597
    10  H    0.085655
 Sum of Mulliken charges =   0.00000

 Dipole moment (field-independent basis, Debye):
    X=              0.0160    Y=             -0.0543    Z=              0.2698  Tot=              0.2757
 Quadrupole moment (field-independent basis, Debye-Ang):
   XX=            -23.3821   YY=            -23.3404   ZZ=            -29.2849
   XY=             -0.2479   XZ=              0.0124   YZ=             -0.0457

 1\1\GINC-NODE20\SP\RB2PLYPD3-FC\def2QZVP\C4H6\BOITTIER\26-Aug-2020\0\\
 #p B2PLYPD3/Def2QZVP\\butadiene\\0,1\C,0,-3.834807,0.21663,0.041135\C,
 0,-2.715368,-0.491675,-0.003923\C,0,-1.382191,0.08294,-0.028824\C,0,-0
 .265892,-0.655877,0.057349\H,0,-4.849539,-0.243995,0.132711\H,0,-3.846
 25,1.271579,0.081195\H,0,-2.7729,-1.574194,0.129174\H,0,-1.385009,1.14
 0271,-0.019588\H,0,-0.372474,-1.774756,0.081609\H,0,0.779479,-0.247917
 ,0.162417\\Version=ES64L-G09RevD.01\State=1-A\HF=-155.6940442\MP2=-155
 .9202673\RMSD=6.036e-09\PG=C01 [X(C4H6)]\\@

 Normal termination of Gaussian 09 at Wed Aug 26 09:16:29 2020.
