 Gaussian 09, Revision D.01,
 Gaussian 09:  ES64L-G09RevD.01 24-Apr-2013

 --------------------
 #p B2PLYPD3/Def2QZVP
 --------------------

 ---------
 butadiene
 ---------
 Symbolic Z-matrix:
 Charge =  0 Multiplicity = 1

                         Standard orientation:
 ---------------------------------------------------------------------
 Center     Atomic      Atomic             Coordinates (Angstroms)
 Number     Number       Type             X           Y           Z
 ---------------------------------------------------------------------
      1          6           0       -1.812302   -0.133073   -0.014393
      2          6           0       -0.589100    0.422364   -0.074299
      3          6           0        0.598442   -0.393501   -0.044961
      4          6           0        1.846262    0.095722    0.043661
      5          1           0       -2.770095    0.502715    0.291363
      6          1           0       -1.847325   -1.214759    0.033904
      7          1           0       -0.561458    1.483975    0.058716
      8          1           0        0.317189   -1.419954    0.103998
      9          1           0        1.856387    1.224215    0.016070
     10          1           0        2.745489   -0.525258    0.035896
 ---------------------------------------------------------------------

 SCF Done:  E(RB2PLYPD3) =  -155.679754495     A.U. after   11 cycles
 E2(B2PLYPD3) =    -0.2278554485D+00 E(B2PLYPD3) =    -0.15590760994347D+03

 The electronic state is 1-A.
 Alpha  occ. eigenvalues --  -10.62681 -10.62632 -10.62419 -10.62328  -0.93479
 Alpha  occ. eigenvalues --   -0.84477  -0.69220  -0.64525  -0.54209  -0.52979
 Alpha  occ. eigenvalues --   -0.46143  -0.44698  -0.41551  -0.38041  -0.27523
 Alpha virt. eigenvalues --    0.01259   0.06953   0.07270   0.07816   0.09082
 Alpha virt. eigenvalues --    0.11750   0.12538   0.14220   0.15341   0.16198
 Alpha virt. eigenvalues --    0.18384   0.19423   0.21210   0.23468   0.24266

 Mulliken charges:
               1
     1  C   -0.171076
     2  C   -0.017528
     3  C   -0.032485
     4  C   -0.177989
     5  H    0.073246
     6  H    0.058064
     7  H    0.055968
     8  H    0.052591
     9  H    0.062093
    10  H    0.097116
 Sum of Mulliken charges =   0.00000

 Dipole moment (field-independent basis, Debye):
    X=              0.0255    Y=             -0.0155    Z=              0.4048  Tot=              0.4059
 Quadrupole moment (field-independent basis, Debye-Ang):
   XX=            -24.1166   YY=            -23.3381   ZZ=            -29.3361
   XY=             -0.3091   XZ=             -0.8374   YZ=              0.0945

 1\1\GINC-NODE19\SP\RB2PLYPD3-FC\def2QZVP\C4H6\BOITTIER\26-Aug-2020\0\\
 #p B2PLYPD3/Def2QZVP\\butadiene\\0,1\C,0,-3.817196,0.236397,0.008411\C
 ,0,-2.712029,-0.524826,0.094828\C,0,-1.398593,0.066699,0.053179\C,0,-0
 .256897,-0.638087,-0.010508\H,0,-4.871331,-0.228448,-0.287897\H,0,-3.6
 59782,1.305315,-0.07058\H,0,-2.872459,-1.57799,-0.008044\H,0,-1.492914
 ,1.121928,-0.127077\H,0,-0.447032,-1.749249,0.048879\H,0,0.738111,-0.1
 86156,-0.012168\\Version=ES64L-G09RevD.01\State=1-A\HF=-155.6797545\MP
 2=-155.9076099\RMSD=4.049e-09\PG=C01 [X(C4H6)]\\@

 Normal termination of Gaussian 09 at Wed Aug 26 15:17:49 2020.
