 Gaussian 09, Revision D.01,
 Gaussian 09:  ES64L-G09RevD.01 24-Apr-2013

 --------------------
 #p B2PLYPD3/Def2QZVP
 --------------------

 ---------
 butadiene
 ---------
 Symbolic Z-matrix:
 Charge =  0 Multiplicity = 1

                         Standard orientation:
 ---------------------------------------------------------------------
 Center     Atomic      Atomic             Coordinates (Angstroms)
 Number     Number       Type             X           Y           Z
 ---------------------------------------------------------------------
      1          6           0       -1.840698   -0.109839    0.012221
      2          6           0       -0.601779    0.407062   -0.019499
      3          6           0        0.607657   -0.391468   -0.007989
      4          6           0        1.842060    0.105157   -0.001258
      5          1           0       -2.770551    0.459051    0.006957
      6          1           0       -1.940070   -1.182306    0.025009
      7          1           0       -0.497372    1.489343   -0.024051
      8          1           0        0.461345   -1.465808    0.008765
      9          1           0        2.013017    1.165847    0.092249
     10          1           0        2.690188   -0.531592   -0.009782
 ---------------------------------------------------------------------

 SCF Done:  E(RB2PLYPD3) =  -155.700294185     A.U. after   11 cycles
 E2(B2PLYPD3) =    -0.2256911811D+00 E(B2PLYPD3) =    -0.15592598536630D+03

 The electronic state is 1-A.
 Alpha  occ. eigenvalues --  -10.62628 -10.62468 -10.61669 -10.61197  -0.93055
 Alpha  occ. eigenvalues --   -0.84957  -0.70311  -0.64165  -0.54835  -0.53986
 Alpha  occ. eigenvalues --   -0.46884  -0.45456  -0.41287  -0.38131  -0.27639
 Alpha virt. eigenvalues --    0.01633   0.07030   0.07461   0.08077   0.09622
 Alpha virt. eigenvalues --    0.11642   0.12595   0.14627   0.15927   0.16236
 Alpha virt. eigenvalues --    0.18798   0.20594   0.21656   0.22816   0.23753

 Mulliken charges:
               1
     1  C   -0.173654
     2  C   -0.028277
     3  C   -0.029314
     4  C   -0.176394
     5  H    0.087839
     6  H    0.059024
     7  H    0.053199
     8  H    0.052786
     9  H    0.067290
    10  H    0.087501
 Sum of Mulliken charges =   0.00000

 Dipole moment (field-independent basis, Debye):
    X=             -0.0051    Y=             -0.0060    Z=              0.0753  Tot=              0.0757
 Quadrupole moment (field-independent basis, Debye-Ang):
   XX=            -23.2730   YY=            -23.2250   ZZ=            -29.2447
   XY=              0.0376   XZ=              0.1057   YZ=              0.0611

 1\1\GINC-NODE26\SP\RB2PLYPD3-FC\def2QZVP\C4H6\BOITTIER\26-Aug-2020\0\\
 #p B2PLYPD3/Def2QZVP\\butadiene\\0,1\C,0,-3.844148,0.223359,0.006436\C
 ,0,-2.717667,-0.506026,0.052841\C,0,-1.384868,0.06244,0.021059\C,0,-0.
 259354,-0.647206,0.028484\H,0,-4.860797,-0.169489,0.02609\H,0,-3.74996
 3,1.295572,-0.034919\H,0,-2.808688,-1.58901,0.086227\H,0,-1.336545,1.1
 44797,-0.024347\H,0,-0.281427,-1.723449,-0.036676\H,0,0.689094,-0.1726
 23,0.020747\\Version=ES64L-G09RevD.01\State=1-A\HF=-155.7002942\MP2=-1
 55.9259854\RMSD=3.321e-09\PG=C01 [X(C4H6)]\\@

 Normal termination of Gaussian 09 at Wed Aug 26 15:10:14 2020.
