 Gaussian 09, Revision D.01,
 Gaussian 09:  ES64L-G09RevD.01 24-Apr-2013

 --------------------
 #p B2PLYPD3/Def2QZVP
 --------------------

 ---------
 butadiene
 ---------
 Symbolic Z-matrix:
 Charge =  0 Multiplicity = 1

                         Standard orientation:
 ---------------------------------------------------------------------
 Center     Atomic      Atomic             Coordinates (Angstroms)
 Number     Number       Type             X           Y           Z
 ---------------------------------------------------------------------
      1          6           0       -1.845942    0.101821   -0.017459
      2          6           0       -0.607141   -0.394091    0.020497
      3          6           0        0.613453    0.412581    0.006285
      4          6           0        1.838436   -0.119346   -0.022390
      5          1           0       -2.685032   -0.542446    0.000690
      6          1           0       -2.067137    1.165753   -0.054676
      7          1           0       -0.428392   -1.462123    0.062724
      8          1           0        0.497413    1.484830    0.087341
      9          1           0        1.999575   -1.204002   -0.036124
     10          1           0        2.690737    0.552201    0.018446
 ---------------------------------------------------------------------

 SCF Done:  E(RB2PLYPD3) =  -155.700257064     A.U. after   11 cycles
 E2(B2PLYPD3) =    -0.2256465453D+00 E(B2PLYPD3) =    -0.15592590360909D+03

 The electronic state is 1-A.
 Alpha  occ. eigenvalues --  -10.62567 -10.62444 -10.61706 -10.61311  -0.92821
 Alpha  occ. eigenvalues --   -0.84930  -0.70139  -0.64008  -0.54576  -0.53846
 Alpha  occ. eigenvalues --   -0.46720  -0.45885  -0.40984  -0.37922  -0.27754
 Alpha virt. eigenvalues --    0.01811   0.07024   0.07378   0.08096   0.09552
 Alpha virt. eigenvalues --    0.11689   0.12323   0.14801   0.15795   0.16048
 Alpha virt. eigenvalues --    0.18820   0.20492   0.21525   0.22824   0.23848

 Mulliken charges:
               1
     1  C   -0.175756
     2  C   -0.034432
     3  C   -0.029970
     4  C   -0.178350
     5  H    0.085879
     6  H    0.067107
     7  H    0.054788
     8  H    0.057200
     9  H    0.068253
    10  H    0.085281
 Sum of Mulliken charges =   0.00000

 Dipole moment (field-independent basis, Debye):
    X=             -0.0061    Y=              0.0147    Z=              0.0875  Tot=              0.0889
 Quadrupole moment (field-independent basis, Debye-Ang):
   XX=            -23.5969   YY=            -22.9948   ZZ=            -29.2821
   XY=             -0.2470   XZ=              0.1284   YZ=              0.0308

 1\1\GINC-NODE30\SP\RB2PLYPD3-FC\def2QZVP\C4H6\BOITTIER\26-Aug-2020\0\\
 #p B2PLYPD3/Def2QZVP\\butadiene\\0,1\C,0,-3.849027,0.219407,0.001379\C
 ,0,-2.720644,-0.491783,0.055754\C,0,-1.374018,0.079498,0.024018\C,0,-0
 .265883,-0.666332,0.012683\H,0,-4.791015,-0.261304,0.033907\H,0,-3.873
 661,1.304471,-0.064151\H,0,-2.738486,-1.573048,0.126278\H,0,-1.293504,
 1.156756,0.076803\H,0,-0.304167,-1.762207,0.027648\H,0,0.694157,-0.159
 658,0.038447\\Version=ES64L-G09RevD.01\State=1-A\HF=-155.7002571\MP2=-
 155.9259036\RMSD=2.842e-09\PG=C01 [X(C4H6)]\\@

 Normal termination of Gaussian 09 at Wed Aug 26 21:39:01 2020.
