 Gaussian 09, Revision D.01,
 Gaussian 09:  ES64L-G09RevD.01 24-Apr-2013

 --------------------
 #p B2PLYPD3/Def2QZVP
 --------------------

 ---------
 butadiene
 ---------
 Symbolic Z-matrix:
 Charge =  0 Multiplicity = 1

                         Standard orientation:
 ---------------------------------------------------------------------
 Center     Atomic      Atomic             Coordinates (Angstroms)
 Number     Number       Type             X           Y           Z
 ---------------------------------------------------------------------
      1          6           0       -1.837037    0.061867    0.032955
      2          6           0       -0.594935   -0.356974   -0.082131
      3          6           0        0.614691    0.456144   -0.059614
      4          6           0        1.825970   -0.145428    0.051854
      5          1           0       -2.698417   -0.479151   -0.062623
      6          1           0       -1.971277    1.148843    0.428574
      7          1           0       -0.350245   -1.430445   -0.081838
      8          1           0        0.525083    1.521868   -0.209432
      9          1           0        1.699967   -1.279899    0.242772
     10          1           0        2.742760    0.425128    0.024161
 ---------------------------------------------------------------------

 SCF Done:  E(RB2PLYPD3) =  -155.677652455     A.U. after   11 cycles
 E2(B2PLYPD3) =    -0.2272851912D+00 E(B2PLYPD3) =    -0.15590493764609D+03

 The electronic state is 1-A.
 Alpha  occ. eigenvalues --  -10.62814 -10.62705 -10.62522 -10.61413  -0.93114
 Alpha  occ. eigenvalues --   -0.84818  -0.69847  -0.63657  -0.55790  -0.52597
 Alpha  occ. eigenvalues --   -0.47125  -0.44434  -0.41190  -0.37522  -0.27556
 Alpha virt. eigenvalues --    0.01382   0.07018   0.07132   0.07940   0.09193
 Alpha virt. eigenvalues --    0.11647   0.12490   0.14483   0.15258   0.16426
 Alpha virt. eigenvalues --    0.18837   0.19269   0.21285   0.22265   0.23723

 Mulliken charges:
               1
     1  C   -0.177941
     2  C   -0.021712
     3  C   -0.037839
     4  C   -0.176377
     5  H    0.096068
     6  H    0.050974
     7  H    0.046558
     8  H    0.063067
     9  H    0.058512
    10  H    0.098689
 Sum of Mulliken charges =   0.00000

 Dipole moment (field-independent basis, Debye):
    X=              0.0472    Y=              0.0288    Z=              0.1752  Tot=              0.1837
 Quadrupole moment (field-independent basis, Debye-Ang):
   XX=            -23.6567   YY=            -23.6291   ZZ=            -29.1265
   XY=              0.5774   XZ=             -0.2137   YZ=              0.0093

 1\1\GINC-NODE32\SP\RB2PLYPD3-FC\def2QZVP\C4H6\BOITTIER\26-Aug-2020\0\\
 #p B2PLYPD3/Def2QZVP\\butadiene\\0,1\C,0,-3.850128,0.173506,0.063441\C
 ,0,-2.703393,-0.464166,-0.035878\C,0,-1.368315,0.120843,-0.049806\C,0,
 -0.282323,-0.681626,0.085011\H,0,-4.794815,-0.209004,-0.00772\H,0,-3.7
 85334,1.282432,0.412922\H,0,-2.65347,-1.563105,0.009444\H,0,-1.268382,
 1.178373,-0.244448\H,0,-0.606268,-1.766662,0.323984\H,0,0.72101,-0.285
 038,0.03167\\Version=ES64L-G09RevD.01\State=1-A\HF=-155.6776525\MP2=-1
 55.9049376\RMSD=9.578e-09\PG=C01 [X(C4H6)]\\@

 Normal termination of Gaussian 09 at Wed Aug 26 15:57:18 2020.
