 Gaussian 09, Revision D.01,
 Gaussian 09:  ES64L-G09RevD.01 24-Apr-2013

 --------------------
 #p B2PLYPD3/Def2QZVP
 --------------------

 ---------
 butadiene
 ---------
 Symbolic Z-matrix:
 Charge =  0 Multiplicity = 1

                         Standard orientation:
 ---------------------------------------------------------------------
 Center     Atomic      Atomic             Coordinates (Angstroms)
 Number     Number       Type             X           Y           Z
 ---------------------------------------------------------------------
      1          6           0        1.836511    0.101749    0.006124
      2          6           0        0.608363   -0.403411   -0.013132
      3          6           0       -0.601585    0.422518   -0.016565
      4          6           0       -1.829620   -0.122581    0.008795
      5          1           0        2.708404   -0.546694   -0.021739
      6          1           0        1.987656    1.200010    0.103658
      7          1           0        0.406319   -1.462286   -0.014001
      8          1           0       -0.488643    1.498349   -0.051024
      9          1           0       -1.968131   -1.184486    0.061326
     10          1           0       -2.727623    0.505453    0.010446
 ---------------------------------------------------------------------

 SCF Done:  E(RB2PLYPD3) =  -155.699505984     A.U. after   11 cycles
 E2(B2PLYPD3) =    -0.2259306587D+00 E(B2PLYPD3) =    -0.15592543664251D+03

 The electronic state is 1-A.
 Alpha  occ. eigenvalues --  -10.62621 -10.62428 -10.61769 -10.61630  -0.92895
 Alpha  occ. eigenvalues --   -0.84740  -0.69717  -0.64230  -0.54352  -0.53673
 Alpha  occ. eigenvalues --   -0.46637  -0.45658  -0.41087  -0.37989  -0.27682
 Alpha virt. eigenvalues --    0.01879   0.07012   0.07320   0.08092   0.09369
 Alpha virt. eigenvalues --    0.11735   0.12360   0.14641   0.15827   0.16054
 Alpha virt. eigenvalues --    0.18695   0.20478   0.21400   0.23123   0.23803

 Mulliken charges:
               1
     1  C   -0.174622
     2  C   -0.033277
     3  C   -0.029567
     4  C   -0.179182
     5  H    0.087090
     6  H    0.065967
     7  H    0.056681
     8  H    0.057335
     9  H    0.066475
    10  H    0.083102
 Sum of Mulliken charges =   0.00000

 Dipole moment (field-independent basis, Debye):
    X=             -0.0255    Y=             -0.0165    Z=              0.0644  Tot=              0.0712
 Quadrupole moment (field-independent basis, Debye-Ang):
   XX=            -23.7099   YY=            -23.0071   ZZ=            -29.3234
   XY=              0.1599   XZ=              0.0037   YZ=              0.0303

 1\1\GINC-NODE25\SP\RB2PLYPD3-FC\def2QZVP\C4H6\BOITTIER\26-Aug-2020\0\\
 #p B2PLYPD3/Def2QZVP\\butadiene\\0,1\C,0,-3.838376,0.217068,0.010591\C
 ,0,-2.721759,-0.501076,0.047221\C,0,-1.382405,0.092161,0.028643\C,0,-0
 .273273,-0.666539,0.021858\H,0,-4.81305,-0.261901,0.055877\H,0,-3.7887
 68,1.321199,-0.119673\H,0,-2.714513,-1.578538,0.0798\H,0,-1.298833,1.1
 71218,0.031054\H,0,-0.32924,-1.737063,0.001023\H,0,0.723479,-0.211583,
 0.003428\\Version=ES64L-G09RevD.01\State=1-A\HF=-155.699506\MP2=-155.9
 254366\RMSD=5.583e-09\PG=C01 [X(C4H6)]\\@

 Normal termination of Gaussian 09 at Wed Aug 26 21:34:54 2020.
