 Gaussian 09, Revision D.01,
 Gaussian 09:  ES64L-G09RevD.01 24-Apr-2013

 --------------------
 #p B2PLYPD3/Def2QZVP
 --------------------

 ---------
 butadiene
 ---------
 Symbolic Z-matrix:
 Charge =  0 Multiplicity = 1

                         Standard orientation:
 ---------------------------------------------------------------------
 Center     Atomic      Atomic             Coordinates (Angstroms)
 Number     Number       Type             X           Y           Z
 ---------------------------------------------------------------------
      1          6           0       -1.831115    0.098420    0.008119
      2          6           0       -0.603614   -0.390291   -0.032066
      3          6           0        0.598333    0.423700   -0.029497
      4          6           0        1.833290   -0.124709    0.022760
      5          1           0       -2.695355   -0.555541    0.092456
      6          1           0       -2.028337    1.160935    0.047772
      7          1           0       -0.454010   -1.475710   -0.033929
      8          1           0        0.466548    1.502704    0.006697
      9          1           0        2.006649   -1.176878    0.052290
     10          1           0        2.723141    0.501769    0.018817
 ---------------------------------------------------------------------

 SCF Done:  E(RB2PLYPD3) =  -155.700075081     A.U. after   11 cycles
 E2(B2PLYPD3) =    -0.2258359406D+00 E(B2PLYPD3) =    -0.15592591102134D+03

 The electronic state is 1-A.
 Alpha  occ. eigenvalues --  -10.62846 -10.62359 -10.61695 -10.61269  -0.92998
 Alpha  occ. eigenvalues --   -0.84784  -0.70151  -0.64115  -0.54475  -0.53976
 Alpha  occ. eigenvalues --   -0.46582  -0.45673  -0.41118  -0.38147  -0.27589
 Alpha virt. eigenvalues --    0.01717   0.07006   0.07373   0.08054   0.09509
 Alpha virt. eigenvalues --    0.11693   0.12438   0.14796   0.15822   0.16187
 Alpha virt. eigenvalues --    0.18768   0.20325   0.21891   0.22897   0.23696

 Mulliken charges:
               1
     1  C   -0.174457
     2  C   -0.022275
     3  C   -0.038092
     4  C   -0.176377
     5  H    0.082867
     6  H    0.063978
     7  H    0.053373
     8  H    0.059108
     9  H    0.069955
    10  H    0.081920
 Sum of Mulliken charges =   0.00000

 Dipole moment (field-independent basis, Debye):
    X=              0.0178    Y=             -0.0059    Z=              0.1271  Tot=              0.1285
 Quadrupole moment (field-independent basis, Debye-Ang):
   XX=            -23.5669   YY=            -23.0317   ZZ=            -29.2817
   XY=             -0.2940   XZ=             -0.1973   YZ=             -0.0120

 1\1\GINC-NODE11\SP\RB2PLYPD3-FC\def2QZVP\C4H6\BOITTIER\26-Aug-2020\0\\
 #p B2PLYPD3/Def2QZVP\\butadiene\\0,1\C,0,-3.834475,0.215041,0.032892\C
 ,0,-2.716701,-0.490051,0.00762\C,0,-1.386638,0.091104,-0.013726\C,0,-0
 .271926,-0.671308,0.055183\H,0,-4.802895,-0.267796,0.136432\H,0,-3.834
 731,1.296403,0.040825\H,0,-2.767242,-1.584142,0.038129\H,0,-1.319567,1
 .176651,-0.009724\H,0,-0.292894,-1.736125,0.116087\H,0,0.717086,-0.217
 789,0.032827\\Version=ES64L-G09RevD.01\State=1-A\HF=-155.7000751\MP2=-
 155.925911\RMSD=5.617e-09\PG=C01 [X(C4H6)]\\@

 Normal termination of Gaussian 09 at Wed Aug 26 21:55:23 2020.
