 Gaussian 09, Revision D.01,
 Gaussian 09:  ES64L-G09RevD.01 24-Apr-2013

 --------------------
 #p B2PLYPD3/Def2QZVP
 --------------------

 ---------
 butadiene
 ---------
 Symbolic Z-matrix:
 Charge =  0 Multiplicity = 1

                         Standard orientation:
 ---------------------------------------------------------------------
 Center     Atomic      Atomic             Coordinates (Angstroms)
 Number     Number       Type             X           Y           Z
 ---------------------------------------------------------------------
      1          6           0        1.834007    0.098263    0.022849
      2          6           0        0.595306   -0.395502   -0.032682
      3          6           0       -0.604908    0.418378   -0.011117
      4          6           0       -1.836315   -0.117690    0.007256
      5          1           0        2.708451   -0.522257   -0.027156
      6          1           0        2.040130    1.174145    0.096109
      7          1           0        0.490765   -1.451274   -0.037269
      8          1           0       -0.484729    1.497008   -0.067899
      9          1           0       -1.942903   -1.201762    0.115529
     10          1           0       -2.740255    0.483445    0.002843
 ---------------------------------------------------------------------

 SCF Done:  E(RB2PLYPD3) =  -155.699753084     A.U. after   11 cycles
 E2(B2PLYPD3) =    -0.2258817694D+00 E(B2PLYPD3) =    -0.15592563485340D+03

 The electronic state is 1-A.
 Alpha  occ. eigenvalues --  -10.62682 -10.62252 -10.61794 -10.61488  -0.93026
 Alpha  occ. eigenvalues --   -0.84761  -0.70028  -0.64331  -0.54668  -0.53880
 Alpha  occ. eigenvalues --   -0.46627  -0.45289  -0.41463  -0.38085  -0.27561
 Alpha virt. eigenvalues --    0.01664   0.07035   0.07433   0.08057   0.09479
 Alpha virt. eigenvalues --    0.11646   0.12483   0.14647   0.15812   0.16347
 Alpha virt. eigenvalues --    0.18802   0.20285   0.21728   0.22675   0.23825

 Mulliken charges:
               1
     1  C   -0.172824
     2  C   -0.032309
     3  C   -0.033541
     4  C   -0.174353
     5  H    0.083144
     6  H    0.060667
     7  H    0.059751
     8  H    0.059245
     9  H    0.063868
    10  H    0.086352
 Sum of Mulliken charges =   0.00000

 Dipole moment (field-independent basis, Debye):
    X=              0.0089    Y=              0.0010    Z=              0.0468  Tot=              0.0476
 Quadrupole moment (field-independent basis, Debye-Ang):
   XX=            -23.4428   YY=            -23.1198   ZZ=            -29.2731
   XY=              0.0468   XZ=             -0.0921   YZ=             -0.0620

 1\1\GINC-NODE40\SP\RB2PLYPD3-FC\def2QZVP\C4H6\BOITTIER\26-Aug-2020\0\\
 #p B2PLYPD3/Def2QZVP\\butadiene\\0,1\C,0,-3.839936,0.211682,-0.003317\
 C,0,-2.71036,-0.495901,0.064893\C,0,-1.383173,0.087553,0.025714\C,0,-0
 .268632,-0.66201,0.021012\H,0,-4.811746,-0.23971,0.06015\H,0,-3.848978
 ,1.305126,-0.101676\H,0,-2.797828,-1.552833,0.094029\H,0,-1.306772,1.1
 7119,0.057386\H,0,-0.359545,-1.749731,-0.062025\H,0,0.72887,-0.233749,
 0.012427\\Version=ES64L-G09RevD.01\State=1-A\HF=-155.6997531\MP2=-155.
 9256349\RMSD=4.969e-09\PG=C01 [X(C4H6)]\\@

 Normal termination of Gaussian 09 at Wed Aug 26 12:57:57 2020.
