 Gaussian 09, Revision D.01,
 Gaussian 09:  ES64L-G09RevD.01 24-Apr-2013

 --------------------
 #p B2PLYPD3/Def2QZVP
 --------------------

 ---------
 butadiene
 ---------
 Symbolic Z-matrix:
 Charge =  0 Multiplicity = 1

                         Standard orientation:
 ---------------------------------------------------------------------
 Center     Atomic      Atomic             Coordinates (Angstroms)
 Number     Number       Type             X           Y           Z
 ---------------------------------------------------------------------
      1          6           0        1.855742    0.085994   -0.071055
      2          6           0        0.637603   -0.363248    0.109518
      3          6           0       -0.607732    0.435919    0.051688
      4          6           0       -1.856769   -0.167091   -0.087062
      5          1           0        2.616270   -0.630274   -0.201920
      6          1           0        2.050676    1.148380   -0.045537
      7          1           0        0.434780   -1.450306    0.104530
      8          1           0       -0.514613    1.524316    0.213325
      9          1           0       -2.130798   -1.112699    0.086038
     10          1           0       -2.629377    0.571137   -0.174966
 ---------------------------------------------------------------------

 SCF Done:  E(RB2PLYPD3) =  -155.678881689     A.U. after   12 cycles
 E2(B2PLYPD3) =    -0.2267834193D+00 E(B2PLYPD3) =    -0.15590566510861D+03

 The electronic state is 1-A.
 Alpha  occ. eigenvalues --  -10.63979 -10.62334 -10.61408 -10.60865  -0.92404
 Alpha  occ. eigenvalues --   -0.84946  -0.70821  -0.63822  -0.55194  -0.53470
 Alpha  occ. eigenvalues --   -0.48064  -0.45416  -0.41021  -0.36978  -0.27416
 Alpha virt. eigenvalues --    0.01237   0.06997   0.07435   0.08052   0.09090
 Alpha virt. eigenvalues --    0.11616   0.12296   0.15049   0.15441   0.16354
 Alpha virt. eigenvalues --    0.18736   0.19870   0.21241   0.23883   0.24109

 Mulliken charges:
               1
     1  C   -0.173167
     2  C   -0.023239
     3  C   -0.049927
     4  C   -0.184898
     5  H    0.089540
     6  H    0.070973
     7  H    0.048446
     8  H    0.062388
     9  H    0.086162
    10  H    0.073723
 Sum of Mulliken charges =   0.00000

 Dipole moment (field-independent basis, Debye):
    X=              0.0128    Y=              0.0033    Z=              0.1227  Tot=              0.1234
 Quadrupole moment (field-independent basis, Debye-Ang):
   XX=            -23.9418   YY=            -22.8769   ZZ=            -29.2357
   XY=              0.3907   XZ=             -0.5280   YZ=              0.0816

 1\1\GINC-NODE30\SP\RB2PLYPD3-FC\def2QZVP\C4H6\BOITTIER\26-Aug-2020\0\\
 #p B2PLYPD3/Def2QZVP\\butadiene\\0,1\C,0,-3.858241,0.20708,0.09429\C,0
 ,-2.742271,-0.461628,-0.066105\C,0,-1.37335,0.102862,-0.04948\C,0,-0.2
 51218,-0.707216,0.116535\H,0,-4.733412,-0.353952,0.261281\H,0,-3.85989
 2,1.284746,0.017167\H,0,-2.737494,-1.565935,-0.008294\H,0,-1.271593,1.
 181302,-0.263998\H,0,-0.152896,-1.693831,-0.010564\H,0,0.642046,-0.116
 314,0.166957\\Version=ES64L-G09RevD.01\State=1-A\HF=-155.6788817\MP2=-
 155.9056651\RMSD=4.403e-09\PG=C01 [X(C4H6)]\\@

 Normal termination of Gaussian 09 at Wed Aug 26 12:10:44 2020.
