 Gaussian 09, Revision D.01,
 Gaussian 09:  ES64L-G09RevD.01 24-Apr-2013

 --------------------
 #p B2PLYPD3/Def2QZVP
 --------------------

 ---------
 butadiene
 ---------
 Symbolic Z-matrix:
 Charge =  0 Multiplicity = 1

                         Standard orientation:
 ---------------------------------------------------------------------
 Center     Atomic      Atomic             Coordinates (Angstroms)
 Number     Number       Type             X           Y           Z
 ---------------------------------------------------------------------
      1          6           0        1.787549   -0.132196   -0.049782
      2          6           0        0.577197    0.426804    0.117914
      3          6           0       -0.592615   -0.385088    0.057773
      4          6           0       -1.791608    0.101061   -0.072589
      5          1           0        2.820310    0.463211   -0.148472
      6          1           0        1.926530   -1.216238   -0.081265
      7          1           0        0.546547    1.573583   -0.055952
      8          1           0       -0.462906   -1.431443    0.043731
      9          1           0       -2.088369    1.132444   -0.051796
     10          1           0       -2.625248   -0.585039   -0.026143
 ---------------------------------------------------------------------

 SCF Done:  E(RB2PLYPD3) =  -155.679968134     A.U. after   12 cycles
 E2(B2PLYPD3) =    -0.2266240880D+00 E(B2PLYPD3) =    -0.15590659222218D+03

 The electronic state is 1-A.
 Alpha  occ. eigenvalues --  -10.63166 -10.62942 -10.61632 -10.60578  -0.93877
 Alpha  occ. eigenvalues --   -0.84884  -0.69455  -0.63919  -0.54541  -0.53881
 Alpha  occ. eigenvalues --   -0.45861  -0.44327  -0.40853  -0.38668  -0.27718
 Alpha virt. eigenvalues --    0.01857   0.06901   0.07187   0.07745   0.09326
 Alpha virt. eigenvalues --    0.11584   0.12505   0.14667   0.15408   0.16414
 Alpha virt. eigenvalues --    0.18706   0.19660   0.22022   0.22697   0.23951

 Mulliken charges:
               1
     1  C   -0.162651
     2  C   -0.031368
     3  C   -0.028893
     4  C   -0.167435
     5  H    0.068108
     6  H    0.060612
     7  H    0.060893
     8  H    0.063080
     9  H    0.068266
    10  H    0.069388
 Sum of Mulliken charges =   0.00000

 Dipole moment (field-independent basis, Debye):
    X=              0.0223    Y=             -0.0757    Z=             -0.1483  Tot=              0.1680
 Quadrupole moment (field-independent basis, Debye-Ang):
   XX=            -23.7795   YY=            -23.1244   ZZ=            -29.2214
   XY=             -0.3133   XZ=             -0.5471   YZ=             -0.2010

 1\1\GINC-NODE21\SP\RB2PLYPD3-FC\def2QZVP\C4H6\BOITTIER\26-Aug-2020\0\\
 #p B2PLYPD3/Def2QZVP\\butadiene\\0,1\C,0,-3.787833,0.239225,-0.045479\
 C,0,-2.699587,-0.526246,0.142485\C,0,-1.401585,0.05806,0.071597\C,0,-0
 .310612,-0.640664,-0.040125\H,0,-4.911375,-0.160843,-0.137368\H,0,-3.7
 27439,1.329449,-0.102214\H,0,-2.877454,-1.663249,-0.005356\H,0,-1.3389
 61,1.109955,0.033206\H,0,-0.206261,-1.708024,0.005748\H,0,0.633721,-0.
 116488,-0.00378\\Version=ES64L-G09RevD.01\State=1-A\HF=-155.6799681\MP
 2=-155.9065922\RMSD=3.513e-09\PG=C01 [X(C4H6)]\\@

 Normal termination of Gaussian 09 at Wed Aug 26 13:30:40 2020.
