 Gaussian 09, Revision D.01,
 Gaussian 09:  ES64L-G09RevD.01 24-Apr-2013

 --------------------
 #p B2PLYPD3/Def2QZVP
 --------------------

 ---------
 butadiene
 ---------
 Symbolic Z-matrix:
 Charge =  0 Multiplicity = 1

                         Standard orientation:
 ---------------------------------------------------------------------
 Center     Atomic      Atomic             Coordinates (Angstroms)
 Number     Number       Type             X           Y           Z
 ---------------------------------------------------------------------
      1          6           0       -1.841747    0.108405   -0.037514
      2          6           0       -0.600866   -0.401476    0.016564
      3          6           0        0.615840    0.426221    0.042041
      4          6           0        1.819815   -0.128084   -0.028722
      5          1           0       -2.710483   -0.505468    0.051984
      6          1           0       -1.980876    1.154229   -0.067430
      7          1           0       -0.420754   -1.474772    0.107996
      8          1           0        0.536814    1.501302    0.046314
      9          1           0        1.899465   -1.200093   -0.103027
     10          1           0        2.717590    0.494402    0.009947
 ---------------------------------------------------------------------

 SCF Done:  E(RB2PLYPD3) =  -155.698984755     A.U. after   11 cycles
 E2(B2PLYPD3) =    -0.2256059998D+00 E(B2PLYPD3) =    -0.15592459075472D+03

 The electronic state is 1-A.
 Alpha  occ. eigenvalues --  -10.62819 -10.62330 -10.61379 -10.61074  -0.92881
 Alpha  occ. eigenvalues --   -0.84981  -0.69794  -0.64339  -0.54497  -0.54080
 Alpha  occ. eigenvalues --   -0.46516  -0.45941  -0.41349  -0.37855  -0.27731
 Alpha virt. eigenvalues --    0.01959   0.07067   0.07425   0.08076   0.09332
 Alpha virt. eigenvalues --    0.11761   0.12531   0.14660   0.15719   0.16201
 Alpha virt. eigenvalues --    0.18775   0.20318   0.21549   0.23044   0.24004

 Mulliken charges:
               1
     1  C   -0.179697
     2  C   -0.034058
     3  C   -0.031328
     4  C   -0.173681
     5  H    0.086610
     6  H    0.068272
     7  H    0.055735
     8  H    0.057774
     9  H    0.065370
    10  H    0.085003
 Sum of Mulliken charges =   0.00000

 Dipole moment (field-independent basis, Debye):
    X=              0.0415    Y=              0.0399    Z=              0.0804  Tot=              0.0989
 Quadrupole moment (field-independent basis, Debye-Ang):
   XX=            -23.6811   YY=            -22.9900   ZZ=            -29.2422
   XY=             -0.0518   XZ=             -0.2389   YZ=             -0.0703

 1\1\GINC-NODE06\SP\RB2PLYPD3-FC\def2QZVP\C4H6\BOITTIER\26-Aug-2020\0\\
 #p B2PLYPD3/Def2QZVP\\butadiene\\0,1\C,0,-3.845341,0.215776,-0.015157\
 C,0,-2.713923,-0.503657,0.055548\C,0,-1.36989,0.096076,0.05473\C,0,-0.
 283333,-0.664475,0.002075\H,0,-4.808451,-0.23155,0.093796\H,0,-3.79747
 3,1.268238,-0.078657\H,0,-2.725978,-1.588449,0.181424\H,0,-1.257506,1.
 167765,0.024476\H,0,-0.39494,-1.735468,-0.037766\H,0,0.71058,-0.209761
 ,0.020954\\Version=ES64L-G09RevD.01\State=1-A\HF=-155.6989848\MP2=-155
 .9245908\RMSD=5.477e-09\PG=C01 [X(C4H6)]\\@

 Normal termination of Gaussian 09 at Wed Aug 26 09:19:53 2020.
