 Gaussian 09, Revision D.01,
 Gaussian 09:  ES64L-G09RevD.01 24-Apr-2013

 --------------------
 #p B2PLYPD3/Def2QZVP
 --------------------

 ---------
 butadiene
 ---------
 Symbolic Z-matrix:
 Charge =  0 Multiplicity = 1

                         Standard orientation:
 ---------------------------------------------------------------------
 Center     Atomic      Atomic             Coordinates (Angstroms)
 Number     Number       Type             X           Y           Z
 ---------------------------------------------------------------------
      1          6           0        1.847686    0.105423   -0.010044
      2          6           0        0.608932   -0.389658    0.002347
      3          6           0       -0.613872    0.421355    0.005691
      4          6           0       -1.844207   -0.121277   -0.000241
      5          1           0        2.686093   -0.568133    0.016040
      6          1           0        2.038430    1.154363   -0.046275
      7          1           0        0.492298   -1.470226    0.044312
      8          1           0       -0.468492    1.498985    0.074977
      9          1           0       -1.992994   -1.176088   -0.029100
     10          1           0       -2.746569    0.466039   -0.046470
 ---------------------------------------------------------------------

 SCF Done:  E(RB2PLYPD3) =  -155.700460850     A.U. after   11 cycles
 E2(B2PLYPD3) =    -0.2256641647D+00 E(B2PLYPD3) =    -0.15592612501490D+03

 The electronic state is 1-A.
 Alpha  occ. eigenvalues --  -10.62945 -10.62537 -10.61519 -10.61185  -0.92696
 Alpha  occ. eigenvalues --   -0.84915  -0.70249  -0.64182  -0.54562  -0.54062
 Alpha  occ. eigenvalues --   -0.46740  -0.45870  -0.41189  -0.37843  -0.27684
 Alpha virt. eigenvalues --    0.01723   0.07019   0.07464   0.08079   0.09448
 Alpha virt. eigenvalues --    0.11668   0.12491   0.14736   0.15835   0.16165
 Alpha virt. eigenvalues --    0.18835   0.20429   0.21806   0.22828   0.23861

 Mulliken charges:
               1
     1  C   -0.180647
     2  C   -0.025664
     3  C   -0.040098
     4  C   -0.171612
     5  H    0.085676
     6  H    0.068272
     7  H    0.054020
     8  H    0.059021
     9  H    0.066953
    10  H    0.084079
 Sum of Mulliken charges =   0.00000

 Dipole moment (field-independent basis, Debye):
    X=             -0.0286    Y=             -0.0104    Z=              0.0123  Tot=              0.0328
 Quadrupole moment (field-independent basis, Debye-Ang):
   XX=            -23.4139   YY=            -23.0617   ZZ=            -29.2836
   XY=              0.2298   XZ=              0.1466   YZ=             -0.0200

 1\1\GINC-NODE15\SP\RB2PLYPD3-FC\def2QZVP\C4H6\BOITTIER\26-Aug-2020\0\\
 #p B2PLYPD3/Def2QZVP\\butadiene\\0,1\C,0,-3.851713,0.217698,0.025861\C
 ,0,-2.721419,-0.490943,0.031709\C,0,-1.37337,0.088016,0.007819\C,0,-0.
 259812,-0.66534,0.033368\H,0,-4.797062,-0.295651,0.017361\H,0,-3.85182
 8,1.284445,0.030421\H,0,-2.799888,-1.575721,0.022143\H,0,-1.323985,1.1
 71739,-0.093812\H,0,-0.301867,-1.72843,0.093923\H,0,0.733099,-0.247636
 ,0.064745\\Version=ES64L-G09RevD.01\State=1-A\HF=-155.7004609\MP2=-155
 .926125\RMSD=4.819e-09\PG=C01 [X(C4H6)]\\@

 Normal termination of Gaussian 09 at Wed Aug 26 19:04:55 2020.
