 Gaussian 09, Revision D.01,
 Gaussian 09:  ES64L-G09RevD.01 24-Apr-2013

 --------------------
 #p B2PLYPD3/Def2QZVP
 --------------------

 ---------
 butadiene
 ---------
 Symbolic Z-matrix:
 Charge =  0 Multiplicity = 1

                         Standard orientation:
 ---------------------------------------------------------------------
 Center     Atomic      Atomic             Coordinates (Angstroms)
 Number     Number       Type             X           Y           Z
 ---------------------------------------------------------------------
      1          6           0        1.822284   -0.133942    0.036382
      2          6           0        0.594876    0.436061   -0.058235
      3          6           0       -0.602696   -0.384770   -0.053796
      4          6           0       -1.841021    0.099837    0.014136
      5          1           0        2.732375    0.477934    0.133198
      6          1           0        1.962919   -1.218418    0.022643
      7          1           0        0.585741    1.511675   -0.034829
      8          1           0       -0.406628   -1.459003   -0.010613
      9          1           0       -2.000171    1.138782    0.114223
     10          1           0       -2.714893   -0.554087    0.144451
 ---------------------------------------------------------------------

 SCF Done:  E(RB2PLYPD3) =  -155.696537217     A.U. after   11 cycles
 E2(B2PLYPD3) =    -0.2263972054D+00 E(B2PLYPD3) =    -0.15592293442261D+03

 The electronic state is 1-A.
 Alpha  occ. eigenvalues --  -10.62766 -10.62676 -10.62091 -10.61267  -0.92961
 Alpha  occ. eigenvalues --   -0.84643  -0.69840  -0.64358  -0.54299  -0.54025
 Alpha  occ. eigenvalues --   -0.46090  -0.45476  -0.41562  -0.38073  -0.27449
 Alpha virt. eigenvalues --    0.01596   0.07003   0.07438   0.07963   0.09307
 Alpha virt. eigenvalues --    0.11688   0.12488   0.14606   0.15917   0.16216
 Alpha virt. eigenvalues --    0.18793   0.20313   0.21513   0.23115   0.23642

 Mulliken charges:
               1
     1  C   -0.175667
     2  C   -0.035986
     3  C   -0.027817
     4  C   -0.171958
     5  H    0.079460
     6  H    0.064104
     7  H    0.061180
     8  H    0.056949
     9  H    0.068583
    10  H    0.081151
 Sum of Mulliken charges =   0.00000

 Dipole moment (field-independent basis, Debye):
    X=              0.0766    Y=              0.0271    Z=              0.2599  Tot=              0.2723
 Quadrupole moment (field-independent basis, Debye-Ang):
   XX=            -23.7163   YY=            -23.0274   ZZ=            -29.3110
   XY=             -0.0761   XZ=             -0.2407   YZ=              0.0665

 1\1\GINC-NODE27\SP\RB2PLYPD3-FC\def2QZVP\C4H6\BOITTIER\26-Aug-2020\0\\
 #p B2PLYPD3/Def2QZVP\\butadiene\\0,1\C,0,-3.823744,0.244735,0.057194\C
 ,0,-2.717796,-0.537438,-0.016758\C,0,-1.393016,0.056473,-0.030498\C,0,
 -0.260909,-0.639093,0.055702\H,0,-4.828268,-0.192078,0.167454\H,0,-3.7
 68707,1.336088,0.012746\H,0,-2.900633,-1.596353,0.036595\H,0,-1.394284
 ,1.149233,-0.017977\H,0,-0.289509,-1.686541,0.185269\H,0,0.715735,-0.1
 48089,0.171173\\Version=ES64L-G09RevD.01\State=1-A\HF=-155.6965372\MP2
 =-155.9229344\RMSD=6.582e-09\PG=C01 [X(C4H6)]\\@

 Normal termination of Gaussian 09 at Wed Aug 26 10:15:43 2020.
