 Gaussian 09, Revision D.01,
 Gaussian 09:  ES64L-G09RevD.01 24-Apr-2013

 --------------------
 #p B2PLYPD3/Def2QZVP
 --------------------

 ---------
 butadiene
 ---------
 Symbolic Z-matrix:
 Charge =  0 Multiplicity = 1

                         Standard orientation:
 ---------------------------------------------------------------------
 Center     Atomic      Atomic             Coordinates (Angstroms)
 Number     Number       Type             X           Y           Z
 ---------------------------------------------------------------------
      1          6           0       -1.830389   -0.118284   -0.022311
      2          6           0       -0.593102    0.409775    0.020626
      3          6           0        0.594382   -0.387068    0.010772
      4          6           0        1.834918    0.096850   -0.013411
      5          1           0       -2.714985    0.505200   -0.009682
      6          1           0       -1.977656   -1.175044   -0.056425
      7          1           0       -0.491928    1.486254    0.100250
      8          1           0        0.425147   -1.435126    0.086527
      9          1           0        2.023092    1.162222   -0.100489
     10          1           0        2.701473   -0.551148    0.005760
 ---------------------------------------------------------------------

 SCF Done:  E(RB2PLYPD3) =  -155.700443102     A.U. after   11 cycles
 E2(B2PLYPD3) =    -0.2256988256D+00 E(B2PLYPD3) =    -0.15592614192781D+03

 The electronic state is 1-A.
 Alpha  occ. eigenvalues --  -10.62400 -10.62037 -10.61495 -10.61469  -0.93363
 Alpha  occ. eigenvalues --   -0.84788  -0.70491  -0.64424  -0.54665  -0.54134
 Alpha  occ. eigenvalues --   -0.46617  -0.45757  -0.41505  -0.38240  -0.27459
 Alpha virt. eigenvalues --    0.01531   0.07043   0.07489   0.08064   0.09683
 Alpha virt. eigenvalues --    0.11714   0.12466   0.14836   0.15863   0.16123
 Alpha virt. eigenvalues --    0.18755   0.20493   0.21632   0.22846   0.23783

 Mulliken charges:
               1
     1  C   -0.180357
     2  C   -0.027971
     3  C   -0.028907
     4  C   -0.178084
     5  H    0.084949
     6  H    0.065805
     7  H    0.055717
     8  H    0.057420
     9  H    0.066381
    10  H    0.085049
 Sum of Mulliken charges =   0.00000

 Dipole moment (field-independent basis, Debye):
    X=             -0.0212    Y=             -0.0090    Z=              0.0397  Tot=              0.0459
 Quadrupole moment (field-independent basis, Debye-Ang):
   XX=            -23.4781   YY=            -23.1278   ZZ=            -29.2004
   XY=              0.1606   XZ=             -0.0549   YZ=             -0.0483

 1\1\GINC-NODE07\SP\RB2PLYPD3-FC\def2QZVP\C4H6\BOITTIER\26-Aug-2020\0\\
 #p B2PLYPD3/Def2QZVP\\butadiene\\0,1\C,0,-3.830473,0.236923,0.037716\C
 ,0,-2.710886,-0.509769,0.014369\C,0,-1.397588,0.056162,0.002354\C,0,-0
 .26651,-0.645664,0.044726\H,0,-4.81428,-0.214191,0.042313\H,0,-3.78171
 8,1.303326,0.038497\H,0,-2.808712,-1.588527,-0.0314\H,0,-1.372379,1.11
 4617,-0.106464\H,0,-0.276233,-1.724246,0.165449\H,0,0.703944,-0.168148
 ,0.007536\\Version=ES64L-G09RevD.01\State=1-A\HF=-155.7004431\MP2=-155
 .9261419\RMSD=5.555e-09\PG=C01 [X(C4H6)]\\@

 Normal termination of Gaussian 09 at Wed Aug 26 13:23:46 2020.
