 Gaussian 09, Revision D.01,
 Gaussian 09:  ES64L-G09RevD.01 24-Apr-2013

 --------------------
 #p B2PLYPD3/Def2QZVP
 --------------------

 ---------
 butadiene
 ---------
 Symbolic Z-matrix:
 Charge =  0 Multiplicity = 1

                         Standard orientation:
 ---------------------------------------------------------------------
 Center     Atomic      Atomic             Coordinates (Angstroms)
 Number     Number       Type             X           Y           Z
 ---------------------------------------------------------------------
      1          6           0        1.836894   -0.084473    0.040736
      2          6           0        0.581358    0.386175   -0.049478
      3          6           0       -0.604932   -0.432972   -0.067095
      4          6           0       -1.833375    0.112094    0.014268
      5          1           0        2.717948    0.549477    0.045377
      6          1           0        2.019026   -1.171271    0.078640
      7          1           0        0.416853    1.498076   -0.003891
      8          1           0       -0.375491   -1.489011   -0.012169
      9          1           0       -1.957313    1.209122    0.078161
     10          1           0       -2.700690   -0.481335    0.183296
 ---------------------------------------------------------------------

 SCF Done:  E(RB2PLYPD3) =  -155.695303318     A.U. after   11 cycles
 E2(B2PLYPD3) =    -0.2268272264D+00 E(B2PLYPD3) =    -0.15592213054467D+03

 The electronic state is 1-A.
 Alpha  occ. eigenvalues --  -10.62869 -10.62793 -10.61986 -10.61848  -0.93057
 Alpha  occ. eigenvalues --   -0.84461  -0.70358  -0.63683  -0.54910  -0.53113
 Alpha  occ. eigenvalues --   -0.46959  -0.45154  -0.41031  -0.38170  -0.27421
 Alpha virt. eigenvalues --    0.01358   0.07030   0.07165   0.08124   0.09391
 Alpha virt. eigenvalues --    0.11688   0.12483   0.14630   0.15808   0.16081
 Alpha virt. eigenvalues --    0.18753   0.20106   0.21739   0.23091   0.23519

 Mulliken charges:
               1
     1  C   -0.181806
     2  C   -0.014720
     3  C   -0.036080
     4  C   -0.166746
     5  H    0.088990
     6  H    0.056456
     7  H    0.044820
     8  H    0.057667
     9  H    0.064886
    10  H    0.086533
 Sum of Mulliken charges =   0.00000

 Dipole moment (field-independent basis, Debye):
    X=             -0.0261    Y=             -0.0216    Z=              0.2593  Tot=              0.2615
 Quadrupole moment (field-independent basis, Debye-Ang):
   XX=            -23.5762   YY=            -23.2299   ZZ=            -29.3498
   XY=             -0.2816   XZ=             -0.4440   YZ=             -0.0657

 1\1\GINC-NODE26\SP\RB2PLYPD3-FC\def2QZVP\C4H6\BOITTIER\26-Aug-2020\0\\
 #p B2PLYPD3/Def2QZVP\\butadiene\\0,1\C,0,-3.843436,0.212283,0.060603\C
 ,0,-2.698556,-0.488015,-0.009053\C,0,-1.379655,0.093182,-0.045181\C,0,
 -0.275243,-0.669878,0.058755\H,0,-4.827783,-0.244733,0.079763\H,0,-3.8
 18404,1.314596,0.064965\H,0,-2.745561,-1.609128,0.0707\H,0,-1.406852,1
 .174686,-0.023123\H,0,-0.359292,-1.768224,0.156152\H,0,0.688114,-0.244
 786,0.214328\\Version=ES64L-G09RevD.01\State=1-A\HF=-155.6953033\MP2=-
 155.9221305\RMSD=6.130e-09\PG=C01 [X(C4H6)]\\@

 Normal termination of Gaussian 09 at Wed Aug 26 08:49:51 2020.
