 Gaussian 09, Revision D.01,
 Gaussian 09:  ES64L-G09RevD.01 24-Apr-2013

 --------------------
 #p B2PLYPD3/Def2QZVP
 --------------------

 ---------
 butadiene
 ---------
 Symbolic Z-matrix:
 Charge =  0 Multiplicity = 1

                         Standard orientation:
 ---------------------------------------------------------------------
 Center     Atomic      Atomic             Coordinates (Angstroms)
 Number     Number       Type             X           Y           Z
 ---------------------------------------------------------------------
      1          6           0        1.866818    0.147542    0.019890
      2          6           0        0.654776   -0.432971   -0.043787
      3          6           0       -0.615680    0.361979   -0.126143
      4          6           0       -1.870985   -0.110711    0.062258
      5          1           0        2.800045   -0.449731    0.196212
      6          1           0        1.844498    1.228786    0.124129
      7          1           0        0.540012   -1.519933   -0.042157
      8          1           0       -0.591126    1.538378    0.027912
      9          1           0       -2.089906   -1.190571    0.066677
     10          1           0       -2.713093    0.598031    0.153917
 ---------------------------------------------------------------------

 SCF Done:  E(RB2PLYPD3) =  -155.682202161     A.U. after   11 cycles
 E2(B2PLYPD3) =    -0.2281359146D+00 E(B2PLYPD3) =    -0.15591033807567D+03

 The electronic state is 1-A.
 Alpha  occ. eigenvalues --  -10.64212 -10.63625 -10.62459 -10.62320  -0.91903
 Alpha  occ. eigenvalues --   -0.84651  -0.69115  -0.62827  -0.54001  -0.53093
 Alpha  occ. eigenvalues --   -0.46302  -0.44695  -0.40390  -0.37522  -0.27905
 Alpha virt. eigenvalues --    0.01432   0.06815   0.07158   0.07709   0.08898
 Alpha virt. eigenvalues --    0.11513   0.12268   0.14171   0.15450   0.16290
 Alpha virt. eigenvalues --    0.18904   0.19310   0.21411   0.22721   0.23879

 Mulliken charges:
               1
     1  C   -0.161509
     2  C   -0.041668
     3  C   -0.029269
     4  C   -0.170111
     5  H    0.087595
     6  H    0.068696
     7  H    0.058420
     8  H    0.037408
     9  H    0.065930
    10  H    0.084506
 Sum of Mulliken charges =   0.00000

 Dipole moment (field-independent basis, Debye):
    X=             -0.0488    Y=             -0.1082    Z=              0.3739  Tot=              0.3923
 Quadrupole moment (field-independent basis, Debye-Ang):
   XX=            -23.6300   YY=            -23.2301   ZZ=            -29.5889
   XY=             -0.2921   XZ=              0.1433   YZ=              0.2372

 1\1\GINC-NODE21\SP\RB2PLYPD3-FC\def2QZVP\C4H6\BOITTIER\26-Aug-2020\0\\
 #p B2PLYPD3/Def2QZVP\\butadiene\\0,1\C,0,-3.864546,0.239108,-0.018303\
 C,0,-2.764213,-0.528837,0.079798\C,0,-1.379758,0.049284,0.122765\C,0,-
 0.22056,-0.633072,-0.036526\H,0,-4.884421,-0.204884,-0.164806\H,0,-3.6
 65209,1.29477,-0.180458\H,0,-2.829933,-1.618368,0.136919\H,0,-1.2113,1
 .203719,-0.094378\H,0,-0.182394,-1.732911,0.017713\H,0,0.726135,-0.078
 62,-0.163856\\Version=ES64L-G09RevD.01\State=1-A\HF=-155.6822022\MP2=-
 155.9103381\RMSD=6.673e-09\PG=C01 [X(C4H6)]\\@

 Normal termination of Gaussian 09 at Wed Aug 26 13:56:52 2020.
