 Gaussian 09, Revision D.01,
 Gaussian 09:  ES64L-G09RevD.01 24-Apr-2013

 --------------------
 #p B2PLYPD3/Def2QZVP
 --------------------

 ---------
 butadiene
 ---------
 Symbolic Z-matrix:
 Charge =  0 Multiplicity = 1

                         Standard orientation:
 ---------------------------------------------------------------------
 Center     Atomic      Atomic             Coordinates (Angstroms)
 Number     Number       Type             X           Y           Z
 ---------------------------------------------------------------------
      1          6           0       -1.842797    0.126312    0.008875
      2          6           0       -0.617884   -0.415871   -0.005948
      3          6           0        0.613183    0.385600   -0.006304
      4          6           0        1.844329   -0.103507   -0.007775
      5          1           0       -2.722456   -0.504250    0.023966
      6          1           0       -1.989837    1.205247   -0.010257
      7          1           0       -0.525368   -1.483183   -0.005325
      8          1           0        0.499228    1.460389   -0.029188
      9          1           0        2.012643   -1.143639   -0.001577
     10          1           0        2.744806    0.510234    0.089292
 ---------------------------------------------------------------------

 SCF Done:  E(RB2PLYPD3) =  -155.700126532     A.U. after   11 cycles
 E2(B2PLYPD3) =    -0.2253677332D+00 E(B2PLYPD3) =    -0.15592549426573D+03

 The electronic state is 1-A.
 Alpha  occ. eigenvalues --  -10.62645 -10.62429 -10.61699 -10.61093  -0.92831
 Alpha  occ. eigenvalues --   -0.85100  -0.69974  -0.64390  -0.54605  -0.54065
 Alpha  occ. eigenvalues --   -0.46780  -0.45610  -0.41146  -0.37963  -0.27849
 Alpha virt. eigenvalues --    0.01869   0.06983   0.07533   0.08045   0.09557
 Alpha virt. eigenvalues --    0.11658   0.12513   0.14623   0.15863   0.16249
 Alpha virt. eigenvalues --    0.18887   0.20389   0.21737   0.22844   0.23787

 Mulliken charges:
               1
     1  C   -0.172978
     2  C   -0.042140
     3  C   -0.027067
     4  C   -0.171665
     5  H    0.085105
     6  H    0.067973
     7  H    0.059652
     8  H    0.056098
     9  H    0.062799
    10  H    0.082223
 Sum of Mulliken charges =   0.00000

 Dipole moment (field-independent basis, Debye):
    X=             -0.0197    Y=             -0.0301    Z=              0.0529  Tot=              0.0640
 Quadrupole moment (field-independent basis, Debye-Ang):
   XX=            -23.3649   YY=            -23.1101   ZZ=            -29.2366
   XY=             -0.0852   XZ=              0.2128   YZ=             -0.0010

 1\1\GINC-NODE23\SP\RB2PLYPD3-FC\def2QZVP\C4H6\BOITTIER\26-Aug-2020\0\\
 #p B2PLYPD3/Def2QZVP\\butadiene\\0,1\C,0,-3.843507,0.233191,0.024773\C
 ,0,-2.732657,-0.515523,0.030557\C,0,-1.380144,0.05734,0.010127\C,0,-0.
 253826,-0.639832,0.02767\H,0,-4.820063,-0.232644,0.055954\H,0,-3.79914
 2,1.320106,-0.027529\H,0,-2.8287,-1.582005,0.063821\H,0,-1.30394,1.134
 261,-0.045687\H,0,-0.270468,-1.692685,0.065941\H,0,0.740496,-0.190787,
 0.109176\\Version=ES64L-G09RevD.01\State=1-A\HF=-155.7001265\MP2=-155.
 9254943\RMSD=5.099e-09\PG=C01 [X(C4H6)]\\@

 Normal termination of Gaussian 09 at Wed Aug 26 16:14:31 2020.
