 Gaussian 09, Revision D.01,
 Gaussian 09:  ES64L-G09RevD.01 24-Apr-2013

 --------------------
 #p B2PLYPD3/Def2QZVP
 --------------------

 ---------
 butadiene
 ---------
 Symbolic Z-matrix:
 Charge =  0 Multiplicity = 1

                         Standard orientation:
 ---------------------------------------------------------------------
 Center     Atomic      Atomic             Coordinates (Angstroms)
 Number     Number       Type             X           Y           Z
 ---------------------------------------------------------------------
      1          6           0        1.831122   -0.124814   -0.004511
      2          6           0        0.606004    0.400365   -0.007903
      3          6           0       -0.604124   -0.370559   -0.035987
      4          6           0       -1.851269    0.092271    0.022569
      5          1           0        2.721376    0.483711    0.066190
      6          1           0        1.993834   -1.169120    0.029998
      7          1           0        0.533317    1.493595    0.013803
      8          1           0       -0.452705   -1.393142    0.038762
      9          1           0       -2.002000    1.171103   -0.021200
     10          1           0       -2.684212   -0.569729    0.027442
 ---------------------------------------------------------------------

 SCF Done:  E(RB2PLYPD3) =  -155.697864927     A.U. after   11 cycles
 E2(B2PLYPD3) =    -0.2252540528D+00 E(B2PLYPD3) =    -0.15592311898008D+03

 The electronic state is 1-A.
 Alpha  occ. eigenvalues --  -10.62427 -10.61690 -10.61344 -10.61236  -0.93416
 Alpha  occ. eigenvalues --   -0.85205  -0.70677  -0.64498  -0.55120  -0.54115
 Alpha  occ. eigenvalues --   -0.46944  -0.45711  -0.41276  -0.38337  -0.27696
 Alpha virt. eigenvalues --    0.01572   0.07012   0.07603   0.08089   0.09856
 Alpha virt. eigenvalues --    0.11720   0.12499   0.14804   0.15723   0.16342
 Alpha virt. eigenvalues --    0.18826   0.20129   0.21711   0.23025   0.23980

 Mulliken charges:
               1
     1  C   -0.174326
     2  C   -0.024732
     3  C   -0.030195
     4  C   -0.179590
     5  H    0.082337
     6  H    0.063800
     7  H    0.048734
     8  H    0.058184
     9  H    0.065515
    10  H    0.090272
 Sum of Mulliken charges =   0.00000

 Dipole moment (field-independent basis, Debye):
    X=              0.0513    Y=             -0.0515    Z=              0.1097  Tot=              0.1316
 Quadrupole moment (field-independent basis, Debye-Ang):
   XX=            -23.3569   YY=            -23.1938   ZZ=            -29.1210
   XY=              0.0055   XZ=              0.1974   YZ=             -0.0877

 1\1\GINC-NODE33\SP\RB2PLYPD3-FC\def2QZVP\C4H6\BOITTIER\26-Aug-2020\0\\
 #p B2PLYPD3/Def2QZVP\\butadiene\\0,1\C,0,-3.833472,0.23508,0.02082\C,0
 ,-2.722101,-0.500807,0.028796\C,0,-1.393696,0.040336,-0.016202\C,0,-0.
 249252,-0.636836,0.052345\H,0,-4.817943,-0.202651,0.104855\H,0,-3.8065
 87,1.292143,0.03254\H,0,-2.846087,-1.588676,0.074352\H,0,-1.359426,1.0
 74874,0.036223\H,0,-0.294139,-1.725913,0.032121\H,0,0.688701,-0.134628
 ,0.042703\\Version=ES64L-G09RevD.01\State=1-A\HF=-155.6978649\MP2=-155
 .923119\RMSD=3.634e-09\PG=C01 [X(C4H6)]\\@

 Normal termination of Gaussian 09 at Wed Aug 26 09:37:21 2020.
