 Gaussian 09, Revision D.01,
 Gaussian 09:  ES64L-G09RevD.01 24-Apr-2013

 --------------------
 #p B2PLYPD3/Def2QZVP
 --------------------

 ---------
 butadiene
 ---------
 Symbolic Z-matrix:
 Charge =  0 Multiplicity = 1

                         Standard orientation:
 ---------------------------------------------------------------------
 Center     Atomic      Atomic             Coordinates (Angstroms)
 Number     Number       Type             X           Y           Z
 ---------------------------------------------------------------------
      1          6           0        1.840294    0.096328    0.001138
      2          6           0        0.604888   -0.387348   -0.022766
      3          6           0       -0.611566    0.414194   -0.014522
      4          6           0       -1.841889   -0.124396    0.014803
      5          1           0        2.735949   -0.499816    0.108367
      6          1           0        2.005940    1.172118    0.005648
      7          1           0        0.490827   -1.470593   -0.019955
      8          1           0       -0.506080    1.490010   -0.010509
      9          1           0       -1.968233   -1.180803   -0.003173
     10          1           0       -2.708767    0.496416    0.047704
 ---------------------------------------------------------------------

 SCF Done:  E(RB2PLYPD3) =  -155.700527534     A.U. after   11 cycles
 E2(B2PLYPD3) =    -0.2255433538D+00 E(B2PLYPD3) =    -0.15592607088789D+03

 The electronic state is 1-A.
 Alpha  occ. eigenvalues --  -10.62688 -10.62472 -10.61382 -10.61314  -0.92950
 Alpha  occ. eigenvalues --   -0.85034  -0.70211  -0.64192  -0.54800  -0.54071
 Alpha  occ. eigenvalues --   -0.46769  -0.45583  -0.41226  -0.38076  -0.27706
 Alpha virt. eigenvalues --    0.01739   0.07028   0.07477   0.08066   0.09593
 Alpha virt. eigenvalues --    0.11654   0.12559   0.14635   0.15921   0.16246
 Alpha virt. eigenvalues --    0.18835   0.20495   0.21694   0.22872   0.23774

 Mulliken charges:
               1
     1  C   -0.170912
     2  C   -0.026223
     3  C   -0.035723
     4  C   -0.176978
     5  H    0.085601
     6  H    0.057598
     7  H    0.052473
     8  H    0.056917
     9  H    0.069510
    10  H    0.087737
 Sum of Mulliken charges =   0.00000

 Dipole moment (field-independent basis, Debye):
    X=             -0.0196    Y=              0.0059    Z=              0.0923  Tot=              0.0946
 Quadrupole moment (field-independent basis, Debye-Ang):
   XX=            -23.3461   YY=            -23.1496   ZZ=            -29.2339
   XY=              0.0390   XZ=              0.2137   YZ=             -0.0182

 1\1\GINC-NODE30\SP\RB2PLYPD3-FC\def2QZVP\C4H6\BOITTIER\26-Aug-2020\0\\
 #p B2PLYPD3/Def2QZVP\\butadiene\\0,1\C,0,-3.847069,0.206993,0.012159\C
 ,0,-2.717218,-0.487579,0.053971\C,0,-1.377721,0.084548,0.027215\C,0,-0
 .262716,-0.664653,0.017356\H,0,-4.834569,-0.223363,-0.081224\H,0,-3.81
 8947,1.294527,-0.023359\H,0,-2.797441,-1.573491,0.082206\H,0,-1.29039,
 1.161435,-0.007602\H,0,-0.326049,-1.725755,0.065652\H,0,0.700615,-0.20
 8907,-0.03013\\Version=ES64L-G09RevD.01\State=1-A\HF=-155.7005275\MP2=
 -155.9260709\RMSD=5.297e-09\PG=C01 [X(C4H6)]\\@

 Normal termination of Gaussian 09 at Wed Aug 26 18:52:08 2020.
