 Gaussian 09, Revision D.01,
 Gaussian 09:  ES64L-G09RevD.01 24-Apr-2013

 --------------------
 #p B2PLYPD3/Def2QZVP
 --------------------

 ---------
 butadiene
 ---------
 Symbolic Z-matrix:
 Charge =  0 Multiplicity = 1

                         Standard orientation:
 ---------------------------------------------------------------------
 Center     Atomic      Atomic             Coordinates (Angstroms)
 Number     Number       Type             X           Y           Z
 ---------------------------------------------------------------------
      1          6           0        1.837054   -0.105669    0.013393
      2          6           0        0.598427    0.388805   -0.039893
      3          6           0       -0.623551   -0.416850   -0.029695
      4          6           0       -1.839292    0.110614   -0.000866
      5          1           0        2.716986    0.549031    0.119688
      6          1           0        1.992587   -1.211553   -0.023085
      7          1           0        0.496994    1.493977    0.007437
      8          1           0       -0.444391   -1.458600    0.080763
      9          1           0       -1.872906    1.230143    0.067300
     10          1           0       -2.725094   -0.464389    0.090269
 ---------------------------------------------------------------------

 SCF Done:  E(RB2PLYPD3) =  -155.695058605     A.U. after   11 cycles
 E2(B2PLYPD3) =    -0.2261231964D+00 E(B2PLYPD3) =    -0.15592118180167D+03

 The electronic state is 1-A.
 Alpha  occ. eigenvalues --  -10.62747 -10.62337 -10.62049 -10.61666  -0.93015
 Alpha  occ. eigenvalues --   -0.84975  -0.69665  -0.63736  -0.54882  -0.53317
 Alpha  occ. eigenvalues --   -0.46900  -0.44932  -0.40940  -0.38057  -0.27900
 Alpha virt. eigenvalues --    0.01864   0.07012   0.07253   0.08048   0.09464
 Alpha virt. eigenvalues --    0.11699   0.12455   0.14359   0.15658   0.16185
 Alpha virt. eigenvalues --    0.18679   0.20220   0.21253   0.22963   0.24126

 Mulliken charges:
               1
     1  C   -0.179465
     2  C   -0.020313
     3  C   -0.034813
     4  C   -0.166995
     5  H    0.087863
     6  H    0.060610
     7  H    0.045308
     8  H    0.056567
     9  H    0.059146
    10  H    0.092092
 Sum of Mulliken charges =   0.00000

 Dipole moment (field-independent basis, Debye):
    X=             -0.0152    Y=             -0.0414    Z=              0.2692  Tot=              0.2727
 Quadrupole moment (field-independent basis, Debye-Ang):
   XX=            -23.6265   YY=            -23.2190   ZZ=            -29.2941
   XY=              0.1758   XZ=             -0.1260   YZ=              0.0647

 1\1\GINC-NODE39\SP\RB2PLYPD3-FC\def2QZVP\C4H6\BOITTIER\26-Aug-2020\0\\
 #p B2PLYPD3/Def2QZVP\\butadiene\\0,1\C,0,-3.844907,0.213315,0.036429\C
 ,0,-2.713778,-0.494489,0.003245\C,0,-1.368272,0.081569,-0.010368\C,0,-
 0.265248,-0.65186,0.039566\H,0,-4.826639,-0.271005,0.162319\H,0,-3.801
 986,1.327387,-0.037738\H,0,-2.80978,-1.597902,0.088085\H,0,-1.359495,1
 .141697,0.064415\H,0,-0.430471,-1.756666,0.145528\H,0,0.708775,-0.2403
 23,0.113697\\Version=ES64L-G09RevD.01\State=1-A\HF=-155.6950586\MP2=-1
 55.9211818\RMSD=3.510e-09\PG=C01 [X(C4H6)]\\@

 Normal termination of Gaussian 09 at Wed Aug 26 09:30:49 2020.
