 Gaussian 09, Revision D.01,
 Gaussian 09:  ES64L-G09RevD.01 24-Apr-2013

 --------------------
 #p B2PLYPD3/Def2QZVP
 --------------------

 ---------
 butadiene
 ---------
 Symbolic Z-matrix:
 Charge =  0 Multiplicity = 1

                         Standard orientation:
 ---------------------------------------------------------------------
 Center     Atomic      Atomic             Coordinates (Angstroms)
 Number     Number       Type             X           Y           Z
 ---------------------------------------------------------------------
      1          6           0       -1.850070    0.106305    0.025468
      2          6           0       -0.608510   -0.387953   -0.015546
      3          6           0        0.616783    0.411820   -0.025822
      4          6           0        1.840821   -0.120576    0.019101
      5          1           0       -2.729232   -0.546704   -0.027353
      6          1           0       -2.025164    1.180119    0.047422
      7          1           0       -0.482095   -1.475965   -0.077782
      8          1           0        0.530222    1.491629   -0.025870
      9          1           0        1.983697   -1.201463    0.090668
     10          1           0        2.728428    0.494812   -0.026289
 ---------------------------------------------------------------------

 SCF Done:  E(RB2PLYPD3) =  -155.700460992     A.U. after   11 cycles
 E2(B2PLYPD3) =    -0.2259195074D+00 E(B2PLYPD3) =    -0.15592638049930D+03

 The electronic state is 1-A.
 Alpha  occ. eigenvalues --  -10.62787 -10.62647 -10.61743 -10.61661  -0.92752
 Alpha  occ. eigenvalues --   -0.84887  -0.69843  -0.63893  -0.54380  -0.53892
 Alpha  occ. eigenvalues --   -0.46613  -0.45407  -0.41083  -0.37962  -0.27764
 Alpha virt. eigenvalues --    0.01736   0.06991   0.07412   0.07967   0.09561
 Alpha virt. eigenvalues --    0.11639   0.12379   0.14585   0.15811   0.16206
 Alpha virt. eigenvalues --    0.18865   0.20432   0.21461   0.22614   0.23808

 Mulliken charges:
               1
     1  C   -0.175226
     2  C   -0.030646
     3  C   -0.034819
     4  C   -0.171884
     5  H    0.085706
     6  H    0.065795
     7  H    0.053848
     8  H    0.056615
     9  H    0.064551
    10  H    0.086060
 Sum of Mulliken charges =   0.00000

 Dipole moment (field-independent basis, Debye):
    X=              0.0386    Y=              0.0176    Z=             -0.0431  Tot=              0.0605
 Quadrupole moment (field-independent basis, Debye-Ang):
   XX=            -23.4537   YY=            -23.1052   ZZ=            -29.3330
   XY=             -0.0361   XZ=              0.1245   YZ=              0.0172

 1\1\GINC-NODE31\SP\RB2PLYPD3-FC\def2QZVP\C4H6\BOITTIER\26-Aug-2020\0\\
 #p B2PLYPD3/Def2QZVP\\butadiene\\0,1\C,0,-3.854593,0.21537,0.04161\C,0
 ,-2.719668,-0.490902,0.017767\C,0,-1.372635,0.079816,-0.011706\C,0,-0.
 261477,-0.65848,0.051378\H,0,-4.835197,-0.273709,0.004809\H,0,-3.83765
 6,1.303421,0.032959\H,0,-2.787119,-1.585476,-0.013578\H,0,-1.267546,1.
 157546,-0.042285\H,0,-0.311156,-1.745186,0.153626\H,0,0.720579,-0.2106
 65,-0.008915\\Version=ES64L-G09RevD.01\State=1-A\HF=-155.700461\MP2=-1
 55.9263805\RMSD=3.518e-09\PG=C01 [X(C4H6)]\\@

 Normal termination of Gaussian 09 at Wed Aug 26 20:15:44 2020.
