 Gaussian 09, Revision D.01,
 Gaussian 09:  ES64L-G09RevD.01 24-Apr-2013

 --------------------
 #p B2PLYPD3/Def2QZVP
 --------------------

 ---------
 butadiene
 ---------
 Symbolic Z-matrix:
 Charge =  0 Multiplicity = 1

                         Standard orientation:
 ---------------------------------------------------------------------
 Center     Atomic      Atomic             Coordinates (Angstroms)
 Number     Number       Type             X           Y           Z
 ---------------------------------------------------------------------
      1          6           0       -1.846282   -0.128794   -0.036476
      2          6           0       -0.617098    0.426870   -0.002727
      3          6           0        0.611379   -0.379172    0.036250
      4          6           0        1.851306    0.094555   -0.015924
      5          1           0       -2.740513    0.464014    0.007731
      6          1           0       -1.982293   -1.235915    0.062220
      7          1           0       -0.555760    1.531805    0.086004
      8          1           0        0.503761   -1.460859    0.024421
      9          1           0        2.033978    1.123906    0.008441
     10          1           0        2.744998   -0.503709   -0.075557
 ---------------------------------------------------------------------

 SCF Done:  E(RB2PLYPD3) =  -155.695894915     A.U. after   11 cycles
 E2(B2PLYPD3) =    -0.2260520343D+00 E(B2PLYPD3) =    -0.15592194694924D+03

 The electronic state is 1-A.
 Alpha  occ. eigenvalues --  -10.63359 -10.62670 -10.62090 -10.60933  -0.92608
 Alpha  occ. eigenvalues --   -0.84944  -0.70078  -0.63906  -0.54718  -0.53853
 Alpha  occ. eigenvalues --   -0.46753  -0.45112  -0.41211  -0.37800  -0.27752
 Alpha virt. eigenvalues --    0.01644   0.07019   0.07406   0.07969   0.09398
 Alpha virt. eigenvalues --    0.11560   0.12592   0.14473   0.15790   0.16496
 Alpha virt. eigenvalues --    0.18904   0.20324   0.21743   0.22818   0.23620

 Mulliken charges:
               1
     1  C   -0.167590
     2  C   -0.042622
     3  C   -0.026949
     4  C   -0.169740
     5  H    0.085180
     6  H    0.061759
     7  H    0.057471
     8  H    0.056083
     9  H    0.063027
    10  H    0.083381
 Sum of Mulliken charges =   0.00000

 Dipole moment (field-independent basis, Debye):
    X=              0.0091    Y=              0.0393    Z=              0.1322  Tot=              0.1382
 Quadrupole moment (field-independent basis, Debye-Ang):
   XX=            -23.1859   YY=            -23.2146   ZZ=            -29.3200
   XY=              0.0226   XZ=             -0.4424   YZ=              0.0845

 1\1\GINC-NODE07\SP\RB2PLYPD3-FC\def2QZVP\C4H6\BOITTIER\26-Aug-2020\0\\
 #p B2PLYPD3/Def2QZVP\\butadiene\\0,1\C,0,-3.846791,0.236631,0.046636\C
 ,0,-2.7338,-0.526137,0.031391\C,0,-1.383163,0.05145,-0.019129\C,0,-0.2
 45352,-0.630602,0.049773\H,0,-4.830925,-0.191426,0.010985\H,0,-3.78681
 3,1.347953,-0.077152\H,0,-2.866703,-1.62648,-0.032627\H,0,-1.299808,1.
 135269,-0.031716\H,0,-0.245637,-1.67632,0.049052\H,0,0.73919,-0.196731
 ,0.100723\\Version=ES64L-G09RevD.01\State=1-A\HF=-155.6958949\MP2=-155
 .9219469\RMSD=6.478e-09\PG=C01 [X(C4H6)]\\@

 Normal termination of Gaussian 09 at Wed Aug 26 09:07:50 2020.
