 Gaussian 09, Revision D.01,
 Gaussian 09:  ES64L-G09RevD.01 24-Apr-2013

 --------------------
 #p B2PLYPD3/Def2QZVP
 --------------------

 ---------
 butadiene
 ---------
 Symbolic Z-matrix:
 Charge =  0 Multiplicity = 1

                         Standard orientation:
 ---------------------------------------------------------------------
 Center     Atomic      Atomic             Coordinates (Angstroms)
 Number     Number       Type             X           Y           Z
 ---------------------------------------------------------------------
      1          6           0        1.848342    0.113679    0.015756
      2          6           0        0.612246   -0.398624   -0.014917
      3          6           0       -0.610298    0.391672   -0.021553
      4          6           0       -1.845129   -0.111699   -0.003240
      5          1           0        2.743540   -0.523649   -0.003392
      6          1           0        1.950968    1.192050    0.017489
      7          1           0        0.493168   -1.451446    0.030679
      8          1           0       -0.490275    1.474001   -0.006052
      9          1           0       -1.999330   -1.169668    0.012226
     10          1           0       -2.729035    0.508542    0.092776
 ---------------------------------------------------------------------

 SCF Done:  E(RB2PLYPD3) =  -155.700016137     A.U. after   11 cycles
 E2(B2PLYPD3) =    -0.2256789506D+00 E(B2PLYPD3) =    -0.15592569508781D+03

 The electronic state is 1-A.
 Alpha  occ. eigenvalues --  -10.62585 -10.62311 -10.61789 -10.61403  -0.92988
 Alpha  occ. eigenvalues --   -0.84982  -0.70082  -0.64335  -0.54534  -0.54022
 Alpha  occ. eigenvalues --   -0.46755  -0.45630  -0.41217  -0.38078  -0.27728
 Alpha virt. eigenvalues --    0.01660   0.06977   0.07519   0.08035   0.09646
 Alpha virt. eigenvalues --    0.11685   0.12504   0.14613   0.15792   0.16209
 Alpha virt. eigenvalues --    0.18824   0.20270   0.21630   0.22927   0.23875

 Mulliken charges:
               1
     1  C   -0.176260
     2  C   -0.032613
     3  C   -0.027905
     4  C   -0.174741
     5  H    0.088838
     6  H    0.065131
     7  H    0.056912
     8  H    0.050898
     9  H    0.064029
    10  H    0.085711
 Sum of Mulliken charges =   0.00000

 Dipole moment (field-independent basis, Debye):
    X=             -0.0119    Y=             -0.0302    Z=              0.1064  Tot=              0.1112
 Quadrupole moment (field-independent basis, Debye-Ang):
   XX=            -23.4090   YY=            -23.1784   ZZ=            -29.2608
   XY=             -0.0300   XZ=             -0.2809   YZ=              0.0266

 1\1\GINC-NODE25\SP\RB2PLYPD3-FC\def2QZVP\C4H6\BOITTIER\26-Aug-2020\0\\
 #p B2PLYPD3/Def2QZVP\\butadiene\\0,1\C,0,-3.850917,0.222328,0.003564\C
 ,0,-2.724173,-0.498584,0.048987\C,0,-1.381568,0.063852,0.031592\C,0,-0
 .254774,-0.649481,0.027785\H,0,-4.844218,-0.246507,0.042044\H,0,-3.762
 089,1.301395,-0.030246\H,0,-2.792576,-1.556795,0.034721\H,0,-1.309246,
 1.149475,-0.016091\H,0,-0.289338,-1.718062,0.043776\H,0,0.723969,-0.19
 7718,-0.087015\\Version=ES64L-G09RevD.01\State=1-A\HF=-155.7000161\MP2
 =-155.9256951\RMSD=3.496e-09\PG=C01 [X(C4H6)]\\@

 Normal termination of Gaussian 09 at Wed Aug 26 19:01:40 2020.
