 Gaussian 09, Revision D.01,
 Gaussian 09:  ES64L-G09RevD.01 24-Apr-2013

 --------------------
 #p B2PLYPD3/Def2QZVP
 --------------------

 ---------
 butadiene
 ---------
 Symbolic Z-matrix:
 Charge =  0 Multiplicity = 1

                         Standard orientation:
 ---------------------------------------------------------------------
 Center     Atomic      Atomic             Coordinates (Angstroms)
 Number     Number       Type             X           Y           Z
 ---------------------------------------------------------------------
      1          6           0       -1.849577   -0.112619    0.017592
      2          6           0       -0.615426    0.414068   -0.031748
      3          6           0        0.613596   -0.392348   -0.038683
      4          6           0        1.853769    0.102255    0.029758
      5          1           0       -2.783272    0.475187    0.034802
      6          1           0       -1.948259   -1.170537    0.137838
      7          1           0       -0.453853    1.442749   -0.116248
      8          1           0        0.427095   -1.437946   -0.042359
      9          1           0        2.037657    1.177081    0.174440
     10          1           0        2.706459   -0.554667   -0.049985
 ---------------------------------------------------------------------

 SCF Done:  E(RB2PLYPD3) =  -155.697193961     A.U. after   11 cycles
 E2(B2PLYPD3) =    -0.2257637803D+00 E(B2PLYPD3) =    -0.15592295774106D+03

 The electronic state is 1-A.
 Alpha  occ. eigenvalues --  -10.62425 -10.62311 -10.61814 -10.61789  -0.92821
 Alpha  occ. eigenvalues --   -0.84771  -0.70188  -0.64749  -0.54545  -0.53637
 Alpha  occ. eigenvalues --   -0.47235  -0.45897  -0.40998  -0.37755  -0.27712
 Alpha virt. eigenvalues --    0.01592   0.06980   0.07500   0.08207   0.09430
 Alpha virt. eigenvalues --    0.11675   0.12455   0.14665   0.15664   0.16248
 Alpha virt. eigenvalues --    0.18826   0.20155   0.21737   0.22861   0.23639

 Mulliken charges:
               1
     1  C   -0.174436
     2  C   -0.034444
     3  C   -0.036290
     4  C   -0.178857
     5  H    0.085273
     6  H    0.062914
     7  H    0.062437
     8  H    0.057810
     9  H    0.067465
    10  H    0.088129
 Sum of Mulliken charges =   0.00000

 Dipole moment (field-independent basis, Debye):
    X=             -0.0140    Y=             -0.0019    Z=              0.0841  Tot=              0.0853
 Quadrupole moment (field-independent basis, Debye-Ang):
   XX=            -23.3721   YY=            -23.2496   ZZ=            -29.2312
   XY=              0.1911   XZ=             -0.1289   YZ=              0.0099

 1\1\GINC-NODE24\SP\RB2PLYPD3-FC\def2QZVP\C4H6\BOITTIER\26-Aug-2020\0\\
 #p B2PLYPD3/Def2QZVP\\butadiene\\0,1\C,0,-3.851505,0.228617,-0.00344\C
 ,0,-2.731968,-0.509467,0.066057\C,0,-1.378005,0.062717,0.050523\C,0,-0
 .247141,-0.648668,0.001289\H,0,-4.875692,-0.18204,-0.004368\H,0,-3.758
 809,1.282653,-0.157723\H,0,-2.757653,-1.547203,0.183848\H,0,-1.373529,
 1.124383,0.020253\H,0,-0.259876,-1.743106,-0.108448\H,0,0.709975,-0.15
 3499,0.062288\\Version=ES64L-G09RevD.01\State=1-A\HF=-155.697194\MP2=-
 155.9229577\RMSD=4.402e-09\PG=C01 [X(C4H6)]\\@

 Normal termination of Gaussian 09 at Wed Aug 26 22:17:15 2020.
