 Gaussian 09, Revision D.01,
 Gaussian 09:  ES64L-G09RevD.01 24-Apr-2013

 --------------------
 #p B2PLYPD3/Def2QZVP
 --------------------

 ---------
 butadiene
 ---------
 Symbolic Z-matrix:
 Charge =  0 Multiplicity = 1

                         Standard orientation:
 ---------------------------------------------------------------------
 Center     Atomic      Atomic             Coordinates (Angstroms)
 Number     Number       Type             X           Y           Z
 ---------------------------------------------------------------------
      1          6           0        1.855844   -0.127459    0.001359
      2          6           0        0.632844    0.428863   -0.006458
      3          6           0       -0.606808   -0.387395   -0.023123
      4          6           0       -1.851252    0.106767    0.017943
      5          1           0        2.642599    0.524330   -0.035970
      6          1           0        1.972020   -1.206935    0.289386
      7          1           0        0.483243    1.485212   -0.096573
      8          1           0       -0.473874   -1.392271   -0.279373
      9          1           0       -2.236785    1.133700    0.109961
     10          1           0       -2.570966   -0.668691    0.074244
 ---------------------------------------------------------------------

 SCF Done:  E(RB2PLYPD3) =  -155.684256511     A.U. after   11 cycles
 E2(B2PLYPD3) =    -0.2260962519D+00 E(B2PLYPD3) =    -0.15591035276286D+03

 The electronic state is 1-A.
 Alpha  occ. eigenvalues --  -10.62502 -10.62297 -10.61503 -10.61314  -0.92554
 Alpha  occ. eigenvalues --   -0.85138  -0.70285  -0.64154  -0.54950  -0.53406
 Alpha  occ. eigenvalues --   -0.47414  -0.45853  -0.40902  -0.37111  -0.27728
 Alpha virt. eigenvalues --    0.01618   0.07114   0.07524   0.08093   0.08962
 Alpha virt. eigenvalues --    0.11473   0.12437   0.14816   0.15370   0.16157
 Alpha virt. eigenvalues --    0.18634   0.19683   0.21912   0.22603   0.24227

 Mulliken charges:
               1
     1  C   -0.178641
     2  C   -0.047724
     3  C   -0.044500
     4  C   -0.178449
     5  H    0.086829
     6  H    0.074863
     7  H    0.061732
     8  H    0.075525
     9  H    0.076832
    10  H    0.073534
 Sum of Mulliken charges =   0.00000

 Dipole moment (field-independent basis, Debye):
    X=             -0.0646    Y=              0.0811    Z=              0.0577  Tot=              0.1187
 Quadrupole moment (field-independent basis, Debye-Ang):
   XX=            -23.9677   YY=            -22.9135   ZZ=            -29.1026
   XY=             -0.3386   XZ=              0.0752   YZ=             -0.1161

 1\1\GINC-NODE20\SP\RB2PLYPD3-FC\def2QZVP\C4H6\BOITTIER\26-Aug-2020\0\\
 #p B2PLYPD3/Def2QZVP\\butadiene\\0,1\C,0,-3.849598,0.250492,0.021875\C
 ,0,-2.748704,-0.519765,0.026522\C,0,-1.380949,0.055992,-0.005771\C,0,-
 0.247486,-0.656085,0.046495\H,0,-4.742203,-0.247358,-0.002786\H,0,-3.7
 65974,1.338658,0.287633\H,0,-2.794674,-1.587282,-0.04181\H,0,-1.328984
 ,1.062839,-0.282662\H,0,-0.055595,-1.734055,0.159861\H,0,0.60183,-0.02
 4047,0.087533\\Version=ES64L-G09RevD.01\State=1-A\HF=-155.6842565\MP2=
 -155.9103528\RMSD=5.786e-09\PG=C01 [X(C4H6)]\\@

 Normal termination of Gaussian 09 at Wed Aug 26 14:25:43 2020.
