 Gaussian 09, Revision D.01,
 Gaussian 09:  ES64L-G09RevD.01 24-Apr-2013

 --------------------
 #p B2PLYPD3/Def2QZVP
 --------------------

 ---------
 butadiene
 ---------
 Symbolic Z-matrix:
 Charge =  0 Multiplicity = 1

                         Standard orientation:
 ---------------------------------------------------------------------
 Center     Atomic      Atomic             Coordinates (Angstroms)
 Number     Number       Type             X           Y           Z
 ---------------------------------------------------------------------
      1          6           0       -1.858746   -0.109065   -0.027862
      2          6           0       -0.601729    0.383858    0.021623
      3          6           0        0.628584   -0.410902    0.010533
      4          6           0        1.848486    0.110691   -0.008305
      5          1           0       -2.693113    0.570772   -0.023459
      6          1           0       -2.079092   -1.115135    0.100286
      7          1           0       -0.439147    1.452683    0.021252
      8          1           0        0.437465   -1.480701   -0.067446
      9          1           0        1.925913    1.211363   -0.026659
     10          1           0        2.748399   -0.486472    0.020092
 ---------------------------------------------------------------------

 SCF Done:  E(RB2PLYPD3) =  -155.696753296     A.U. after   11 cycles
 E2(B2PLYPD3) =    -0.2258869087D+00 E(B2PLYPD3) =    -0.15592264020429D+03

 The electronic state is 1-A.
 Alpha  occ. eigenvalues --  -10.62782 -10.62551 -10.61816 -10.61238  -0.92820
 Alpha  occ. eigenvalues --   -0.84950  -0.70474  -0.64131  -0.54844  -0.53668
 Alpha  occ. eigenvalues --   -0.47063  -0.46018  -0.40822  -0.37890  -0.27735
 Alpha virt. eigenvalues --    0.01523   0.06986   0.07469   0.08149   0.09466
 Alpha virt. eigenvalues --    0.11728   0.12507   0.14721   0.15600   0.16172
 Alpha virt. eigenvalues --    0.18767   0.20363   0.21651   0.22965   0.24006

 Mulliken charges:
               1
     1  C   -0.181107
     2  C   -0.030426
     3  C   -0.029331
     4  C   -0.172306
     5  H    0.081821
     6  H    0.072420
     7  H    0.051086
     8  H    0.053563
     9  H    0.061526
    10  H    0.092754
 Sum of Mulliken charges =   0.00000

 Dipole moment (field-independent basis, Debye):
    X=              0.0347    Y=             -0.0267    Z=              0.0584  Tot=              0.0730
 Quadrupole moment (field-independent basis, Debye-Ang):
   XX=            -23.3677   YY=            -23.2389   ZZ=            -29.2667
   XY=              0.1949   XZ=             -0.1852   YZ=             -0.0874

 1\1\GINC-NODE40\SP\RB2PLYPD3-FC\def2QZVP\C4H6\BOITTIER\26-Aug-2020\0\\
 #p B2PLYPD3/Def2QZVP\\butadiene\\0,1\C,0,-3.863482,0.224712,0.042513\C
 ,0,-2.715647,-0.48743,0.013484\C,0,-1.362511,0.073233,0.002651\C,0,-0.
 256164,-0.658179,0.042724\H,0,-4.806449,-0.293894,0.057598\H,0,-3.8997
 65,1.249232,-0.119326\H,0,-2.747794,-1.567472,0.04948\H,0,-1.35806,1.1
 61938,0.044835\H,0,-0.377756,-1.753639,0.09745\H,0,0.73634,-0.233714,-
 0.002208\\Version=ES64L-G09RevD.01\State=1-A\HF=-155.6967533\MP2=-155.
 9226402\RMSD=6.606e-09\PG=C01 [X(C4H6)]\\@

 Normal termination of Gaussian 09 at Wed Aug 26 09:56:12 2020.
