 Gaussian 09, Revision D.01,
 Gaussian 09:  ES64L-G09RevD.01 24-Apr-2013

 --------------------
 #p B2PLYPD3/Def2QZVP
 --------------------

 ---------
 butadiene
 ---------
 Symbolic Z-matrix:
 Charge =  0 Multiplicity = 1

                         Standard orientation:
 ---------------------------------------------------------------------
 Center     Atomic      Atomic             Coordinates (Angstroms)
 Number     Number       Type             X           Y           Z
 ---------------------------------------------------------------------
      1          6           0       -1.833889   -0.116589   -0.030494
      2          6           0       -0.600868    0.407391    0.033685
      3          6           0        0.609850   -0.375565    0.017941
      4          6           0        1.840638    0.094834   -0.021613
      5          1           0       -2.713627    0.508767   -0.034573
      6          1           0       -2.017944   -1.209347   -0.002930
      7          1           0       -0.520556    1.485300    0.037038
      8          1           0        0.433373   -1.449412    0.063429
      9          1           0        2.028013    1.159634   -0.019439
     10          1           0        2.696360   -0.555365   -0.040637
 ---------------------------------------------------------------------

 SCF Done:  E(RB2PLYPD3) =  -155.700324860     A.U. after   11 cycles
 E2(B2PLYPD3) =    -0.2255293398D+00 E(B2PLYPD3) =    -0.15592585419963D+03

 The electronic state is 1-A.
 Alpha  occ. eigenvalues --  -10.62475 -10.62204 -10.61882 -10.61196  -0.93221
 Alpha  occ. eigenvalues --   -0.85058  -0.70312  -0.63934  -0.54817  -0.53916
 Alpha  occ. eigenvalues --   -0.46922  -0.45335  -0.40979  -0.38303  -0.27776
 Alpha virt. eigenvalues --    0.01717   0.07005   0.07410   0.08047   0.09832
 Alpha virt. eigenvalues --    0.11655   0.12396   0.14744   0.15827   0.16209
 Alpha virt. eigenvalues --    0.18835   0.20409   0.21692   0.22629   0.23771

 Mulliken charges:
               1
     1  C   -0.172761
     2  C   -0.033229
     3  C   -0.022101
     4  C   -0.176002
     5  H    0.084290
     6  H    0.061580
     7  H    0.053799
     8  H    0.051103
     9  H    0.065395
    10  H    0.087926
 Sum of Mulliken charges =   0.00000

 Dipole moment (field-independent basis, Debye):
    X=             -0.0192    Y=              0.0195    Z=              0.0394  Tot=              0.0480
 Quadrupole moment (field-independent basis, Debye-Ang):
   XX=            -23.3654   YY=            -23.1817   ZZ=            -29.2202
   XY=              0.1187   XZ=             -0.0329   YZ=             -0.0517

 1\1\GINC-NODE22\SP\RB2PLYPD3-FC\def2QZVP\C4H6\BOITTIER\26-Aug-2020\0\\
 #p B2PLYPD3/Def2QZVP\\butadiene\\0,1\C,0,-3.835953,0.233696,0.04703\C,
 0,-2.718431,-0.506698,0.002569\C,0,-1.385908,0.044156,-0.004252\C,0,-0
 .260503,-0.639831,0.053232\H,0,-4.814361,-0.221547,0.069319\H,0,-3.819
 2,1.340257,-0.016211\H,0,-2.834635,-1.58087,0.034197\H,0,-1.365192,1.1
 3018,-0.08478\H,0,-0.269037,-1.720468,0.085855\H,0,0.698868,-0.155077,
 0.053177\\Version=ES64L-G09RevD.01\State=1-A\HF=-155.7003249\MP2=-155.
 9258542\RMSD=6.012e-09\PG=C01 [X(C4H6)]\\@

 Normal termination of Gaussian 09 at Wed Aug 26 18:59:02 2020.
