 Gaussian 09, Revision D.01,
 Gaussian 09:  ES64L-G09RevD.01 24-Apr-2013

 --------------------
 #p B2PLYPD3/Def2QZVP
 --------------------

 ---------
 butadiene
 ---------
 Symbolic Z-matrix:
 Charge =  0 Multiplicity = 1

                         Standard orientation:
 ---------------------------------------------------------------------
 Center     Atomic      Atomic             Coordinates (Angstroms)
 Number     Number       Type             X           Y           Z
 ---------------------------------------------------------------------
      1          6           0        1.820460   -0.131893    0.010643
      2          6           0        0.600860    0.426462   -0.046836
      3          6           0       -0.600092   -0.384508   -0.018159
      4          6           0       -1.819219    0.102100   -0.001766
      5          1           0        2.740957    0.461006    0.125287
      6          1           0        1.953538   -1.167575   -0.014607
      7          1           0        0.516797    1.490875    0.047833
      8          1           0       -0.512412   -1.471997    0.036514
      9          1           0       -2.018277    1.158072    0.042354
     10          1           0       -2.692660   -0.543350    0.099331
 ---------------------------------------------------------------------

 SCF Done:  E(RB2PLYPD3) =  -155.697853193     A.U. after   11 cycles
 E2(B2PLYPD3) =    -0.2253166000D+00 E(B2PLYPD3) =    -0.15592316979334D+03

 The electronic state is 1-A.
 Alpha  occ. eigenvalues --  -10.62519 -10.62160 -10.61385 -10.60953  -0.93289
 Alpha  occ. eigenvalues --   -0.85135  -0.69976  -0.64448  -0.54556  -0.54402
 Alpha  occ. eigenvalues --   -0.46505  -0.45433  -0.41292  -0.38292  -0.27741
 Alpha virt. eigenvalues --    0.01952   0.07042   0.07486   0.07983   0.09524
 Alpha virt. eigenvalues --    0.11705   0.12558   0.14746   0.15789   0.16404
 Alpha virt. eigenvalues --    0.18769   0.20170   0.21900   0.22912   0.24066

 Mulliken charges:
               1
     1  C   -0.173113
     2  C   -0.037747
     3  C   -0.025716
     4  C   -0.169734
     5  H    0.078367
     6  H    0.070012
     7  H    0.064293
     8  H    0.053838
     9  H    0.061608
    10  H    0.078192
 Sum of Mulliken charges =   0.00000

 Dipole moment (field-independent basis, Debye):
    X=              0.0369    Y=             -0.0134    Z=              0.2588  Tot=              0.2617
 Quadrupole moment (field-independent basis, Debye-Ang):
   XX=            -23.5602   YY=            -23.0594   ZZ=            -29.1345
   XY=             -0.1348   XZ=             -0.0055   YZ=              0.1054

 1\1\GINC-NODE33\SP\RB2PLYPD3-FC\def2QZVP\C4H6\BOITTIER\26-Aug-2020\0\\
 #p B2PLYPD3/Def2QZVP\\butadiene\\0,1\C,0,-3.819522,0.23991,0.03391\C,0
 ,-2.718858,-0.528031,-0.002077\C,0,-1.392756,0.056967,0.001407\C,0,-0.
 279502,-0.637827,0.036807\H,0,-4.830287,-0.175638,0.166808\H,0,-3.7664
 58,1.281292,-0.026838\H,0,-2.82498,-1.586605,0.128928\H,0,-1.285483,1.
 143934,0.018865\H,0,-0.271167,-1.710258,0.117237\H,0,0.695177,-0.15492
 7,0.117642\\Version=ES64L-G09RevD.01\State=1-A\HF=-155.6978532\MP2=-15
 5.9231698\RMSD=5.600e-09\PG=C01 [X(C4H6)]\\@

 Normal termination of Gaussian 09 at Wed Aug 26 08:58:45 2020.
