 Gaussian 09, Revision D.01,
 Gaussian 09:  ES64L-G09RevD.01 24-Apr-2013

 --------------------
 #p B2PLYPD3/Def2QZVP
 --------------------

 ---------
 butadiene
 ---------
 Symbolic Z-matrix:
 Charge =  0 Multiplicity = 1

                         Standard orientation:
 ---------------------------------------------------------------------
 Center     Atomic      Atomic             Coordinates (Angstroms)
 Number     Number       Type             X           Y           Z
 ---------------------------------------------------------------------
      1          6           0        1.816384    0.073386    0.032316
      2          6           0        0.584130   -0.359477   -0.059546
      3          6           0       -0.594278    0.412012   -0.024542
      4          6           0       -1.806935   -0.106974    0.010421
      5          1           0        2.597062   -0.609077    0.075892
      6          1           0        2.143394    1.152602    0.122553
      7          1           0        0.374789   -1.416210   -0.213008
      8          1           0       -0.462200    1.551445   -0.031620
      9          1           0       -1.877593   -1.194460    0.339028
     10          1           0       -2.771262    0.402017   -0.044739
 ---------------------------------------------------------------------

 SCF Done:  E(RB2PLYPD3) =  -155.684724315     A.U. after   11 cycles
 E2(B2PLYPD3) =    -0.2260614310D+00 E(B2PLYPD3) =    -0.15591078574641D+03

 The electronic state is 1-A.
 Alpha  occ. eigenvalues --  -10.62594 -10.62009 -10.61862 -10.61248  -0.94038
 Alpha  occ. eigenvalues --   -0.85277  -0.70607  -0.62988  -0.55662  -0.53059
 Alpha  occ. eigenvalues --   -0.47624  -0.44492  -0.40324  -0.38582  -0.27743
 Alpha virt. eigenvalues --    0.01532   0.07084   0.07147   0.07967   0.09732
 Alpha virt. eigenvalues --    0.11545   0.12461   0.14687   0.15589   0.16537
 Alpha virt. eigenvalues --    0.18732   0.19731   0.21676   0.22364   0.23561

 Mulliken charges:
               1
     1  C   -0.173212
     2  C   -0.026012
     3  C   -0.018255
     4  C   -0.170863
     5  H    0.085926
     6  H    0.064118
     7  H    0.054521
     8  H    0.044262
     9  H    0.051964
    10  H    0.087550
 Sum of Mulliken charges =   0.00000

 Dipole moment (field-independent basis, Debye):
    X=              0.0282    Y=              0.0188    Z=              0.1645  Tot=              0.1680
 Quadrupole moment (field-independent basis, Debye-Ang):
   XX=            -23.2650   YY=            -23.6455   ZZ=            -28.9758
   XY=              0.1419   XZ=             -0.0182   YZ=             -0.1342

 1\1\GINC-NODE38\SP\RB2PLYPD3-FC\def2QZVP\C4H6\BOITTIER\26-Aug-2020\0\\
 #p B2PLYPD3/Def2QZVP\\butadiene\\0,1\C,0,-3.822052,0.199448,-0.015194\
 C,0,-2.694121,-0.457676,0.085893\C,0,-1.390826,0.075545,0.039387\C,0,-
 0.298703,-0.66458,0.015117\H,0,-4.718094,-0.323173,-0.0482\H,0,-3.9385
 63,1.319395,-0.124417\H,0,-2.688762,-1.532147,0.257773\H,0,-1.304345,1
 .219294,0.026718\H,0,-0.436217,-1.751189,-0.294676\H,0,0.744767,-0.346
 895,0.062952\\Version=ES64L-G09RevD.01\State=1-A\HF=-155.6847243\MP2=-
 155.9107857\RMSD=3.960e-09\PG=C01 [X(C4H6)]\\@

 Normal termination of Gaussian 09 at Wed Aug 26 16:05:06 2020.
