 Gaussian 09, Revision D.01,
 Gaussian 09:  ES64L-G09RevD.01 24-Apr-2013

 --------------------
 #p B2PLYPD3/Def2QZVP
 --------------------

 ---------
 butadiene
 ---------
 Symbolic Z-matrix:
 Charge =  0 Multiplicity = 1

                         Standard orientation:
 ---------------------------------------------------------------------
 Center     Atomic      Atomic             Coordinates (Angstroms)
 Number     Number       Type             X           Y           Z
 ---------------------------------------------------------------------
      1          6           0       -1.835373   -0.081771   -0.066540
      2          6           0       -0.609547    0.415780    0.009348
      3          6           0        0.587423   -0.466106    0.077436
      4          6           0        1.836178    0.125404   -0.042842
      5          1           0       -2.738870    0.515408    0.184032
      6          1           0       -1.940247   -1.204794   -0.169962
      7          1           0       -0.382897    1.484252    0.201496
      8          1           0        0.433903   -1.482002    0.074269
      9          1           0        2.059336    1.246593   -0.212865
     10          1           0        2.696696   -0.519298    0.058613
 ---------------------------------------------------------------------

 SCF Done:  E(RB2PLYPD3) =  -155.679775589     A.U. after   12 cycles
 E2(B2PLYPD3) =    -0.2279540325D+00 E(B2PLYPD3) =    -0.15590772962189D+03

 The electronic state is 1-A.
 Alpha  occ. eigenvalues --  -10.63190 -10.63098 -10.62763 -10.62042  -0.92341
 Alpha  occ. eigenvalues --   -0.83937  -0.69229  -0.64275  -0.53845  -0.52799
 Alpha  occ. eigenvalues --   -0.47012  -0.45040  -0.40775  -0.37109  -0.27408
 Alpha virt. eigenvalues --    0.01338   0.06960   0.07101   0.07968   0.08831
 Alpha virt. eigenvalues --    0.11646   0.12114   0.14477   0.15449   0.16129
 Alpha virt. eigenvalues --    0.18750   0.19850   0.21072   0.22516   0.23785

 Mulliken charges:
               1
     1  C   -0.174241
     2  C   -0.016347
     3  C   -0.066989
     4  C   -0.169555
     5  H    0.084356
     6  H    0.053751
     7  H    0.062299
     8  H    0.074451
     9  H    0.072177
    10  H    0.080098
 Sum of Mulliken charges =   0.00000

 Dipole moment (field-independent basis, Debye):
    X=              0.1084    Y=             -0.0425    Z=              0.1924  Tot=              0.2249
 Quadrupole moment (field-independent basis, Debye-Ang):
   XX=            -24.0671   YY=            -22.9881   ZZ=            -29.4625
   XY=              0.4430   XZ=             -0.6529   YZ=              0.1587

 1\1\GINC-NODE02\SP\RB2PLYPD3-FC\def2QZVP\C4H6\BOITTIER\26-Aug-2020\0\\
 #p B2PLYPD3/Def2QZVP\\butadiene\\0,1\C,0,-3.837962,0.209018,0.073591\C
 ,0,-2.726606,-0.510407,0.016314\C,0,-1.385657,0.130528,-0.062145\C,0,-
 0.269873,-0.681197,0.078811\H,0,-4.836521,-0.214078,-0.17051\H,0,-3.73
 1252,1.333832,0.152851\H,0,-2.703249,-1.606335,-0.151974\H,0,-1.3465,1
 .157039,-0.081206\H,0,-0.260774,-1.820369,0.273684\H,0,0.696296,-0.211
 051,-0.03031\\Version=ES64L-G09RevD.01\State=1-A\HF=-155.6797756\MP2=-
 155.9077296\RMSD=3.992e-09\PG=C01 [X(C4H6)]\\@

 Normal termination of Gaussian 09 at Wed Aug 26 12:14:21 2020.
