 Gaussian 09, Revision D.01,
 Gaussian 09:  ES64L-G09RevD.01 24-Apr-2013

 --------------------
 #p B2PLYPD3/Def2QZVP
 --------------------

 ---------
 butadiene
 ---------
 Symbolic Z-matrix:
 Charge =  0 Multiplicity = 1

                         Standard orientation:
 ---------------------------------------------------------------------
 Center     Atomic      Atomic             Coordinates (Angstroms)
 Number     Number       Type             X           Y           Z
 ---------------------------------------------------------------------
      1          6           0       -1.801968    0.126779   -0.066913
      2          6           0       -0.595410   -0.444317    0.069804
      3          6           0        0.571486    0.353574    0.049378
      4          6           0        1.823588   -0.082156   -0.075855
      5          1           0       -2.836219   -0.437637   -0.059353
      6          1           0       -1.848944    1.221547   -0.100139
      7          1           0       -0.460107   -1.479164    0.148164
      8          1           0        0.352013    1.419542    0.234421
      9          1           0        2.184951   -1.099255   -0.074672
     10          1           0        2.622135    0.651693   -0.006907
 ---------------------------------------------------------------------

 SCF Done:  E(RB2PLYPD3) =  -155.687255478     A.U. after   11 cycles
 E2(B2PLYPD3) =    -0.2267037458D+00 E(B2PLYPD3) =    -0.15591395922392D+03

 The electronic state is 1-A.
 Alpha  occ. eigenvalues --  -10.62903 -10.62357 -10.61934 -10.61362  -0.93811
 Alpha  occ. eigenvalues --   -0.84476  -0.70108  -0.64524  -0.54506  -0.53420
 Alpha  occ. eigenvalues --   -0.46902  -0.44942  -0.41079  -0.38096  -0.27507
 Alpha virt. eigenvalues --    0.01435   0.06923   0.07386   0.07830   0.09690
 Alpha virt. eigenvalues --    0.11555   0.12426   0.14848   0.15573   0.16195
 Alpha virt. eigenvalues --    0.18722   0.20209   0.21633   0.21914   0.23955

 Mulliken charges:
               1
     1  C   -0.160302
     2  C   -0.038021
     3  C   -0.017788
     4  C   -0.184198
     5  H    0.076869
     6  H    0.060179
     7  H    0.065216
     8  H    0.053761
     9  H    0.069767
    10  H    0.074518
 Sum of Mulliken charges =   0.00000

 Dipole moment (field-independent basis, Debye):
    X=             -0.0463    Y=             -0.0622    Z=              0.2126  Tot=              0.2262
 Quadrupole moment (field-independent basis, Debye-Ang):
   XX=            -23.5902   YY=            -23.2997   ZZ=            -29.2262
   XY=             -0.4782   XZ=              0.2087   YZ=              0.0879

 1\1\GINC-NODE40\SP\RB2PLYPD3-FC\def2QZVP\C4H6\BOITTIER\26-Aug-2020\0\\
 #p B2PLYPD3/Def2QZVP\\butadiene\\0,1\C,0,-3.796848,0.250765,-0.04806\C
 ,0,-2.718854,-0.532334,0.111028\C,0,-1.422746,0.03063,0.067795\C,0,-0.
 275407,-0.636797,-0.039251\H,0,-4.918793,-0.108405,-0.024988\H,0,-3.63
 7108,1.333118,-0.117511\H,0,-2.780423,-1.571001,0.223876\H,0,-1.437127
 ,1.124362,0.216927\H,0,-0.111867,-1.703121,-0.003446\H,0,0.647175,-0.0
 64443,0.007849\\Version=ES64L-G09RevD.01\State=1-A\HF=-155.6872555\MP2
 =-155.9139592\RMSD=9.610e-09\PG=C01 [X(C4H6)]\\@

 Normal termination of Gaussian 09 at Wed Aug 26 13:56:59 2020.
