 Gaussian 09, Revision D.01,
 Gaussian 09:  ES64L-G09RevD.01 24-Apr-2013

 --------------------
 #p B2PLYPD3/Def2QZVP
 --------------------

 ---------
 butadiene
 ---------
 Symbolic Z-matrix:
 Charge =  0 Multiplicity = 1

                         Standard orientation:
 ---------------------------------------------------------------------
 Center     Atomic      Atomic             Coordinates (Angstroms)
 Number     Number       Type             X           Y           Z
 ---------------------------------------------------------------------
      1          6           0       -1.860216   -0.094226    0.012092
      2          6           0       -0.619288    0.363342   -0.034224
      3          6           0        0.635446   -0.407286   -0.070860
      4          6           0        1.865294    0.109517    0.036888
      5          1           0       -2.645895    0.510935    0.112011
      6          1           0       -2.092998   -1.126605    0.221228
      7          1           0       -0.457753    1.475002   -0.086380
      8          1           0        0.463802   -1.450084   -0.165652
      9          1           0        1.837207    1.228817    0.048562
     10          1           0        2.768221   -0.466146    0.206845
 ---------------------------------------------------------------------

 SCF Done:  E(RB2PLYPD3) =  -155.686063611     A.U. after   11 cycles
 E2(B2PLYPD3) =    -0.2258771164D+00 E(B2PLYPD3) =    -0.15591194072723D+03

 The electronic state is 1-A.
 Alpha  occ. eigenvalues --  -10.63051 -10.62563 -10.62294 -10.60459  -0.92852
 Alpha  occ. eigenvalues --   -0.85468  -0.70773  -0.63745  -0.55734  -0.53354
 Alpha  occ. eigenvalues --   -0.47951  -0.45215  -0.40498  -0.37750  -0.28066
 Alpha virt. eigenvalues --    0.01518   0.07009   0.07478   0.08142   0.09544
 Alpha virt. eigenvalues --    0.11599   0.12705   0.14564   0.15657   0.16047
 Alpha virt. eigenvalues --    0.18858   0.20537   0.21462   0.22332   0.23945

 Mulliken charges:
               1
     1  C   -0.167853
     2  C   -0.023722
     3  C   -0.033279
     4  C   -0.170564
     5  H    0.085526
     6  H    0.057678
     7  H    0.037196
     8  H    0.057473
     9  H    0.057801
    10  H    0.099744
 Sum of Mulliken charges =   0.00000

 Dipole moment (field-independent basis, Debye):
    X=              0.0009    Y=             -0.0693    Z=              0.2647  Tot=              0.2736
 Quadrupole moment (field-independent basis, Debye-Ang):
   XX=            -23.1959   YY=            -23.5547   ZZ=            -29.0832
   XY=             -0.1395   XZ=             -0.0835   YZ=             -0.1790

 1\1\GINC-NODE22\SP\RB2PLYPD3-FC\def2QZVP\C4H6\BOITTIER\26-Aug-2020\0\\
 #p B2PLYPD3/Def2QZVP\\butadiene\\0,1\C,0,-3.869631,0.203223,-0.002339\
 C,0,-2.728956,-0.464464,0.064522\C,0,-1.357668,0.0731,0.077195\C,0,-0.
 238869,-0.65648,-0.007792\H,0,-4.750214,-0.256781,-0.082753\H,0,-3.916
 98,1.252214,-0.249536\H,0,-2.766255,-1.584539,0.157492\H,0,-1.342009,1
 .13256,0.133542\H,0,-0.464363,-1.752873,0.02106\H,0,0.751022,-0.256002
 ,-0.195629\\Version=ES64L-G09RevD.01\State=1-A\HF=-155.6860636\MP2=-15
 5.9119407\RMSD=8.305e-09\PG=C01 [X(C4H6)]\\@

 Normal termination of Gaussian 09 at Wed Aug 26 15:22:02 2020.
