 Gaussian 09, Revision D.01,
 Gaussian 09:  ES64L-G09RevD.01 24-Apr-2013

 --------------------
 #p B2PLYPD3/Def2QZVP
 --------------------

 ---------
 butadiene
 ---------
 Symbolic Z-matrix:
 Charge =  0 Multiplicity = 1

                         Standard orientation:
 ---------------------------------------------------------------------
 Center     Atomic      Atomic             Coordinates (Angstroms)
 Number     Number       Type             X           Y           Z
 ---------------------------------------------------------------------
      1          6           0        1.837821   -0.120314    0.022936
      2          6           0        0.603992    0.406617   -0.019661
      3          6           0       -0.597585   -0.392039   -0.029383
      4          6           0       -1.841354    0.102602    0.024918
      5          1           0        2.693951    0.556043   -0.058472
      6          1           0        1.997151   -1.181377    0.101472
      7          1           0        0.463453    1.470309   -0.009765
      8          1           0       -0.448709   -1.448255   -0.067399
      9          1           0       -2.015782    1.150194    0.042317
     10          1           0       -2.707310   -0.528108   -0.001010
 ---------------------------------------------------------------------

 SCF Done:  E(RB2PLYPD3) =  -155.699962716     A.U. after   11 cycles
 E2(B2PLYPD3) =    -0.2256843258D+00 E(B2PLYPD3) =    -0.15592564704163D+03

 The electronic state is 1-A.
 Alpha  occ. eigenvalues --  -10.62351 -10.62196 -10.61701 -10.61213  -0.93133
 Alpha  occ. eigenvalues --   -0.84815  -0.70447  -0.64530  -0.54452  -0.54233
 Alpha  occ. eigenvalues --   -0.46604  -0.46122  -0.41447  -0.38053  -0.27470
 Alpha virt. eigenvalues --    0.01516   0.06994   0.07516   0.08110   0.09633
 Alpha virt. eigenvalues --    0.11766   0.12412   0.14865   0.15803   0.16105
 Alpha virt. eigenvalues --    0.18799   0.20487   0.21614   0.22863   0.23909

 Mulliken charges:
               1
     1  C   -0.180998
     2  C   -0.031618
     3  C   -0.028285
     4  C   -0.179341
     5  H    0.085129
     6  H    0.071798
     7  H    0.057334
     8  H    0.055244
     9  H    0.065309
    10  H    0.085428
 Sum of Mulliken charges =   0.00000

 Dipole moment (field-independent basis, Debye):
    X=             -0.0113    Y=              0.0063    Z=             -0.0235  Tot=              0.0268
 Quadrupole moment (field-independent basis, Debye-Ang):
   XX=            -23.5965   YY=            -23.0371   ZZ=            -29.2291
   XY=             -0.2008   XZ=             -0.0272   YZ=             -0.0571

 1\1\GINC-NODE11\SP\RB2PLYPD3-FC\def2QZVP\C4H6\BOITTIER\26-Aug-2020\0\\
 #p B2PLYPD3/Def2QZVP\\butadiene\\0,1\C,0,-3.836977,0.237417,0.040733\C
 ,0,-2.71959,-0.505931,0.014534\C,0,-1.392908,0.060489,-0.014036\C,0,-0
 .259597,-0.650363,0.05579\H,0,-4.802004,-0.273981,-0.024366\H,0,-3.800
 584,1.311465,0.090778\H,0,-2.774681,-1.57681,0.052923\H,0,-1.347456,1.
 12479,-0.080353\H,0,-0.278415,-1.711376,0.101318\H,0,0.706485,-0.18845
 9,0.014823\\Version=ES64L-G09RevD.01\State=1-A\HF=-155.6999627\MP2=-15
 5.925647\RMSD=4.139e-09\PG=C01 [X(C4H6)]\\@

 Normal termination of Gaussian 09 at Wed Aug 26 22:09:15 2020.
