 Gaussian 09, Revision D.01,
 Gaussian 09:  ES64L-G09RevD.01 24-Apr-2013

 --------------------
 #p B2PLYPD3/Def2QZVP
 --------------------

 ---------
 butadiene
 ---------
 Symbolic Z-matrix:
 Charge =  0 Multiplicity = 1

                         Standard orientation:
 ---------------------------------------------------------------------
 Center     Atomic      Atomic             Coordinates (Angstroms)
 Number     Number       Type             X           Y           Z
 ---------------------------------------------------------------------
      1          6           0       -1.823925   -0.096158    0.039298
      2          6           0       -0.585243    0.397104   -0.101420
      3          6           0        0.587799   -0.421853   -0.063201
      4          6           0        1.815603    0.122000    0.041351
      5          1           0       -2.724976    0.520027    0.167635
      6          1           0       -1.983249   -1.097375    0.202143
      7          1           0       -0.248939    1.470360   -0.161972
      8          1           0        0.448820   -1.480954   -0.048888
      9          1           0        1.958844    1.167631    0.328809
     10          1           0        2.584097   -0.586248    0.016100
 ---------------------------------------------------------------------

 SCF Done:  E(RB2PLYPD3) =  -155.685007414     A.U. after   11 cycles
 E2(B2PLYPD3) =    -0.2266466954D+00 E(B2PLYPD3) =    -0.15591165410948D+03

 The electronic state is 1-A.
 Alpha  occ. eigenvalues --  -10.62830 -10.62078 -10.61326 -10.61275  -0.93502
 Alpha  occ. eigenvalues --   -0.84771  -0.70832  -0.64197  -0.55281  -0.53306
 Alpha  occ. eigenvalues --   -0.46799  -0.46267  -0.41021  -0.38079  -0.27237
 Alpha virt. eigenvalues --    0.01226   0.07060   0.07283   0.08153   0.09316
 Alpha virt. eigenvalues --    0.11888   0.12394   0.15022   0.15622   0.16245
 Alpha virt. eigenvalues --    0.18610   0.20273   0.21563   0.22572   0.23526

 Mulliken charges:
               1
     1  C   -0.172181
     2  C   -0.021485
     3  C   -0.027643
     4  C   -0.187509
     5  H    0.079673
     6  H    0.068171
     7  H    0.048123
     8  H    0.054888
     9  H    0.074444
    10  H    0.083518
 Sum of Mulliken charges =   0.00000

 Dipole moment (field-independent basis, Debye):
    X=             -0.0064    Y=             -0.1210    Z=              0.3789  Tot=              0.3978
 Quadrupole moment (field-independent basis, Debye-Ang):
   XX=            -24.0815   YY=            -23.1563   ZZ=            -29.0538
   XY=              0.4318   XZ=             -0.2089   YZ=              0.1568

 1\1\GINC-NODE09\SP\RB2PLYPD3-FC\def2QZVP\C4H6\BOITTIER\26-Aug-2020\0\\
 #p B2PLYPD3/Def2QZVP\\butadiene\\0,1\C,0,-3.823801,0.226441,-0.032116\
 C,0,-2.701995,-0.491187,0.122817\C,0,-1.39425,0.088069,0.073394\C,0,-0
 .292747,-0.68194,-0.015966\H,0,-4.825846,-0.20895,-0.152064\H,0,-3.789
 161,1.236281,-0.214771\H,0,-2.576639,-1.607491,0.205264\H,0,-1.328612,
 1.153747,0.038209\H,0,-0.351596,-1.741122,-0.282737\H,0,0.596753,-0.13
 2929,-0.001363\\Version=ES64L-G09RevD.01\State=1-A\HF=-155.6850074\MP2
 =-155.9116541\RMSD=6.593e-09\PG=C01 [X(C4H6)]\\@

 Normal termination of Gaussian 09 at Wed Aug 26 12:03:17 2020.
