 Gaussian 09, Revision D.01,
 Gaussian 09:  ES64L-G09RevD.01 24-Apr-2013

 --------------------
 #p B2PLYPD3/Def2QZVP
 --------------------

 ---------
 butadiene
 ---------
 Symbolic Z-matrix:
 Charge =  0 Multiplicity = 1

                         Standard orientation:
 ---------------------------------------------------------------------
 Center     Atomic      Atomic             Coordinates (Angstroms)
 Number     Number       Type             X           Y           Z
 ---------------------------------------------------------------------
      1          6           0        1.838016    0.134190   -0.051265
      2          6           0        0.633160   -0.413294    0.031322
      3          6           0       -0.607574    0.370806    0.033180
      4          6           0       -1.848709   -0.107069   -0.023591
      5          1           0        2.707596   -0.525980    0.126560
      6          1           0        1.945218    1.183944   -0.118774
      7          1           0        0.483837   -1.466831    0.047370
      8          1           0       -0.524176    1.489629    0.120594
      9          1           0       -2.049560   -1.153166   -0.111284
     10          1           0       -2.652271    0.564609   -0.002344
 ---------------------------------------------------------------------

 SCF Done:  E(RB2PLYPD3) =  -155.695744187     A.U. after   11 cycles
 E2(B2PLYPD3) =    -0.2253841859D+00 E(B2PLYPD3) =    -0.15592112837254D+03

 The electronic state is 1-A.
 Alpha  occ. eigenvalues --  -10.62712 -10.62325 -10.61447 -10.60838  -0.92902
 Alpha  occ. eigenvalues --   -0.85376  -0.70143  -0.63921  -0.54580  -0.54192
 Alpha  occ. eigenvalues --   -0.47238  -0.45628  -0.40846  -0.37860  -0.27939
 Alpha virt. eigenvalues --    0.01815   0.07003   0.07473   0.08007   0.09693
 Alpha virt. eigenvalues --    0.11772   0.12316   0.14861   0.15621   0.16148
 Alpha virt. eigenvalues --    0.18894   0.19902   0.21724   0.22436   0.24403

 Mulliken charges:
               1
     1  C   -0.169378
     2  C   -0.040066
     3  C   -0.020359
     4  C   -0.185192
     5  H    0.084004
     6  H    0.073577
     7  H    0.061419
     8  H    0.041109
     9  H    0.065294
    10  H    0.089593
 Sum of Mulliken charges =   0.00000

 Dipole moment (field-independent basis, Debye):
    X=             -0.0162    Y=             -0.0235    Z=              0.0854  Tot=              0.0901
 Quadrupole moment (field-independent basis, Debye-Ang):
   XX=            -23.7445   YY=            -23.0127   ZZ=            -29.1596
   XY=              0.0812   XZ=              0.3583   YZ=             -0.0281

 1\1\GINC-NODE08\SP\RB2PLYPD3-FC\def2QZVP\C4H6\BOITTIER\26-Aug-2020\0\\
 #p B2PLYPD3/Def2QZVP\\butadiene\\0,1\C,0,-3.836082,0.241044,0.061662\C
 ,0,-2.745545,-0.510788,0.00072\C,0,-1.386838,0.043998,-0.018366\C,0,-0
 .248332,-0.641537,0.058117\H,0,-4.807787,-0.261968,-0.100769\H,0,-3.75
 8068,1.294911,0.097896\H,0,-2.782719,-1.574213,0.01623\H,0,-1.273399,1
 .157086,-0.1389\H,0,-0.233412,-1.703569,0.177343\H,0,0.66027,-0.121563
 ,0.020921\\Version=ES64L-G09RevD.01\State=1-A\HF=-155.6957442\MP2=-155
 .9211284\RMSD=6.216e-09\PG=C01 [X(C4H6)]\\@

 Normal termination of Gaussian 09 at Wed Aug 26 10:16:19 2020.
