 Gaussian 09, Revision D.01,
 Gaussian 09:  ES64L-G09RevD.01 24-Apr-2013

 --------------------
 #p B2PLYPD3/Def2QZVP
 --------------------

 ---------
 butadiene
 ---------
 Symbolic Z-matrix:
 Charge =  0 Multiplicity = 1

                         Standard orientation:
 ---------------------------------------------------------------------
 Center     Atomic      Atomic             Coordinates (Angstroms)
 Number     Number       Type             X           Y           Z
 ---------------------------------------------------------------------
      1          6           0        1.785908   -0.145381    0.026575
      2          6           0        0.611184    0.459684   -0.078315
      3          6           0       -0.571078   -0.366274   -0.024833
      4          6           0       -1.819680    0.064272    0.053143
      5          1           0        2.698828    0.410847    0.213017
      6          1           0        1.899602   -1.237446   -0.020277
      7          1           0        0.586095    1.571891    0.050607
      8          1           0       -0.459700   -1.509899   -0.115464
      9          1           0       -2.020365    1.162973   -0.120104
     10          1           0       -2.742466   -0.472172    0.132806
 ---------------------------------------------------------------------

 SCF Done:  E(RB2PLYPD3) =  -155.685694124     A.U. after   11 cycles
 E2(B2PLYPD3) =    -0.2266856829D+00 E(B2PLYPD3) =    -0.15591237980713D+03

 The electronic state is 1-A.
 Alpha  occ. eigenvalues --  -10.63108 -10.62957 -10.61728 -10.61340  -0.93368
 Alpha  occ. eigenvalues --   -0.84951  -0.69577  -0.63249  -0.55127  -0.53313
 Alpha  occ. eigenvalues --   -0.46640  -0.43977  -0.40898  -0.38219  -0.27638
 Alpha virt. eigenvalues --    0.01959   0.06986   0.07148   0.07847   0.09119
 Alpha virt. eigenvalues --    0.11509   0.12653   0.14367   0.15440   0.16863
 Alpha virt. eigenvalues --    0.18582   0.19695   0.22014   0.23288   0.23548

 Mulliken charges:
               1
     1  C   -0.158782
     2  C   -0.035053
     3  C   -0.024926
     4  C   -0.171401
     5  H    0.077715
     6  H    0.066494
     7  H    0.066673
     8  H    0.046993
     9  H    0.045001
    10  H    0.087285
 Sum of Mulliken charges =   0.00000

 Dipole moment (field-independent basis, Debye):
    X=              0.1436    Y=             -0.0167    Z=              0.0612  Tot=              0.1570
 Quadrupole moment (field-independent basis, Debye-Ang):
   XX=            -23.4199   YY=            -23.3171   ZZ=            -29.2108
   XY=              0.0506   XZ=              0.5585   YZ=              0.1522

 1\1\GINC-NODE33\SP\RB2PLYPD3-FC\def2QZVP\C4H6\BOITTIER\26-Aug-2020\0\\
 #p B2PLYPD3/Def2QZVP\\butadiene\\0,1\C,0,-3.78079,0.251697,0.053958\C,
 0,-2.735236,-0.55832,-0.03419\C,0,-1.423096,0.042136,-0.010711\C,0,-0.
 271892,-0.603861,0.07803\H,0,-4.777387,-0.124587,0.260788\H,0,-3.69624
 8,1.344325,-0.028167\H,0,-2.909868,-1.652177,0.130847\H,0,-1.327354,1.
 183651,-0.138278\H,0,-0.273918,-1.725655,-0.059834\H,0,0.733085,-0.240
 399,0.137783\\Version=ES64L-G09RevD.01\State=1-A\HF=-155.6856941\MP2=-
 155.9123798\RMSD=7.808e-09\PG=C01 [X(C4H6)]\\@

 Normal termination of Gaussian 09 at Wed Aug 26 11:40:44 2020.
