 Gaussian 09, Revision D.01,
 Gaussian 09:  ES64L-G09RevD.01 24-Apr-2013

 --------------------
 #p B2PLYPD3/Def2QZVP
 --------------------

 ---------
 butadiene
 ---------
 Symbolic Z-matrix:
 Charge =  0 Multiplicity = 1

                         Standard orientation:
 ---------------------------------------------------------------------
 Center     Atomic      Atomic             Coordinates (Angstroms)
 Number     Number       Type             X           Y           Z
 ---------------------------------------------------------------------
      1          6           0       -1.848043   -0.135450   -0.011193
      2          6           0       -0.611123    0.411132   -0.029363
      3          6           0        0.601193   -0.362794   -0.001796
      4          6           0        1.848410    0.082085    0.000287
      5          1           0       -2.672225    0.525226    0.095553
      6          1           0       -1.992782   -1.175280    0.028145
      7          1           0       -0.513894    1.495231    0.059350
      8          1           0        0.482804   -1.447179    0.030315
      9          1           0        2.037652    1.156674    0.010572
     10          1           0        2.715825   -0.524503    0.028451
 ---------------------------------------------------------------------

 SCF Done:  E(RB2PLYPD3) =  -155.697716828     A.U. after   11 cycles
 E2(B2PLYPD3) =    -0.2256726270D+00 E(B2PLYPD3) =    -0.15592338945519D+03

 The electronic state is 1-A.
 Alpha  occ. eigenvalues --  -10.62800 -10.62237 -10.61344 -10.61167  -0.93112
 Alpha  occ. eigenvalues --   -0.85136  -0.70797  -0.63994  -0.54969  -0.54342
 Alpha  occ. eigenvalues --   -0.46845  -0.45812  -0.41075  -0.38160  -0.27617
 Alpha virt. eigenvalues --    0.01409   0.07038   0.07501   0.08042   0.09821
 Alpha virt. eigenvalues --    0.11674   0.12498   0.14832   0.15817   0.16271
 Alpha virt. eigenvalues --    0.18878   0.20412   0.21753   0.22740   0.23823

 Mulliken charges:
               1
     1  C   -0.178027
     2  C   -0.033694
     3  C   -0.020478
     4  C   -0.173175
     5  H    0.086761
     6  H    0.074035
     7  H    0.054079
     8  H    0.045791
     9  H    0.055030
    10  H    0.089679
 Sum of Mulliken charges =   0.00000

 Dipole moment (field-independent basis, Debye):
    X=             -0.0084    Y=             -0.0129    Z=              0.2126  Tot=              0.2132
 Quadrupole moment (field-independent basis, Debye-Ang):
   XX=            -23.3398   YY=            -23.1907   ZZ=            -29.1910
   XY=              0.0286   XZ=             -0.2838   YZ=              0.0781

 1\1\GINC-NODE33\SP\RB2PLYPD3-FC\def2QZVP\C4H6\BOITTIER\26-Aug-2020\0\\
 #p B2PLYPD3/Def2QZVP\\butadiene\\0,1\C,0,-3.844863,0.248,0.020611\C,0,
 -2.725712,-0.51044,0.056973\C,0,-1.394488,0.033155,0.014801\C,0,-0.247
 02,-0.627605,0.028436\H,0,-4.77405,-0.257018,-0.072833\H,0,-3.80121,1.
 29563,-0.045023\H,0,-2.824123,-1.596319,-0.004485\H,0,-1.316932,1.1200
 74,-0.044613\H,0,-0.253145,-1.718629,0.045492\H,0,0.714924,-0.186901,-
 0.011485\\Version=ES64L-G09RevD.01\State=1-A\HF=-155.6977168\MP2=-155.
 9233895\RMSD=5.751e-09\PG=C01 [X(C4H6)]\\@

 Normal termination of Gaussian 09 at Wed Aug 26 10:37:20 2020.
