 Gaussian 09, Revision D.01,
 Gaussian 09:  ES64L-G09RevD.01 24-Apr-2013

 --------------------
 #p B2PLYPD3/Def2QZVP
 --------------------

 ---------
 butadiene
 ---------
 Symbolic Z-matrix:
 Charge =  0 Multiplicity = 1

                         Standard orientation:
 ---------------------------------------------------------------------
 Center     Atomic      Atomic             Coordinates (Angstroms)
 Number     Number       Type             X           Y           Z
 ---------------------------------------------------------------------
      1          6           0       -1.848474    0.062217    0.044062
      2          6           0       -0.574602   -0.362872   -0.046215
      3          6           0        0.606320    0.481826   -0.059831
      4          6           0        1.813581   -0.170491    0.081561
      5          1           0       -2.597041   -0.587879   -0.166332
      6          1           0       -2.064534    1.107960    0.288350
      7          1           0       -0.367887   -1.428365   -0.071176
      8          1           0        0.491907    1.517037   -0.137750
      9          1           0        1.957881   -1.215280    0.087641
     10          1           0        2.598729    0.542450   -0.118196
 ---------------------------------------------------------------------

 SCF Done:  E(RB2PLYPD3) =  -155.679726973     A.U. after   12 cycles
 E2(B2PLYPD3) =    -0.2271603830D+00 E(B2PLYPD3) =    -0.15590688735557D+03

 The electronic state is 1-A.
 Alpha  occ. eigenvalues --  -10.62798 -10.62203 -10.61876 -10.60680  -0.92847
 Alpha  occ. eigenvalues --   -0.84535  -0.70563  -0.64878  -0.54600  -0.53854
 Alpha  occ. eigenvalues --   -0.48629  -0.44523  -0.41976  -0.37019  -0.26925
 Alpha virt. eigenvalues --    0.00923   0.07071   0.07468   0.08063   0.09144
 Alpha virt. eigenvalues --    0.11901   0.12298   0.15154   0.15374   0.16214
 Alpha virt. eigenvalues --    0.18944   0.20043   0.21129   0.22638   0.24365

 Mulliken charges:
               1
     1  C   -0.198681
     2  C   -0.019960
     3  C   -0.051568
     4  C   -0.171593
     5  H    0.092659
     6  H    0.066335
     7  H    0.054134
     8  H    0.073405
     9  H    0.082597
    10  H    0.072671
 Sum of Mulliken charges =   0.00000

 Dipole moment (field-independent basis, Debye):
    X=              0.0605    Y=              0.0073    Z=             -0.1849  Tot=              0.1947
 Quadrupole moment (field-independent basis, Debye-Ang):
   XX=            -24.6078   YY=            -22.6253   ZZ=            -29.1871
   XY=             -0.3880   XZ=             -0.2998   YZ=              0.1376

 1\1\GINC-NODE28\SP\RB2PLYPD3-FC\def2QZVP\C4H6\BOITTIER\26-Aug-2020\0\\
 #p B2PLYPD3/Def2QZVP\\butadiene\\0,1\C,0,-3.856274,0.193673,0.067235\C
 ,0,-2.685466,-0.465563,-0.011612\C,0,-1.36726,0.141654,-0.055186\C,0,-
 0.302612,-0.7208,0.105075\H,0,-4.715129,-0.310747,-0.120302\H,0,-3.870
 451,1.268603,0.277617\H,0,-2.682398,-1.551164,-0.002121\H,0,-1.286175,
 1.176939,-0.166695\H,0,-0.356717,-1.773377,0.145038\H,0,0.600644,-0.17
 4572,-0.119447\\Version=ES64L-G09RevD.01\State=1-A\HF=-155.679727\MP2=
 -155.9068874\RMSD=4.125e-09\PG=C01 [X(C4H6)]\\@

 Normal termination of Gaussian 09 at Wed Aug 26 13:00:48 2020.
