 Gaussian 09, Revision D.01,
 Gaussian 09:  ES64L-G09RevD.01 24-Apr-2013

 --------------------
 #p B2PLYPD3/Def2QZVP
 --------------------

 ---------
 butadiene
 ---------
 Symbolic Z-matrix:
 Charge =  0 Multiplicity = 1

                         Standard orientation:
 ---------------------------------------------------------------------
 Center     Atomic      Atomic             Coordinates (Angstroms)
 Number     Number       Type             X           Y           Z
 ---------------------------------------------------------------------
      1          6           0       -1.823440   -0.156606    0.028144
      2          6           0       -0.618957    0.451132   -0.049120
      3          6           0        0.595398   -0.361717    0.004281
      4          6           0        1.849194    0.082361   -0.012652
      5          1           0       -2.683894    0.535856    0.168795
      6          1           0       -2.045305   -1.191891   -0.076665
      7          1           0       -0.538808    1.479568   -0.023737
      8          1           0        0.460704   -1.442000   -0.109562
      9          1           0        2.116574    1.087243   -0.004936
     10          1           0        2.677564   -0.559798    0.222191
 ---------------------------------------------------------------------

 SCF Done:  E(RB2PLYPD3) =  -155.688701386     A.U. after   11 cycles
 E2(B2PLYPD3) =    -0.2259552195D+00 E(B2PLYPD3) =    -0.15591465660565D+03

 The electronic state is 1-A.
 Alpha  occ. eigenvalues --  -10.62511 -10.62456 -10.62068 -10.60566  -0.92890
 Alpha  occ. eigenvalues --   -0.84936  -0.70351  -0.65008  -0.54675  -0.54061
 Alpha  occ. eigenvalues --   -0.47483  -0.45129  -0.41480  -0.37458  -0.27492
 Alpha virt. eigenvalues --    0.01487   0.06939   0.07609   0.08068   0.09163
 Alpha virt. eigenvalues --    0.11666   0.12453   0.14994   0.15413   0.16432
 Alpha virt. eigenvalues --    0.18865   0.19654   0.21979   0.23152   0.23877

 Mulliken charges:
               1
     1  C   -0.169371
     2  C   -0.055546
     3  C   -0.027491
     4  C   -0.172850
     5  H    0.069406
     6  H    0.083867
     7  H    0.075993
     8  H    0.061128
     9  H    0.059281
    10  H    0.075584
 Sum of Mulliken charges =   0.00000

 Dipole moment (field-independent basis, Debye):
    X=             -0.1122    Y=              0.0450    Z=              0.1163  Tot=              0.1678
 Quadrupole moment (field-independent basis, Debye-Ang):
   XX=            -23.7735   YY=            -22.9562   ZZ=            -29.1205
   XY=              0.4908   XZ=              0.2726   YZ=              0.1813

 1\1\GINC-NODE10\SP\RB2PLYPD3-FC\def2QZVP\C4H6\BOITTIER\26-Aug-2020\0\\
 #p B2PLYPD3/Def2QZVP\\butadiene\\0,1\C,0,-3.816814,0.268891,-0.008319\
 C,0,-2.741525,-0.544837,0.079403\C,0,-1.400611,0.034276,0.010038\C,0,-
 0.24752,-0.62851,0.034359\H,0,-4.788696,-0.259264,-0.135459\H,0,-3.847
 719,1.328951,0.077359\H,0,-2.848448,-1.57113,0.073108\H,0,-1.337618,1.
 123012,0.10385\H,0,-0.165966,-1.665125,0.04516\H,0,0.682207,-0.150856,
 -0.212971\\Version=ES64L-G09RevD.01\State=1-A\HF=-155.6887014\MP2=-155
 .9146566\RMSD=7.861e-09\PG=C01 [X(C4H6)]\\@

 Normal termination of Gaussian 09 at Wed Aug 26 13:49:39 2020.
