 Gaussian 09, Revision D.01,
 Gaussian 09:  ES64L-G09RevD.01 24-Apr-2013

 --------------------
 #p B2PLYPD3/Def2QZVP
 --------------------

 ---------
 butadiene
 ---------
 Symbolic Z-matrix:
 Charge =  0 Multiplicity = 1

                         Standard orientation:
 ---------------------------------------------------------------------
 Center     Atomic      Atomic             Coordinates (Angstroms)
 Number     Number       Type             X           Y           Z
 ---------------------------------------------------------------------
      1          6           0       -1.830932   -0.123212    0.003311
      2          6           0       -0.601308    0.421299   -0.009672
      3          6           0        0.590668   -0.389411   -0.034713
      4          6           0        1.832967    0.100383    0.011139
      5          1           0       -2.730355    0.505760    0.058814
      6          1           0       -1.962295   -1.189049    0.039461
      7          1           0       -0.461482    1.506570   -0.020780
      8          1           0        0.470438   -1.468388    0.010699
      9          1           0        2.054079    1.128526    0.031470
     10          1           0        2.681244   -0.537768    0.059953
 ---------------------------------------------------------------------

 SCF Done:  E(RB2PLYPD3) =  -155.699520247     A.U. after   11 cycles
 E2(B2PLYPD3) =    -0.2258162397D+00 E(B2PLYPD3) =    -0.15592533648636D+03

 The electronic state is 1-A.
 Alpha  occ. eigenvalues --  -10.62717 -10.62383 -10.61768 -10.60874  -0.93107
 Alpha  occ. eigenvalues --   -0.84796  -0.70412  -0.64282  -0.54587  -0.54178
 Alpha  occ. eigenvalues --   -0.46437  -0.45792  -0.41438  -0.38199  -0.27453
 Alpha virt. eigenvalues --    0.01605   0.07025   0.07426   0.08059   0.09527
 Alpha virt. eigenvalues --    0.11703   0.12511   0.14854   0.15810   0.16239
 Alpha virt. eigenvalues --    0.18729   0.20400   0.21951   0.22872   0.23850

 Mulliken charges:
               1
     1  C   -0.174637
     2  C   -0.035094
     3  C   -0.022827
     4  C   -0.178807
     5  H    0.083482
     6  H    0.069026
     7  H    0.057525
     8  H    0.054212
     9  H    0.065282
    10  H    0.081836
 Sum of Mulliken charges =   0.00000

 Dipole moment (field-independent basis, Debye):
    X=              0.0165    Y=              0.0133    Z=              0.1352  Tot=              0.1369
 Quadrupole moment (field-independent basis, Debye-Ang):
   XX=            -23.5145   YY=            -23.0388   ZZ=            -29.2535
   XY=              0.2449   XZ=              0.0219   YZ=             -0.0688

 1\1\GINC-NODE01\SP\RB2PLYPD3-FC\def2QZVP\C4H6\BOITTIER\26-Aug-2020\0\\
 #p B2PLYPD3/Def2QZVP\\butadiene\\0,1\C,0,-3.828663,0.240124,0.01038\C,
 0,-2.718774,-0.518556,0.044848\C,0,-1.398942,0.061724,0.04332\C,0,-0.2
 66897,-0.647567,0.017076\H,0,-4.827874,-0.215961,-0.024442\H,0,-3.7638
 12,1.310112,-0.063718\H,0,-2.778961,-1.610064,0.094622\H,0,-1.320794,1
 .14227,-0.040479\H,0,-0.236899,-1.698857,0.033555\H,0,0.683208,-0.1768
 08,-0.052771\\Version=ES64L-G09RevD.01\State=1-A\HF=-155.6995202\MP2=-
 155.9253365\RMSD=5.015e-09\PG=C01 [X(C4H6)]\\@

 Normal termination of Gaussian 09 at Wed Aug 26 16:15:23 2020.
