 Gaussian 09, Revision D.01,
 Gaussian 09:  ES64L-G09RevD.01 24-Apr-2013

 --------------------
 #p B2PLYPD3/Def2QZVP
 --------------------

 ---------
 butadiene
 ---------
 Symbolic Z-matrix:
 Charge =  0 Multiplicity = 1

                         Standard orientation:
 ---------------------------------------------------------------------
 Center     Atomic      Atomic             Coordinates (Angstroms)
 Number     Number       Type             X           Y           Z
 ---------------------------------------------------------------------
      1          6           0        1.834712    0.112133    0.012227
      2          6           0        0.603449   -0.416447   -0.007515
      3          6           0       -0.601998    0.399242   -0.028953
      4          6           0       -1.834283   -0.101366    0.027067
      5          1           0        2.744399   -0.499279    0.045607
      6          1           0        1.975348    1.191460   -0.003011
      7          1           0        0.483501   -1.471731   -0.031315
      8          1           0       -0.458679    1.469080   -0.028193
      9          1           0       -2.052689   -1.164567   -0.047982
     10          1           0       -2.703155    0.513665    0.047937
 ---------------------------------------------------------------------

 SCF Done:  E(RB2PLYPD3) =  -155.700205366     A.U. after   11 cycles
 E2(B2PLYPD3) =    -0.2255991223D+00 E(B2PLYPD3) =    -0.15592580448801D+03

 The electronic state is 1-A.
 Alpha  occ. eigenvalues --  -10.62486 -10.62371 -10.61779 -10.61288  -0.93013
 Alpha  occ. eigenvalues --   -0.84834  -0.70134  -0.64476  -0.54766  -0.53821
 Alpha  occ. eigenvalues --   -0.46864  -0.45424  -0.41279  -0.38070  -0.27649
 Alpha virt. eigenvalues --    0.01769   0.07015   0.07444   0.08125   0.09472
 Alpha virt. eigenvalues --    0.11652   0.12521   0.14690   0.15896   0.16254
 Alpha virt. eigenvalues --    0.18830   0.20442   0.21801   0.22932   0.23693

 Mulliken charges:
               1
     1  C   -0.173596
     2  C   -0.033333
     3  C   -0.032902
     4  C   -0.171721
     5  H    0.083684
     6  H    0.063456
     7  H    0.062049
     8  H    0.057616
     9  H    0.063137
    10  H    0.081610
 Sum of Mulliken charges =   0.00000

 Dipole moment (field-independent basis, Debye):
    X=             -0.0129    Y=             -0.0107    Z=             -0.0457  Tot=              0.0487
 Quadrupole moment (field-independent basis, Debye-Ang):
   XX=            -23.3669   YY=            -23.1232   ZZ=            -29.2501
   XY=              0.2074   XZ=              0.0788   YZ=              0.0718

 1\1\GINC-NODE31\SP\RB2PLYPD3-FC\def2QZVP\C4H6\BOITTIER\26-Aug-2020\0\\
 #p B2PLYPD3/Def2QZVP\\butadiene\\0,1\C,0,-3.835552,0.22875,0.004096\C,
 0,-2.720777,-0.513787,0.045451\C,0,-1.387105,0.069494,0.041883\C,0,-0.
 266518,-0.648357,0.006556\H,0,-4.841313,-0.207942,-0.010546\H,0,-3.777
 658,1.315534,-0.018428\H,0,-2.794504,-1.571835,0.106101\H,0,-1.333632,
 1.146887,0.003692\H,0,-0.244678,-1.730307,0.118964\H,0,0.699568,-0.202
 565,-0.033254\\Version=ES64L-G09RevD.01\State=1-A\HF=-155.7002054\MP2=
 -155.9258045\RMSD=4.045e-09\PG=C01 [X(C4H6)]\\@

 Normal termination of Gaussian 09 at Wed Aug 26 16:14:43 2020.
