 Gaussian 09, Revision D.01,
 Gaussian 09:  ES64L-G09RevD.01 24-Apr-2013

 --------------------
 #p B2PLYPD3/Def2QZVP
 --------------------

 ---------
 butadiene
 ---------
 Symbolic Z-matrix:
 Charge =  0 Multiplicity = 1

                         Standard orientation:
 ---------------------------------------------------------------------
 Center     Atomic      Atomic             Coordinates (Angstroms)
 Number     Number       Type             X           Y           Z
 ---------------------------------------------------------------------
      1          6           0        1.827348   -0.117743    0.000897
      2          6           0        0.608691    0.422128   -0.016224
      3          6           0       -0.596531   -0.399304   -0.020757
      4          6           0       -1.837675    0.110709    0.008496
      5          1           0        2.716229    0.497410    0.037133
      6          1           0        1.947211   -1.205991    0.047763
      7          1           0        0.473846    1.491960    0.043282
      8          1           0       -0.444461   -1.451611   -0.015532
      9          1           0       -2.039136    1.141482   -0.018487
     10          1           0       -2.664689   -0.567989    0.071369
 ---------------------------------------------------------------------

 SCF Done:  E(RB2PLYPD3) =  -155.699881639     A.U. after   11 cycles
 E2(B2PLYPD3) =    -0.2255217561D+00 E(B2PLYPD3) =    -0.15592540339489D+03

 The electronic state is 1-A.
 Alpha  occ. eigenvalues --  -10.62387 -10.62302 -10.61572 -10.61048  -0.93001
 Alpha  occ. eigenvalues --   -0.84882  -0.70132  -0.64535  -0.54515  -0.54139
 Alpha  occ. eigenvalues --   -0.46594  -0.46084  -0.41365  -0.37996  -0.27575
 Alpha virt. eigenvalues --    0.01828   0.07029   0.07447   0.08154   0.09415
 Alpha virt. eigenvalues --    0.11778   0.12435   0.14808   0.15787   0.16166
 Alpha virt. eigenvalues --    0.18703   0.20433   0.21677   0.23117   0.24064

 Mulliken charges:
               1
     1  C   -0.174568
     2  C   -0.032732
     3  C   -0.031107
     4  C   -0.183218
     5  H    0.085178
     6  H    0.063790
     7  H    0.057797
     8  H    0.058951
     9  H    0.073052
    10  H    0.082855
 Sum of Mulliken charges =   0.00000

 Dipole moment (field-independent basis, Debye):
    X=              0.0164    Y=              0.0200    Z=              0.1251  Tot=              0.1278
 Quadrupole moment (field-independent basis, Debye-Ang):
   XX=            -23.7190   YY=            -22.9259   ZZ=            -29.2368
   XY=             -0.2036   XZ=              0.0665   YZ=             -0.0407

 1\1\GINC-NODE39\SP\RB2PLYPD3-FC\def2QZVP\C4H6\BOITTIER\26-Aug-2020\0\\
 #p B2PLYPD3/Def2QZVP\\butadiene\\0,1\C,0,-3.827153,0.233912,0.023523\C
 ,0,-2.726723,-0.518373,0.022505\C,0,-1.392512,0.070325,-0.002892\C,0,-
 0.264378,-0.655441,0.041664\H,0,-4.812735,-0.208551,0.075387\H,0,-3.74
 7437,1.326705,0.040693\H,0,-2.787965,-1.59292,0.111185\H,0,-1.351145,1
 .132511,-0.026409\H,0,-0.253349,-1.706005,0.042906\H,0,0.672264,-0.136
 619,0.087074\\Version=ES64L-G09RevD.01\State=1-A\HF=-155.6998816\MP2=-
 155.9254034\RMSD=5.415e-09\PG=C01 [X(C4H6)]\\@

 Normal termination of Gaussian 09 at Wed Aug 26 20:24:12 2020.
