 Gaussian 09, Revision D.01,
 Gaussian 09:  ES64L-G09RevD.01 24-Apr-2013

 --------------------
 #p B2PLYPD3/Def2QZVP
 --------------------

 ---------
 butadiene
 ---------
 Symbolic Z-matrix:
 Charge =  0 Multiplicity = 1

                         Standard orientation:
 ---------------------------------------------------------------------
 Center     Atomic      Atomic             Coordinates (Angstroms)
 Number     Number       Type             X           Y           Z
 ---------------------------------------------------------------------
      1          6           0        1.836829   -0.122005    0.007036
      2          6           0        0.606750    0.412751   -0.023920
      3          6           0       -0.603048   -0.396172   -0.012855
      4          6           0       -1.843876    0.104668    0.017827
      5          1           0        2.702191    0.535636    0.012564
      6          1           0        1.992420   -1.190427    0.115707
      7          1           0        0.502369    1.518373   -0.032427
      8          1           0       -0.428066   -1.475357   -0.086152
      9          1           0       -2.045845    1.160359    0.064181
     10          1           0       -2.703003   -0.544036   -0.002398
 ---------------------------------------------------------------------

 SCF Done:  E(RB2PLYPD3) =  -155.699832342     A.U. after   11 cycles
 E2(B2PLYPD3) =    -0.2261099605D+00 E(B2PLYPD3) =    -0.15592594230290D+03

 The electronic state is 1-A.
 Alpha  occ. eigenvalues --  -10.62851 -10.62736 -10.61676 -10.61460  -0.92804
 Alpha  occ. eigenvalues --   -0.84761  -0.70119  -0.63742  -0.54409  -0.53883
 Alpha  occ. eigenvalues --   -0.46424  -0.45767  -0.41078  -0.38011  -0.27597
 Alpha virt. eigenvalues --    0.01651   0.07020   0.07321   0.08007   0.09473
 Alpha virt. eigenvalues --    0.11683   0.12355   0.14786   0.15766   0.16119
 Alpha virt. eigenvalues --    0.18752   0.20461   0.21582   0.22838   0.23695

 Mulliken charges:
               1
     1  C   -0.177764
     2  C   -0.028642
     3  C   -0.031388
     4  C   -0.177246
     5  H    0.084994
     6  H    0.068176
     7  H    0.052275
     8  H    0.055268
     9  H    0.069135
    10  H    0.085193
 Sum of Mulliken charges =   0.00000

 Dipole moment (field-independent basis, Debye):
    X=             -0.0012    Y=              0.0167    Z=              0.0506  Tot=              0.0533
 Quadrupole moment (field-independent basis, Debye-Ang):
   XX=            -23.6045   YY=            -23.0233   ZZ=            -29.3355
   XY=             -0.2217   XZ=              0.1850   YZ=              0.0158

 1\1\GINC-NODE32\SP\RB2PLYPD3-FC\def2QZVP\C4H6\BOITTIER\26-Aug-2020\0\\
 #p B2PLYPD3/Def2QZVP\\butadiene\\0,1\C,0,-3.836906,0.237085,0.028282\C
 ,0,-2.723898,-0.511929,0.013913\C,0,-1.387787,0.064904,0.001279\C,0,-0
 .25777,-0.65089,0.047509\H,0,-4.806834,-0.25281,0.053123\H,0,-3.796299
 ,1.318767,0.104825\H,0,-2.821096,-1.617964,0.038581\H,0,-1.365211,1.15
 5296,-0.104396\H,0,-0.249691,-1.72386,0.125561\H,0,0.704338,-0.169088,
 0.008242\\Version=ES64L-G09RevD.01\State=1-A\HF=-155.6998323\MP2=-155.
 9259423\RMSD=2.856e-09\PG=C01 [X(C4H6)]\\@

 Normal termination of Gaussian 09 at Wed Aug 26 09:18:50 2020.
