 Gaussian 09, Revision D.01,
 Gaussian 09:  ES64L-G09RevD.01 24-Apr-2013

 --------------------
 #p B2PLYPD3/Def2QZVP
 --------------------

 ---------
 butadiene
 ---------
 Symbolic Z-matrix:
 Charge =  0 Multiplicity = 1

                         Standard orientation:
 ---------------------------------------------------------------------
 Center     Atomic      Atomic             Coordinates (Angstroms)
 Number     Number       Type             X           Y           Z
 ---------------------------------------------------------------------
      1          6           0       -1.849415    0.088812   -0.001449
      2          6           0       -0.611446   -0.328699   -0.008708
      3          6           0        0.591359    0.392062   -0.030564
      4          6           0        1.863969   -0.126074    0.013610
      5          1           0       -2.591751   -0.596936   -0.121422
      6          1           0       -2.115662    1.059411    0.290748
      7          1           0       -0.582201   -1.423450   -0.030875
      8          1           0        0.467095    1.500588   -0.106774
      9          1           0        2.020911   -1.150935    0.160681
     10          1           0        2.834810    0.454717   -0.029697
 ---------------------------------------------------------------------

 SCF Done:  E(RB2PLYPD3) =  -155.681322872     A.U. after   11 cycles
 E2(B2PLYPD3) =    -0.2263105850D+00 E(B2PLYPD3) =    -0.15590763345730D+03

 The electronic state is 1-A.
 Alpha  occ. eigenvalues --  -10.63354 -10.62589 -10.61727 -10.60023  -0.93669
 Alpha  occ. eigenvalues --   -0.85194  -0.71656  -0.63746  -0.55590  -0.54098
 Alpha  occ. eigenvalues --   -0.47431  -0.45415  -0.40853  -0.38255  -0.27270
 Alpha virt. eigenvalues --    0.00667   0.06957   0.07675   0.07833   0.10039
 Alpha virt. eigenvalues --    0.11564   0.12452   0.15021   0.15902   0.16456
 Alpha virt. eigenvalues --    0.18679   0.20329   0.21702   0.22335   0.23812

 Mulliken charges:
               1
     1  C   -0.175613
     2  C   -0.007144
     3  C   -0.044641
     4  C   -0.168715
     5  H    0.082716
     6  H    0.067841
     7  H    0.039020
     8  H    0.053156
     9  H    0.070347
    10  H    0.083034
 Sum of Mulliken charges =   0.00000

 Dipole moment (field-independent basis, Debye):
    X=             -0.0070    Y=             -0.0806    Z=              0.1627  Tot=              0.1817
 Quadrupole moment (field-independent basis, Debye-Ang):
   XX=            -22.9528   YY=            -23.5901   ZZ=            -29.0049
   XY=             -0.0478   XZ=             -0.0783   YZ=              0.0948

 1\1\GINC-NODE31\SP\RB2PLYPD3-FC\def2QZVP\C4H6\BOITTIER\26-Aug-2020\0\\
 #p B2PLYPD3/Def2QZVP\\butadiene\\0,1\C,0,-3.855882,0.200389,0.022195\C
 ,0,-2.712378,-0.43152,0.027236\C,0,-1.40033,0.061996,-0.013844\C,0,-0.
 240481,-0.673661,0.045417\H,0,-4.709229,-0.344796,-0.079194\H,0,-3.943
 304,1.210552,0.287253\H,0,-2.879135,-1.514087,0.035399\H,0,-1.325033,1
 .172389,-0.120785\H,0,-0.268381,-1.705664,0.220895\H,0,0.81825,-0.2769
 77,-0.01337\\Version=ES64L-G09RevD.01\State=1-A\HF=-155.6813229\MP2=-1
 55.9076335\RMSD=9.433e-09\PG=C01 [X(C4H6)]\\@

 Normal termination of Gaussian 09 at Wed Aug 26 15:57:47 2020.
