 Gaussian 09, Revision D.01,
 Gaussian 09:  ES64L-G09RevD.01 24-Apr-2013

 --------------------
 #p B2PLYPD3/Def2QZVP
 --------------------

 ---------
 butadiene
 ---------
 Symbolic Z-matrix:
 Charge =  0 Multiplicity = 1

                         Standard orientation:
 ---------------------------------------------------------------------
 Center     Atomic      Atomic             Coordinates (Angstroms)
 Number     Number       Type             X           Y           Z
 ---------------------------------------------------------------------
      1          6           0        1.866000    0.090217    0.034120
      2          6           0        0.617893   -0.353870   -0.038386
      3          6           0       -0.640590    0.407067   -0.057335
      4          6           0       -1.888674   -0.124022    0.036803
      5          1           0        2.662518   -0.597028   -0.088750
      6          1           0        2.080702    1.196992    0.339295
      7          1           0        0.563578   -1.435197   -0.119856
      8          1           0       -0.435098    1.499518   -0.243649
      9          1           0       -1.847611   -1.246214    0.187053
     10          1           0       -2.751862    0.465579    0.074695
 ---------------------------------------------------------------------

 SCF Done:  E(RB2PLYPD3) =  -155.682440683     A.U. after   11 cycles
 E2(B2PLYPD3) =    -0.2272652924D+00 E(B2PLYPD3) =    -0.15590970597586D+03

 The electronic state is 1-A.
 Alpha  occ. eigenvalues --  -10.63692 -10.62515 -10.62481 -10.62105  -0.92498
 Alpha  occ. eigenvalues --   -0.85021  -0.70168  -0.62679  -0.55125  -0.53084
 Alpha  occ. eigenvalues --   -0.47297  -0.44847  -0.40326  -0.37497  -0.27857
 Alpha virt. eigenvalues --    0.01216   0.07042   0.07260   0.07868   0.09426
 Alpha virt. eigenvalues --    0.11578   0.12112   0.14461   0.15324   0.16337
 Alpha virt. eigenvalues --    0.18833   0.19470   0.21050   0.21652   0.24044

 Mulliken charges:
               1
     1  C   -0.183687
     2  C   -0.016862
     3  C   -0.042356
     4  C   -0.176199
     5  H    0.092126
     6  H    0.063021
     7  H    0.041580
     8  H    0.051540
     9  H    0.065891
    10  H    0.104946
 Sum of Mulliken charges =   0.00000

 Dipole moment (field-independent basis, Debye):
    X=             -0.0094    Y=             -0.0412    Z=              0.0853  Tot=              0.0952
 Quadrupole moment (field-independent basis, Debye-Ang):
   XX=            -23.5771   YY=            -23.4984   ZZ=            -29.2972
   XY=             -0.4623   XZ=             -0.1387   YZ=              0.1248

 1\1\GINC-NODE34\SP\RB2PLYPD3-FC\def2QZVP\C4H6\BOITTIER\26-Aug-2020\0\\
 #p B2PLYPD3/Def2QZVP\\butadiene\\0,1\C,0,-3.880178,0.194357,-0.016737\
 C,0,-2.727388,-0.456437,0.07148\C,0,-1.356239,0.075644,0.069216\C,0,-0
 .219117,-0.665881,-0.006463\H,0,-4.783066,-0.340731,0.125803\H,0,-3.90
 1407,1.311752,-0.356085\H,0,-2.860542,-1.527871,0.186175\H,0,-1.369088
 ,1.192339,0.22158\H,0,-0.45412,-1.768122,-0.122287\H,0,0.732863,-0.235
 856,-0.060957\\Version=ES64L-G09RevD.01\State=1-A\HF=-155.6824407\MP2=
 -155.909706\RMSD=8.050e-09\PG=C01 [X(C4H6)]\\@

 Normal termination of Gaussian 09 at Wed Aug 26 15:04:08 2020.
