 Gaussian 09, Revision D.01,
 Gaussian 09:  ES64L-G09RevD.01 24-Apr-2013

 --------------------
 #p B2PLYPD3/Def2QZVP
 --------------------

 ---------
 butadiene
 ---------
 Symbolic Z-matrix:
 Charge =  0 Multiplicity = 1

                         Standard orientation:
 ---------------------------------------------------------------------
 Center     Atomic      Atomic             Coordinates (Angstroms)
 Number     Number       Type             X           Y           Z
 ---------------------------------------------------------------------
      1          6           0       -1.828178    0.121820   -0.039946
      2          6           0       -0.614424   -0.420500    0.006418
      3          6           0        0.592856    0.402162    0.045310
      4          6           0        1.837641   -0.115672   -0.024540
      5          1           0       -2.749199   -0.479363   -0.012637
      6          1           0       -1.851422    1.194524    0.025793
      7          1           0       -0.460939   -1.495986    0.119282
      8          1           0        0.488805    1.499407    0.048158
      9          1           0        1.967325   -1.168719   -0.025320
     10          1           0        2.678059    0.523280   -0.078731
 ---------------------------------------------------------------------

 SCF Done:  E(RB2PLYPD3) =  -155.696895807     A.U. after   11 cycles
 E2(B2PLYPD3) =    -0.2261079731D+00 E(B2PLYPD3) =    -0.15592300378038D+03

 The electronic state is 1-A.
 Alpha  occ. eigenvalues --  -10.62835 -10.62584 -10.61532 -10.61118  -0.92948
 Alpha  occ. eigenvalues --   -0.84901  -0.69833  -0.64070  -0.54373  -0.54176
 Alpha  occ. eigenvalues --   -0.46384  -0.45722  -0.41625  -0.37850  -0.27574
 Alpha virt. eigenvalues --    0.01793   0.07077   0.07332   0.08065   0.09292
 Alpha virt. eigenvalues --    0.11734   0.12573   0.14588   0.15643   0.16229
 Alpha virt. eigenvalues --    0.18642   0.20196   0.21537   0.23028   0.24426

 Mulliken charges:
               1
     1  C   -0.173872
     2  C   -0.027972
     3  C   -0.029658
     4  C   -0.184051
     5  H    0.088317
     6  H    0.065331
     7  H    0.055516
     8  H    0.049143
     9  H    0.068069
    10  H    0.089179
 Sum of Mulliken charges =   0.00000

 Dipole moment (field-independent basis, Debye):
    X=              0.0041    Y=             -0.0204    Z=              0.1054  Tot=              0.1075
 Quadrupole moment (field-independent basis, Debye-Ang):
   XX=            -23.7225   YY=            -23.0322   ZZ=            -29.2991
   XY=              0.1168   XZ=             -0.3803   YZ=             -0.0834

 1\1\GINC-NODE03\SP\RB2PLYPD3-FC\def2QZVP\C4H6\BOITTIER\26-Aug-2020\0\\
 #p B2PLYPD3/Def2QZVP\\butadiene\\0,1\C,0,-3.828658,0.227406,-0.015752\
 C,0,-2.729317,-0.518751,0.048746\C,0,-1.395578,0.078649,0.056797\C,0,-
 0.262233,-0.652984,0.004245\H,0,-4.841071,-0.200357,0.0341\H,0,-3.6617
 92,1.288994,0.011471\H,0,-2.767159,-1.599799,0.199971\H,0,-1.304385,1.
 176437,0.020375\H,0,-0.320383,-1.71175,0.041119\H,0,0.677308,-0.174781
 ,-0.073742\\Version=ES64L-G09RevD.01\State=1-A\HF=-155.6968958\MP2=-15
 5.9230038\RMSD=7.132e-09\PG=C01 [X(C4H6)]\\@

 Normal termination of Gaussian 09 at Wed Aug 26 09:21:42 2020.
