 Gaussian 09, Revision D.01,
 Gaussian 09:  ES64L-G09RevD.01 24-Apr-2013

 --------------------
 #p B2PLYPD3/Def2QZVP
 --------------------

 ---------
 butadiene
 ---------
 Symbolic Z-matrix:
 Charge =  0 Multiplicity = 1

                         Standard orientation:
 ---------------------------------------------------------------------
 Center     Atomic      Atomic             Coordinates (Angstroms)
 Number     Number       Type             X           Y           Z
 ---------------------------------------------------------------------
      1          6           0       -1.847516   -0.106971   -0.017138
      2          6           0       -0.608167    0.385959    0.020992
      3          6           0        0.611244   -0.403325    0.016214
      4          6           0        1.845031    0.114255   -0.030378
      5          1           0       -2.666984    0.570669   -0.043268
      6          1           0       -2.035754   -1.167182   -0.034978
      7          1           0       -0.471382    1.482564    0.085456
      8          1           0        0.425021   -1.463968    0.066637
      9          1           0        2.014234    1.171173   -0.030056
     10          1           0        2.731316   -0.532763    0.018066
 ---------------------------------------------------------------------

 SCF Done:  E(RB2PLYPD3) =  -155.699772600     A.U. after   11 cycles
 E2(B2PLYPD3) =    -0.2257561620D+00 E(B2PLYPD3) =    -0.15592552876208D+03

 The electronic state is 1-A.
 Alpha  occ. eigenvalues --  -10.62591 -10.62527 -10.61747 -10.61267  -0.92946
 Alpha  occ. eigenvalues --   -0.84949  -0.70422  -0.63906  -0.54567  -0.53938
 Alpha  occ. eigenvalues --   -0.46978  -0.45844  -0.40899  -0.38001  -0.27717
 Alpha virt. eigenvalues --    0.01623   0.06994   0.07405   0.08068   0.09694
 Alpha virt. eigenvalues --    0.11709   0.12350   0.14840   0.15810   0.15997
 Alpha virt. eigenvalues --    0.18803   0.20474   0.21613   0.22709   0.23884

 Mulliken charges:
               1
     1  C   -0.184093
     2  C   -0.020474
     3  C   -0.034821
     4  C   -0.173836
     5  H    0.089484
     6  H    0.067456
     7  H    0.046550
     8  H    0.055210
     9  H    0.070071
    10  H    0.084452
 Sum of Mulliken charges =   0.00000

 Dipole moment (field-independent basis, Debye):
    X=             -0.0009    Y=              0.0024    Z=              0.0772  Tot=              0.0773
 Quadrupole moment (field-independent basis, Debye-Ang):
   XX=            -23.5177   YY=            -23.1052   ZZ=            -29.2716
   XY=              0.2641   XZ=              0.1947   YZ=             -0.0208

 1\1\GINC-NODE35\SP\RB2PLYPD3-FC\def2QZVP\C4H6\BOITTIER\26-Aug-2020\0\\
 #p B2PLYPD3/Def2QZVP\\butadiene\\0,1\C,0,-3.849919,0.224371,0.036471\C
 ,0,-2.720567,-0.485882,0.013576\C,0,-1.378353,0.069164,-0.004848\C,0,-
 0.258506,-0.66181,0.057677\H,0,-4.778432,-0.292488,0.082591\H,0,-3.842
 911,1.301197,0.022474\H,0,-2.785006,-1.590536,-0.017958\H,0,-1.36963,1
 .144034,-0.08709\H,0,-0.283549,-1.731432,0.089079\H,0,0.730059,-0.1878
 19,-0.009805\\Version=ES64L-G09RevD.01\State=1-A\HF=-155.6997726\MP2=-
 155.9255288\RMSD=4.544e-09\PG=C01 [X(C4H6)]\\@

 Normal termination of Gaussian 09 at Wed Aug 26 18:00:01 2020.
