 Gaussian 09, Revision D.01,
 Gaussian 09:  ES64L-G09RevD.01 24-Apr-2013

 --------------------
 #p B2PLYPD3/Def2QZVP
 --------------------

 ---------
 butadiene
 ---------
 Symbolic Z-matrix:
 Charge =  0 Multiplicity = 1

                         Standard orientation:
 ---------------------------------------------------------------------
 Center     Atomic      Atomic             Coordinates (Angstroms)
 Number     Number       Type             X           Y           Z
 ---------------------------------------------------------------------
      1          6           0       -1.835295   -0.113573   -0.019377
      2          6           0       -0.594271    0.402564    0.020397
      3          6           0        0.613518   -0.374194    0.032336
      4          6           0        1.835485    0.092237   -0.029140
      5          1           0       -2.705354    0.484171   -0.013430
      6          1           0       -2.029037   -1.166979   -0.172019
      7          1           0       -0.529256    1.463447    0.107662
      8          1           0        0.413908   -1.434997    0.199321
      9          1           0        2.022886    1.167036   -0.070266
     10          1           0        2.710236   -0.554882   -0.076567
 ---------------------------------------------------------------------

 SCF Done:  E(RB2PLYPD3) =  -155.697575317     A.U. after   11 cycles
 E2(B2PLYPD3) =    -0.2253035108D+00 E(B2PLYPD3) =    -0.15592287882777D+03

 The electronic state is 1-A.
 Alpha  occ. eigenvalues --  -10.62278 -10.62099 -10.61408 -10.61332  -0.93405
 Alpha  occ. eigenvalues --   -0.85175  -0.70656  -0.64117  -0.55077  -0.53956
 Alpha  occ. eigenvalues --   -0.47273  -0.45387  -0.41107  -0.38025  -0.27811
 Alpha virt. eigenvalues --    0.01667   0.07070   0.07511   0.08044   0.09762
 Alpha virt. eigenvalues --    0.11638   0.12496   0.14788   0.15571   0.16352
 Alpha virt. eigenvalues --    0.18840   0.20261   0.21683   0.22663   0.23609

 Mulliken charges:
               1
     1  C   -0.176985
     2  C   -0.032126
     3  C   -0.028566
     4  C   -0.172976
     5  H    0.083296
     6  H    0.062008
     7  H    0.056256
     8  H    0.057302
     9  H    0.064643
    10  H    0.087146
 Sum of Mulliken charges =   0.00000

 Dipole moment (field-independent basis, Debye):
    X=             -0.0150    Y=              0.0265    Z=              0.0008  Tot=              0.0305
 Quadrupole moment (field-independent basis, Debye-Ang):
   XX=            -23.2188   YY=            -23.3499   ZZ=            -29.0616
   XY=              0.1643   XZ=              0.0405   YZ=              0.0757

 1\1\GINC-NODE32\SP\RB2PLYPD3-FC\def2QZVP\C4H6\BOITTIER\26-Aug-2020\0\\
 #p B2PLYPD3/Def2QZVP\\butadiene\\0,1\C,0,-3.838059,0.23219,0.038425\C,
 0,-2.711951,-0.502231,0.013391\C,0,-1.382926,0.040947,-0.016647\C,0,-0
 .266166,-0.638594,0.058251\H,0,-4.802457,-0.197004,0.046489\H,0,-3.836
 172,1.306766,0.164048\H,0,-2.841555,-1.55906,-0.046857\H,0,-1.386524,1
 .115817,-0.210743\H,0,-0.27754,-1.728166,0.126867\H,0,0.711977,-0.1606
 78,0.090408\\Version=ES64L-G09RevD.01\State=1-A\HF=-155.6975753\MP2=-1
 55.9228788\RMSD=6.075e-09\PG=C01 [X(C4H6)]\\@

 Normal termination of Gaussian 09 at Wed Aug 26 09:51:51 2020.
