 Gaussian 09, Revision D.01,
 Gaussian 09:  ES64L-G09RevD.01 24-Apr-2013

 --------------------
 #p B2PLYPD3/Def2QZVP
 --------------------

 ---------
 butadiene
 ---------
 Symbolic Z-matrix:
 Charge =  0 Multiplicity = 1

                         Standard orientation:
 ---------------------------------------------------------------------
 Center     Atomic      Atomic             Coordinates (Angstroms)
 Number     Number       Type             X           Y           Z
 ---------------------------------------------------------------------
      1          6           0        1.836373    0.056991   -0.079162
      2          6           0        0.584650   -0.368056    0.083669
      3          6           0       -0.617256    0.481066    0.035275
      4          6           0       -1.808585   -0.151537   -0.030903
      5          1           0        2.769857   -0.475551   -0.052335
      6          1           0        2.044566    1.130571   -0.145782
      7          1           0        0.437409   -1.521759    0.278974
      8          1           0       -0.471553    1.575904    0.233682
      9          1           0       -1.931332   -1.234860   -0.261086
     10          1           0       -2.820039    0.414918   -0.106726
 ---------------------------------------------------------------------

 SCF Done:  E(RB2PLYPD3) =  -155.679396709     A.U. after   12 cycles
 E2(B2PLYPD3) =    -0.2279857455D+00 E(B2PLYPD3) =    -0.15590738245442D+03

 The electronic state is 1-A.
 Alpha  occ. eigenvalues --  -10.63978 -10.63672 -10.63215 -10.61382  -0.92512
 Alpha  occ. eigenvalues --   -0.84296  -0.69341  -0.63108  -0.54357  -0.52629
 Alpha  occ. eigenvalues --   -0.47381  -0.43403  -0.40377  -0.37383  -0.27869
 Alpha virt. eigenvalues --    0.01637   0.06850   0.07074   0.07555   0.09034
 Alpha virt. eigenvalues --    0.11273   0.12526   0.14148   0.15456   0.16509
 Alpha virt. eigenvalues --    0.18639   0.19886   0.21988   0.22048   0.22958

 Mulliken charges:
               1
     1  C   -0.164942
     2  C   -0.030058
     3  C   -0.043840
     4  C   -0.158854
     5  H    0.085011
     6  H    0.045352
     7  H    0.051817
     8  H    0.074046
     9  H    0.072619
    10  H    0.068849
 Sum of Mulliken charges =   0.00000

 Dipole moment (field-independent basis, Debye):
    X=             -0.0119    Y=              0.0489    Z=              0.0344  Tot=              0.0609
 Quadrupole moment (field-independent basis, Debye-Ang):
   XX=            -23.3754   YY=            -23.4376   ZZ=            -29.3988
   XY=              0.4418   XZ=              0.3831   YZ=              0.1947

 1\1\GINC-NODE22\SP\RB2PLYPD3-FC\def2QZVP\C4H6\BOITTIER\26-Aug-2020\0\\
 #p B2PLYPD3/Def2QZVP\\butadiene\\0,1\C,0,-3.848909,0.176512,0.091586\C
 ,0,-2.69571,-0.476008,-0.043843\C,0,-1.359556,0.142436,-0.031679\C,0,-
 0.302436,-0.691627,0.071604\H,0,-4.863593,-0.178599,0.086594\H,0,-3.85
 868,1.272007,0.103913\H,0,-2.760946,-1.645529,-0.181026\H,0,-1.305122,
 1.23433,-0.284796\H,0,-0.377224,-1.766473,0.355774\H,0,0.795279,-0.314
 915,0.124233\\Version=ES64L-G09RevD.01\State=1-A\HF=-155.6793967\MP2=-
 155.9073825\RMSD=3.280e-09\PG=C01 [X(C4H6)]\\@

 Normal termination of Gaussian 09 at Wed Aug 26 12:23:37 2020.
