 Gaussian 09, Revision D.01,
 Gaussian 09:  ES64L-G09RevD.01 24-Apr-2013

 --------------------
 #p B2PLYPD3/Def2QZVP
 --------------------

 ---------
 butadiene
 ---------
 Symbolic Z-matrix:
 Charge =  0 Multiplicity = 1

                         Standard orientation:
 ---------------------------------------------------------------------
 Center     Atomic      Atomic             Coordinates (Angstroms)
 Number     Number       Type             X           Y           Z
 ---------------------------------------------------------------------
      1          6           0        1.850871    0.094642    0.030222
      2          6           0        0.595597   -0.364928   -0.053437
      3          6           0       -0.623460    0.408105   -0.069437
      4          6           0       -1.838754   -0.119375    0.051604
      5          1           0        2.666423   -0.620230    0.080789
      6          1           0        2.179521    1.147469    0.081320
      7          1           0        0.436063   -1.447635    0.025449
      8          1           0       -0.454235    1.474872   -0.021775
      9          1           0       -1.975954   -1.173899   -0.034240
     10          1           0       -2.757339    0.508758    0.114746
 ---------------------------------------------------------------------

 SCF Done:  E(RB2PLYPD3) =  -155.696185915     A.U. after   11 cycles
 E2(B2PLYPD3) =    -0.2261269110D+00 E(B2PLYPD3) =    -0.15592231282623D+03

 The electronic state is 1-A.
 Alpha  occ. eigenvalues --  -10.62672 -10.62403 -10.61926 -10.61852  -0.93101
 Alpha  occ. eigenvalues --   -0.84841  -0.70429  -0.63876  -0.54579  -0.53627
 Alpha  occ. eigenvalues --   -0.46906  -0.45529  -0.40503  -0.38241  -0.27735
 Alpha virt. eigenvalues --    0.01461   0.06939   0.07436   0.08012   0.09671
 Alpha virt. eigenvalues --    0.11587   0.12356   0.14887   0.15732   0.15976
 Alpha virt. eigenvalues --    0.18904   0.20022   0.21828   0.22404   0.24123

 Mulliken charges:
               1
     1  C   -0.178310
     2  C   -0.025980
     3  C   -0.031554
     4  C   -0.170566
     5  H    0.080836
     6  H    0.066952
     7  H    0.049338
     8  H    0.057026
     9  H    0.069351
    10  H    0.082908
 Sum of Mulliken charges =   0.00000

 Dipole moment (field-independent basis, Debye):
    X=             -0.0332    Y=              0.0111    Z=              0.1292  Tot=              0.1339
 Quadrupole moment (field-independent basis, Debye-Ang):
   XX=            -23.3230   YY=            -23.2876   ZZ=            -29.2699
   XY=              0.3877   XZ=              0.1610   YZ=              0.1046

 1\1\GINC-NODE36\SP\RB2PLYPD3-FC\def2QZVP\C4H6\BOITTIER\26-Aug-2020\0\\
 #p B2PLYPD3/Def2QZVP\\butadiene\\0,1\C,0,-3.856818,0.21379,-0.019773\C
 ,0,-2.706571,-0.46467,0.082892\C,0,-1.366674,0.07254,0.078889\C,0,-0.2
 68606,-0.671828,-0.021044\H,0,-4.789457,-0.341146,-0.050696\H,0,-3.987
 508,1.306803,-0.105269\H,0,-2.747898,-1.560242,0.038801\H,0,-1.338071,
 1.150209,-0.003037\H,0,-0.32637,-1.730401,0.098542\H,0,0.749214,-0.224
 569,-0.100661\\Version=ES64L-G09RevD.01\State=1-A\HF=-155.6961859\MP2=
 -155.9223128\RMSD=5.225e-09\PG=C01 [X(C4H6)]\\@

 Normal termination of Gaussian 09 at Wed Aug 26 11:03:49 2020.
