 Gaussian 09, Revision D.01,
 Gaussian 09:  ES64L-G09RevD.01 24-Apr-2013

 --------------------
 #p B2PLYPD3/Def2QZVP
 --------------------

 ---------
 butadiene
 ---------
 Symbolic Z-matrix:
 Charge =  0 Multiplicity = 1

                         Standard orientation:
 ---------------------------------------------------------------------
 Center     Atomic      Atomic             Coordinates (Angstroms)
 Number     Number       Type             X           Y           Z
 ---------------------------------------------------------------------
      1          6           0        1.813449   -0.126490    0.050422
      2          6           0        0.595702    0.413501   -0.042995
      3          6           0       -0.591446   -0.384353   -0.061318
      4          6           0       -1.836492    0.102364    0.022892
      5          1           0        2.690772    0.482510   -0.005166
      6          1           0        1.945854   -1.180566    0.051005
      7          1           0        0.512344    1.529836   -0.005303
      8          1           0       -0.394842   -1.422017   -0.043211
      9          1           0       -1.965346    1.146491    0.063178
     10          1           0       -2.676065   -0.586387    0.125496
 ---------------------------------------------------------------------

 SCF Done:  E(RB2PLYPD3) =  -155.696737043     A.U. after   11 cycles
 E2(B2PLYPD3) =    -0.2257737685D+00 E(B2PLYPD3) =    -0.15592251081170D+03

 The electronic state is 1-A.
 Alpha  occ. eigenvalues --  -10.62559 -10.61968 -10.61307 -10.61090  -0.93484
 Alpha  occ. eigenvalues --   -0.84957  -0.70497  -0.64317  -0.54600  -0.54290
 Alpha  occ. eigenvalues --   -0.46369  -0.46055  -0.41551  -0.38342  -0.27441
 Alpha virt. eigenvalues --    0.01561   0.07048   0.07420   0.08083   0.09643
 Alpha virt. eigenvalues --    0.11854   0.12468   0.14867   0.15767   0.16101
 Alpha virt. eigenvalues --    0.18751   0.19986   0.21829   0.23189   0.24069

 Mulliken charges:
               1
     1  C   -0.178508
     2  C   -0.021466
     3  C   -0.028105
     4  C   -0.182770
     5  H    0.084330
     6  H    0.062772
     7  H    0.046900
     8  H    0.056016
     9  H    0.072671
    10  H    0.088159
 Sum of Mulliken charges =   0.00000

 Dipole moment (field-independent basis, Debye):
    X=              0.0610    Y=             -0.0260    Z=              0.0992  Tot=              0.1193
 Quadrupole moment (field-independent basis, Debye-Ang):
   XX=            -23.7696   YY=            -23.0210   ZZ=            -29.1783
   XY=             -0.0810   XZ=             -0.4384   YZ=             -0.0378

 1\1\GINC-NODE24\SP\RB2PLYPD3-FC\def2QZVP\C4H6\BOITTIER\26-Aug-2020\0\\
 #p B2PLYPD3/Def2QZVP\\butadiene\\0,1\C,0,-3.814489,0.240349,0.065801\C
 ,0,-2.714961,-0.513882,-0.007666\C,0,-1.402676,0.054545,-0.039704\C,0,
 -0.266742,-0.647728,0.063208\H,0,-4.787764,-0.200539,0.020856\H,0,-3.7
 5332,1.300615,0.03931\H,0,-2.83569,-1.625473,0.058387\H,0,-1.407629,1.
 110776,-0.048603\H,0,-0.329623,-1.696525,0.130288\H,0,0.683861,-0.1203
 87,0.15296\\Version=ES64L-G09RevD.01\State=1-A\HF=-155.696737\MP2=-155
 .9225108\RMSD=4.625e-09\PG=C01 [X(C4H6)]\\@

 Normal termination of Gaussian 09 at Wed Aug 26 09:19:10 2020.
