 Gaussian 09, Revision D.01,
 Gaussian 09:  ES64L-G09RevD.01 24-Apr-2013

 --------------------
 #p B2PLYPD3/Def2QZVP
 --------------------

 ---------
 butadiene
 ---------
 Symbolic Z-matrix:
 Charge =  0 Multiplicity = 1

                         Standard orientation:
 ---------------------------------------------------------------------
 Center     Atomic      Atomic             Coordinates (Angstroms)
 Number     Number       Type             X           Y           Z
 ---------------------------------------------------------------------
      1          6           0        1.843668   -0.130086    0.018563
      2          6           0        0.613481    0.404251   -0.031602
      3          6           0       -0.605891   -0.370333   -0.016232
      4          6           0       -1.844596    0.096748    0.030544
      5          1           0        2.691361    0.538838   -0.010162
      6          1           0        1.979636   -1.182376    0.090373
      7          1           0        0.495087    1.490786   -0.021930
      8          1           0       -0.475075   -1.468655   -0.072067
      9          1           0       -2.022624    1.172048    0.046308
     10          1           0       -2.708361   -0.554125   -0.040152
 ---------------------------------------------------------------------

 SCF Done:  E(RB2PLYPD3) =  -155.699649485     A.U. after   11 cycles
 E2(B2PLYPD3) =    -0.2257722700D+00 E(B2PLYPD3) =    -0.15592542175514D+03

 The electronic state is 1-A.
 Alpha  occ. eigenvalues --  -10.62645 -10.62424 -10.61527 -10.61440  -0.93068
 Alpha  occ. eigenvalues --   -0.85091  -0.70301  -0.63694  -0.54486  -0.54161
 Alpha  occ. eigenvalues --   -0.46666  -0.45790  -0.40861  -0.38201  -0.27744
 Alpha virt. eigenvalues --    0.01603   0.06993   0.07400   0.07985   0.09829
 Alpha virt. eigenvalues --    0.11714   0.12331   0.14789   0.15783   0.16062
 Alpha virt. eigenvalues --    0.18811   0.20495   0.21444   0.22544   0.23976

 Mulliken charges:
               1
     1  C   -0.179001
     2  C   -0.032732
     3  C   -0.019167
     4  C   -0.176512
     5  H    0.088741
     6  H    0.073587
     7  H    0.051196
     8  H    0.044331
     9  H    0.061156
    10  H    0.088401
 Sum of Mulliken charges =   0.00000

 Dipole moment (field-independent basis, Debye):
    X=              0.0261    Y=              0.0073    Z=             -0.0329  Tot=              0.0427
 Quadrupole moment (field-independent basis, Debye-Ang):
   XX=            -23.5371   YY=            -23.1252   ZZ=            -29.2553
   XY=             -0.0358   XZ=              0.2321   YZ=              0.0225

 1\1\GINC-NODE11\SP\RB2PLYPD3-FC\def2QZVP\C4H6\BOITTIER\26-Aug-2020\0\\
 #p B2PLYPD3/Def2QZVP\\butadiene\\0,1\C,0,-3.842256,0.241087,0.038601\C
 ,0,-2.726928,-0.504782,0.005195\C,0,-1.389226,0.040714,-0.00344\C,0,-0
 .253034,-0.637548,0.057956\H,0,-4.795494,-0.266989,0.030632\H,0,-3.788
 622,1.302482,0.077619\H,0,-2.803498,-1.594238,0.048684\H,0,-1.323036,1
 .142558,-0.093437\H,0,-0.268891,-1.726372,0.10719\H,0,0.71227,-0.15313
 1,-0.032884\\Version=ES64L-G09RevD.01\State=1-A\HF=-155.6996495\MP2=-1
 55.9254218\RMSD=6.139e-09\PG=C01 [X(C4H6)]\\@

 Normal termination of Gaussian 09 at Wed Aug 26 19:10:58 2020.
