 Gaussian 09, Revision D.01,
 Gaussian 09:  ES64L-G09RevD.01 24-Apr-2013

 --------------------
 #p B2PLYPD3/Def2QZVP
 --------------------

 ---------
 butadiene
 ---------
 Symbolic Z-matrix:
 Charge =  0 Multiplicity = 1

                         Standard orientation:
 ---------------------------------------------------------------------
 Center     Atomic      Atomic             Coordinates (Angstroms)
 Number     Number       Type             X           Y           Z
 ---------------------------------------------------------------------
      1          6           0        1.852716    0.106921    0.028102
      2          6           0        0.616757   -0.395576   -0.028540
      3          6           0       -0.614547    0.413778   -0.017495
      4          6           0       -1.843382   -0.121253    0.014314
      5          1           0        2.711195   -0.562654   -0.011568
      6          1           0        2.014069    1.180276    0.020727
      7          1           0        0.441366   -1.478117   -0.037038
      8          1           0       -0.489797    1.504705   -0.011878
      9          1           0       -2.023380   -1.171984    0.078006
     10          1           0       -2.722717    0.504559   -0.016532
 ---------------------------------------------------------------------

 SCF Done:  E(RB2PLYPD3) =  -155.699994333     A.U. after   11 cycles
 E2(B2PLYPD3) =    -0.2259261292D+00 E(B2PLYPD3) =    -0.15592592046182D+03

 The electronic state is 1-A.
 Alpha  occ. eigenvalues --  -10.62930 -10.62783 -10.61664 -10.61481  -0.92581
 Alpha  occ. eigenvalues --   -0.84865  -0.70004  -0.63874  -0.54373  -0.53805
 Alpha  occ. eigenvalues --   -0.46709  -0.45866  -0.40852  -0.37824  -0.27776
 Alpha virt. eigenvalues --    0.01752   0.06988   0.07369   0.08057   0.09448
 Alpha virt. eigenvalues --    0.11681   0.12368   0.14704   0.15909   0.15948
 Alpha virt. eigenvalues --    0.18831   0.20545   0.21501   0.22909   0.23713

 Mulliken charges:
               1
     1  C   -0.175937
     2  C   -0.031629
     3  C   -0.032358
     4  C   -0.175923
     5  H    0.087483
     6  H    0.068777
     7  H    0.053558
     8  H    0.054133
     9  H    0.067941
    10  H    0.083955
 Sum of Mulliken charges =   0.00000

 Dipole moment (field-independent basis, Debye):
    X=             -0.0427    Y=             -0.0111    Z=             -0.0095  Tot=              0.0451
 Quadrupole moment (field-independent basis, Debye-Ang):
   XX=            -23.5164   YY=            -23.0488   ZZ=            -29.3515
   XY=              0.2470   XZ=             -0.1163   YZ=             -0.0487

 1\1\GINC-NODE21\SP\RB2PLYPD3-FC\def2QZVP\C4H6\BOITTIER\26-Aug-2020\0\\
 #p B2PLYPD3/Def2QZVP\\butadiene\\0,1\C,0,-3.854833,0.219933,-0.007623\
 C,0,-2.728276,-0.493652,0.062901\C,0,-1.372275,0.082183,0.031891\C,0,-
 0.258881,-0.664388,0.014828\H,0,-4.818931,-0.284285,0.048674\H,0,-3.82
 1869,1.304679,-0.028082\H,0,-2.749007,-1.589536,0.099475\H,0,-1.300209
 ,1.177343,-0.001981\H,0,-0.269677,-1.73165,-0.021582\H,0,0.718195,-0.2
 05139,0.030169\\Version=ES64L-G09RevD.01\State=1-A\HF=-155.6999943\MP2
 =-155.9259205\RMSD=4.537e-09\PG=C01 [X(C4H6)]\\@

 Normal termination of Gaussian 09 at Wed Aug 26 20:15:51 2020.
