 Gaussian 09, Revision D.01,
 Gaussian 09:  ES64L-G09RevD.01 24-Apr-2013

 --------------------
 #p B2PLYPD3/Def2QZVP
 --------------------

 ---------
 butadiene
 ---------
 Symbolic Z-matrix:
 Charge =  0 Multiplicity = 1

                         Standard orientation:
 ---------------------------------------------------------------------
 Center     Atomic      Atomic             Coordinates (Angstroms)
 Number     Number       Type             X           Y           Z
 ---------------------------------------------------------------------
      1          6           0        1.823313    0.091360    0.010381
      2          6           0        0.591411   -0.375674   -0.042615
      3          6           0       -0.587842    0.423104   -0.074705
      4          6           0       -1.797821   -0.134680    0.058983
      5          1           0        2.597932   -0.618413    0.162264
      6          1           0        1.962305    1.230161    0.078580
      7          1           0        0.385976   -1.411044   -0.058699
      8          1           0       -0.558945    1.518843    0.054660
      9          1           0       -1.840178   -1.209585    0.030032
     10          1           0       -2.721456    0.465376    0.020894
 ---------------------------------------------------------------------

 SCF Done:  E(RB2PLYPD3) =  -155.689358140     A.U. after   11 cycles
 E2(B2PLYPD3) =    -0.2263083031D+00 E(B2PLYPD3) =    -0.15591566644302D+03

 The electronic state is 1-A.
 Alpha  occ. eigenvalues --  -10.62248 -10.61678 -10.61622 -10.61526  -0.93849
 Alpha  occ. eigenvalues --   -0.85080  -0.69801  -0.64127  -0.54627  -0.53743
 Alpha  occ. eigenvalues --   -0.45983  -0.45177  -0.41586  -0.38619  -0.27619
 Alpha virt. eigenvalues --    0.01718   0.07065   0.07265   0.08007   0.09539
 Alpha virt. eigenvalues --    0.11881   0.12325   0.14553   0.15355   0.16493
 Alpha virt. eigenvalues --    0.18330   0.19208   0.22016   0.23037   0.24620

 Mulliken charges:
               1
     1  C   -0.175888
     2  C   -0.028182
     3  C   -0.020376
     4  C   -0.174756
     5  H    0.088236
     6  H    0.065406
     7  H    0.051790
     8  H    0.052155
     9  H    0.058250
    10  H    0.083364
 Sum of Mulliken charges =   0.00000

 Dipole moment (field-independent basis, Debye):
    X=             -0.1151    Y=             -0.0488    Z=              0.1850  Tot=              0.2232
 Quadrupole moment (field-independent basis, Debye-Ang):
   XX=            -24.1969   YY=            -22.9891   ZZ=            -29.1774
   XY=             -0.2641   XZ=              0.4491   YZ=              0.1059

 1\1\GINC-NODE06\SP\RB2PLYPD3-FC\def2QZVP\C4H6\BOITTIER\26-Aug-2020\0\\
 #p B2PLYPD3/Def2QZVP\\butadiene\\0,1\C,0,-3.825679,0.202919,-0.004504\
 C,0,-2.69833,-0.476628,0.071742\C,0,-1.394192,0.096801,0.082532\C,0,-0
 .304938,-0.674601,-0.024739\H,0,-4.715854,-0.360303,-0.135842\H,0,-3.7
 56785,1.344962,-0.113269\H,0,-2.683235,-1.530843,0.125182\H,0,-1.22483
 7,1.174478,-0.085233\H,0,-0.457369,-1.737785,0.042023\H,0,0.711903,-0.
 250151,-0.002446\\Version=ES64L-G09RevD.01\State=1-A\HF=-155.6893581\M
 P2=-155.9156664\RMSD=7.459e-09\PG=C01 [X(C4H6)]\\@

 Normal termination of Gaussian 09 at Wed Aug 26 14:49:28 2020.
