 Gaussian 09, Revision D.01,
 Gaussian 09:  ES64L-G09RevD.01 24-Apr-2013

 --------------------
 #p B2PLYPD3/Def2QZVP
 --------------------

 ---------
 butadiene
 ---------
 Symbolic Z-matrix:
 Charge =  0 Multiplicity = 1

                         Standard orientation:
 ---------------------------------------------------------------------
 Center     Atomic      Atomic             Coordinates (Angstroms)
 Number     Number       Type             X           Y           Z
 ---------------------------------------------------------------------
      1          6           0        1.799484   -0.137386   -0.071444
      2          6           0        0.582308    0.425263    0.014672
      3          6           0       -0.584431   -0.352926    0.097332
      4          6           0       -1.825443    0.093496   -0.054387
      5          1           0        2.768046    0.451594   -0.062406
      6          1           0        1.838190   -1.225791    0.086459
      7          1           0        0.530014    1.577507    0.163585
      8          1           0       -0.365961   -1.400241    0.058653
      9          1           0       -2.054849    1.065412   -0.003448
     10          1           0       -2.546953   -0.639166   -0.159886
 ---------------------------------------------------------------------

 SCF Done:  E(RB2PLYPD3) =  -155.679211351     A.U. after   12 cycles
 E2(B2PLYPD3) =    -0.2265626121D+00 E(B2PLYPD3) =    -0.15590577396337D+03

 The electronic state is 1-A.
 Alpha  occ. eigenvalues --  -10.62911 -10.62257 -10.61730 -10.60008  -0.94014
 Alpha  occ. eigenvalues --   -0.85131  -0.70787  -0.63763  -0.54878  -0.54339
 Alpha  occ. eigenvalues --   -0.46163  -0.45874  -0.41581  -0.38243  -0.27306
 Alpha virt. eigenvalues --    0.01327   0.07049   0.07169   0.08005   0.09575
 Alpha virt. eigenvalues --    0.11791   0.12503   0.14930   0.15469   0.16354
 Alpha virt. eigenvalues --    0.18448   0.19568   0.21682   0.23138   0.24612

 Mulliken charges:
               1
     1  C   -0.175896
     2  C   -0.018910
     3  C   -0.025076
     4  C   -0.178734
     5  H    0.082127
     6  H    0.057080
     7  H    0.044566
     8  H    0.050397
     9  H    0.080753
    10  H    0.083692
 Sum of Mulliken charges =   0.00000

 Dipole moment (field-independent basis, Debye):
    X=             -0.0347    Y=              0.0174    Z=              0.1583  Tot=              0.1630
 Quadrupole moment (field-independent basis, Debye-Ang):
   XX=            -23.8122   YY=            -23.1844   ZZ=            -29.1006
   XY=             -0.0374   XZ=              0.5818   YZ=              0.1427

 1\1\GINC-NODE32\SP\RB2PLYPD3-FC\def2QZVP\C4H6\BOITTIER\26-Aug-2020\0\\
 #p B2PLYPD3/Def2QZVP\\butadiene\\0,1\C,0,-3.799216,0.249426,-0.047276\
 C,0,-2.704726,-0.521903,0.065196\C,0,-1.414273,0.032113,0.103777\C,0,-
 0.277964,-0.641687,-0.027434\H,0,-4.859086,-0.150522,-0.004756\H,0,-3.
 635989,1.333084,0.053223\H,0,-2.862548,-1.654995,0.274411\H,0,-1.43767
 8,1.098351,0.010593\H,0,-0.229849,-1.635286,0.073996\H,0,0.564193,-0.0
 6029,-0.173207\\Version=ES64L-G09RevD.01\State=1-A\HF=-155.6792114\MP2
 =-155.905774\RMSD=2.973e-09\PG=C01 [X(C4H6)]\\@

 Normal termination of Gaussian 09 at Wed Aug 26 15:47:39 2020.
