 Gaussian 09, Revision D.01,
 Gaussian 09:  ES64L-G09RevD.01 24-Apr-2013

 --------------------
 #p B2PLYPD3/Def2QZVP
 --------------------

 ---------
 butadiene
 ---------
 Symbolic Z-matrix:
 Charge =  0 Multiplicity = 1

                         Standard orientation:
 ---------------------------------------------------------------------
 Center     Atomic      Atomic             Coordinates (Angstroms)
 Number     Number       Type             X           Y           Z
 ---------------------------------------------------------------------
      1          6           0        1.806030   -0.118205    0.045153
      2          6           0        0.578630    0.443656   -0.052281
      3          6           0       -0.588984   -0.391555   -0.019506
      4          6           0       -1.810736    0.104950    0.028023
      5          1           0        2.798899    0.366622   -0.122981
      6          1           0        1.960733   -1.167622    0.163116
      7          1           0        0.505518    1.528226   -0.012660
      8          1           0       -0.392713   -1.369214   -0.094566
      9          1           0       -2.146381    1.078840    0.155821
     10          1           0       -2.635695   -0.669928   -0.097068
 ---------------------------------------------------------------------

 SCF Done:  E(RB2PLYPD3) =  -155.681835609     A.U. after   11 cycles
 E2(B2PLYPD3) =    -0.2259922335D+00 E(B2PLYPD3) =    -0.15590782784218D+03

 The electronic state is 1-A.
 Alpha  occ. eigenvalues --  -10.62627 -10.61844 -10.61425 -10.61285  -0.93664
 Alpha  occ. eigenvalues --   -0.84594  -0.70319  -0.65636  -0.54747  -0.54312
 Alpha  occ. eigenvalues --   -0.47341  -0.44817  -0.41208  -0.37901  -0.27355
 Alpha virt. eigenvalues --    0.01507   0.06925   0.07553   0.08117   0.09299
 Alpha virt. eigenvalues --    0.11641   0.12515   0.14913   0.15580   0.16425
 Alpha virt. eigenvalues --    0.18841   0.20050   0.21717   0.22889   0.23865

 Mulliken charges:
               1
     1  C   -0.170498
     2  C   -0.035905
     3  C   -0.035256
     4  C   -0.174913
     5  H    0.072322
     6  H    0.054090
     7  H    0.066140
     8  H    0.080323
     9  H    0.083243
    10  H    0.060454
 Sum of Mulliken charges =   0.00000

 Dipole moment (field-independent basis, Debye):
    X=              0.0354    Y=             -0.0085    Z=             -0.0376  Tot=              0.0524
 Quadrupole moment (field-independent basis, Debye-Ang):
   XX=            -23.7114   YY=            -23.0997   ZZ=            -29.0851
   XY=             -0.7792   XZ=             -0.1222   YZ=              0.1506

 1\1\GINC-NODE10\SP\RB2PLYPD3-FC\def2QZVP\C4H6\BOITTIER\26-Aug-2020\0\\
 #p B2PLYPD3/Def2QZVP\\butadiene\\0,1\C,0,-3.804833,0.245205,0.059049\C
 ,0,-2.704995,-0.54009,-0.014169\C,0,-1.401319,0.061879,-0.008066\C,0,-
 0.294223,-0.652961,0.061198\H,0,-4.871649,-0.050512,-0.094478\H,0,-3.7
 59488,1.308579,0.138434\H,0,-2.836483,-1.616964,0.064947\H,0,-1.410991
 ,1.055634,-0.119105\H,0,-0.146747,-1.667256,0.225234\H,0,0.660971,-0.0
 51642,-0.089335\\Version=ES64L-G09RevD.01\State=1-A\HF=-155.6818356\MP
 2=-155.9078278\RMSD=7.443e-09\PG=C01 [X(C4H6)]\\@

 Normal termination of Gaussian 09 at Wed Aug 26 12:00:36 2020.
