 Gaussian 09, Revision D.01,
 Gaussian 09:  ES64L-G09RevD.01 24-Apr-2013

 --------------------
 #p B2PLYPD3/Def2QZVP
 --------------------

 ---------
 butadiene
 ---------
 Symbolic Z-matrix:
 Charge =  0 Multiplicity = 1

                         Standard orientation:
 ---------------------------------------------------------------------
 Center     Atomic      Atomic             Coordinates (Angstroms)
 Number     Number       Type             X           Y           Z
 ---------------------------------------------------------------------
      1          6           0        1.846346   -0.104360   -0.004551
      2          6           0        0.605876    0.387184    0.012871
      3          6           0       -0.612692   -0.410097    0.000700
      4          6           0       -1.852707    0.111845   -0.016105
      5          1           0        2.699696    0.553981   -0.053943
      6          1           0        2.044509   -1.165681    0.038794
      7          1           0        0.479089    1.477010   -0.015722
      8          1           0       -0.443202   -1.455723    0.019688
      9          1           0       -1.994192    1.217827    0.077302
     10          1           0       -2.706845   -0.534849   -0.023604
 ---------------------------------------------------------------------

 SCF Done:  E(RB2PLYPD3) =  -155.698947248     A.U. after   11 cycles
 E2(B2PLYPD3) =    -0.2259797036D+00 E(B2PLYPD3) =    -0.15592492695197D+03

 The electronic state is 1-A.
 Alpha  occ. eigenvalues --  -10.62568 -10.62475 -10.62043 -10.61459  -0.92855
 Alpha  occ. eigenvalues --   -0.84808  -0.70224  -0.64038  -0.54650  -0.53652
 Alpha  occ. eigenvalues --   -0.46752  -0.45717  -0.41093  -0.37976  -0.27644
 Alpha virt. eigenvalues --    0.01575   0.06981   0.07390   0.08103   0.09574
 Alpha virt. eigenvalues --    0.11693   0.12320   0.14713   0.15836   0.16051
 Alpha virt. eigenvalues --    0.18793   0.20517   0.21373   0.22868   0.23904

 Mulliken charges:
               1
     1  C   -0.180216
     2  C   -0.019955
     3  C   -0.041127
     4  C   -0.174289
     5  H    0.086202
     6  H    0.064812
     7  H    0.049239
     8  H    0.058390
     9  H    0.067462
    10  H    0.089483
 Sum of Mulliken charges =   0.00000

 Dipole moment (field-independent basis, Debye):
    X=              0.0155    Y=             -0.0435    Z=              0.0542  Tot=              0.0712
 Quadrupole moment (field-independent basis, Debye-Ang):
   XX=            -23.5408   YY=            -23.0851   ZZ=            -29.3213
   XY=             -0.1166   XZ=             -0.1965   YZ=             -0.0167

 1\1\GINC-NODE13\SP\RB2PLYPD3-FC\def2QZVP\C4H6\BOITTIER\26-Aug-2020\0\\
 #p B2PLYPD3/Def2QZVP\\butadiene\\0,1\C,0,-3.851144,0.219814,0.011949\C
 ,0,-2.719929,-0.487153,0.047088\C,0,-1.377342,0.076108,0.016905\C,0,-0
 .252129,-0.661614,0.018671\H,0,-4.809521,-0.27457,-0.02204\H,0,-3.8541
 26,1.300261,0.025246\H,0,-2.792274,-1.582313,0.049089\H,0,-1.355003,1.
 135264,0.006385\H,0,-0.312726,-1.771921,0.14312\H,0,0.70482,-0.180406,
 -0.003885\\Version=ES64L-G09RevD.01\State=1-A\HF=-155.6989472\MP2=-155
 .924927\RMSD=5.490e-09\PG=C01 [X(C4H6)]\\@

 Normal termination of Gaussian 09 at Wed Aug 26 19:58:13 2020.
