 Gaussian 09, Revision D.01,
 Gaussian 09:  ES64L-G09RevD.01 24-Apr-2013

 --------------------
 #p B2PLYPD3/Def2QZVP
 --------------------

 ---------
 butadiene
 ---------
 Symbolic Z-matrix:
 Charge =  0 Multiplicity = 1

                         Standard orientation:
 ---------------------------------------------------------------------
 Center     Atomic      Atomic             Coordinates (Angstroms)
 Number     Number       Type             X           Y           Z
 ---------------------------------------------------------------------
      1          6           0       -1.839258   -0.142432    0.007640
      2          6           0       -0.614161    0.456489   -0.068931
      3          6           0        0.583226   -0.346727   -0.062856
      4          6           0        1.837621    0.062015    0.059984
      5          1           0       -2.705127    0.391401    0.418736
      6          1           0       -1.797582   -1.273026    0.016522
      7          1           0       -0.488944    1.463128   -0.158119
      8          1           0        0.470120   -1.418723   -0.096211
      9          1           0        1.912481    1.190056    0.059430
     10          1           0        2.804483   -0.528902    0.144620
 ---------------------------------------------------------------------

 SCF Done:  E(RB2PLYPD3) =  -155.677021850     A.U. after   11 cycles
 E2(B2PLYPD3) =    -0.2277506850D+00 E(B2PLYPD3) =    -0.15590477253544D+03

 The electronic state is 1-A.
 Alpha  occ. eigenvalues --  -10.62827 -10.62694 -10.62393 -10.62163  -0.93421
 Alpha  occ. eigenvalues --   -0.84569  -0.69633  -0.64746  -0.54386  -0.53318
 Alpha  occ. eigenvalues --   -0.46893  -0.44767  -0.41106  -0.37831  -0.27408
 Alpha virt. eigenvalues --    0.00977   0.06881   0.07414   0.07975   0.09300
 Alpha virt. eigenvalues --    0.11531   0.12815   0.14006   0.15491   0.16347
 Alpha virt. eigenvalues --    0.18414   0.19565   0.21562   0.23350   0.23482

 Mulliken charges:
               1
     1  C   -0.162636
     2  C   -0.048261
     3  C   -0.012594
     4  C   -0.172770
     5  H    0.087136
     6  H    0.056715
     7  H    0.072278
     8  H    0.045143
     9  H    0.040859
    10  H    0.094130
 Sum of Mulliken charges =   0.00000

 Dipole moment (field-independent basis, Debye):
    X=              0.0654    Y=              0.0249    Z=              0.2771  Tot=              0.2858
 Quadrupole moment (field-independent basis, Debye-Ang):
   XX=            -23.9402   YY=            -23.4921   ZZ=            -29.1645
   XY=             -0.4879   XZ=             -0.7694   YZ=              0.0617

 1\1\GINC-NODE04\SP\RB2PLYPD3-FC\def2QZVP\C4H6\BOITTIER\26-Aug-2020\0\\
 #p B2PLYPD3/Def2QZVP\\butadiene\\0,1\C,0,-3.832715,0.250506,-0.008804\
 C,0,-2.73235,-0.551034,0.101479\C,0,-1.412121,0.027699,0.070017\C,0,-0
 .249493,-0.600476,-0.026723\H,0,-4.779345,-0.139492,-0.403141\H,0,-3.5
 92384,1.354656,-0.064943\H,0,-2.786509,-1.559257,0.233807\H,0,-1.33445
 5,1.103288,0.057456\H,0,-0.374667,-1.722998,0.021805\H,0,0.806356,-0.1
 93268,-0.129361\\Version=ES64L-G09RevD.01\State=1-A\HF=-155.6770219\MP
 2=-155.9047725\RMSD=9.466e-09\PG=C01 [X(C4H6)]\\@

 Normal termination of Gaussian 09 at Wed Aug 26 13:18:42 2020.
