 Gaussian 09, Revision D.01,
 Gaussian 09:  ES64L-G09RevD.01 24-Apr-2013

 --------------------
 #p B2PLYPD3/Def2QZVP
 --------------------

 ---------
 butadiene
 ---------
 Symbolic Z-matrix:
 Charge =  0 Multiplicity = 1

                         Standard orientation:
 ---------------------------------------------------------------------
 Center     Atomic      Atomic             Coordinates (Angstroms)
 Number     Number       Type             X           Y           Z
 ---------------------------------------------------------------------
      1          6           0       -1.810709    0.124283    0.008815
      2          6           0       -0.600355   -0.415675   -0.034029
      3          6           0        0.587458    0.370596   -0.024593
      4          6           0        1.816056   -0.095244    0.021654
      5          1           0       -2.744404   -0.501583   -0.007432
      6          1           0       -1.905294    1.209787    0.151318
      7          1           0       -0.500894   -1.472924    0.029583
      8          1           0        0.445463    1.451564   -0.069897
      9          1           0        2.060876   -1.140461    0.060386
     10          1           0        2.689555    0.549860    0.004959
 ---------------------------------------------------------------------

 SCF Done:  E(RB2PLYPD3) =  -155.697215184     A.U. after   11 cycles
 E2(B2PLYPD3) =    -0.2253710646D+00 E(B2PLYPD3) =    -0.15592258624890D+03

 The electronic state is 1-A.
 Alpha  occ. eigenvalues --  -10.62013 -10.61976 -10.61821 -10.61047  -0.93785
 Alpha  occ. eigenvalues --   -0.85131  -0.69995  -0.64303  -0.54814  -0.53936
 Alpha  occ. eigenvalues --   -0.46674  -0.45139  -0.41122  -0.38603  -0.27744
 Alpha virt. eigenvalues --    0.01872   0.06977   0.07428   0.07966   0.09817
 Alpha virt. eigenvalues --    0.11725   0.12452   0.14790   0.15669   0.16288
 Alpha virt. eigenvalues --    0.18718   0.20282   0.21828   0.22513   0.23950

 Mulliken charges:
               1
     1  C   -0.170752
     2  C   -0.032422
     3  C   -0.020116
     4  C   -0.175668
     5  H    0.081797
     6  H    0.063678
     7  H    0.060122
     8  H    0.050659
     9  H    0.062615
    10  H    0.080088
 Sum of Mulliken charges =   0.00000

 Dipole moment (field-independent basis, Debye):
    X=              0.0078    Y=             -0.0496    Z=              0.1183  Tot=              0.1285
 Quadrupole moment (field-independent basis, Debye-Ang):
   XX=            -23.5361   YY=            -23.2052   ZZ=            -29.1047
   XY=             -0.0831   XZ=             -0.1871   YZ=              0.0049

 1\1\GINC-NODE39\SP\RB2PLYPD3-FC\def2QZVP\C4H6\BOITTIER\26-Aug-2020\0\\
 #p B2PLYPD3/Def2QZVP\\butadiene\\0,1\C,0,-3.808775,0.237455,0.03224\C,
 0,-2.716697,-0.514209,0.005538\C,0,-1.405913,0.043366,-0.007473\C,0,-0
 .282008,-0.636201,0.052729\H,0,-4.840592,-0.208761,0.033869\H,0,-3.704
 147,1.325728,0.143091\H,0,-2.810387,-1.569686,0.099896\H,0,-1.349657,1
 .130403,-0.084235\H,0,-0.230693,-1.706946,0.121919\H,0,0.693941,-0.161
 093,0.017592\\Version=ES64L-G09RevD.01\State=1-A\HF=-155.6972152\MP2=-
 155.9225862\RMSD=6.269e-09\PG=C01 [X(C4H6)]\\@

 Normal termination of Gaussian 09 at Wed Aug 26 08:54:47 2020.
