 Gaussian 09, Revision D.01,
 Gaussian 09:  ES64L-G09RevD.01 24-Apr-2013

 --------------------
 #p B2PLYPD3/Def2QZVP
 --------------------

 ---------
 butadiene
 ---------
 Symbolic Z-matrix:
 Charge =  0 Multiplicity = 1

                         Standard orientation:
 ---------------------------------------------------------------------
 Center     Atomic      Atomic             Coordinates (Angstroms)
 Number     Number       Type             X           Y           Z
 ---------------------------------------------------------------------
      1          6           0       -1.848861   -0.102844    0.005805
      2          6           0       -0.609797    0.381681   -0.027943
      3          6           0        0.613890   -0.423711   -0.021002
      4          6           0        1.827878    0.119215    0.037958
      5          1           0       -2.644365    0.561700    0.040180
      6          1           0       -1.992979   -1.155710    0.142020
      7          1           0       -0.412864    1.457659   -0.127701
      8          1           0        0.499652   -1.483821   -0.068632
      9          1           0        1.859153    1.208095    0.141604
     10          1           0        2.792741   -0.433967   -0.096388
 ---------------------------------------------------------------------

 SCF Done:  E(RB2PLYPD3) =  -155.695628341     A.U. after   11 cycles
 E2(B2PLYPD3) =    -0.2257008194D+00 E(B2PLYPD3) =    -0.15592132916047D+03

 The electronic state is 1-A.
 Alpha  occ. eigenvalues --  -10.62606 -10.62300 -10.61995 -10.60839  -0.93047
 Alpha  occ. eigenvalues --   -0.85153  -0.69913  -0.64157  -0.54659  -0.53973
 Alpha  occ. eigenvalues --   -0.46937  -0.45585  -0.41049  -0.37969  -0.27856
 Alpha virt. eigenvalues --    0.01812   0.07052   0.07440   0.08091   0.09465
 Alpha virt. eigenvalues --    0.11717   0.12545   0.14619   0.15648   0.16254
 Alpha virt. eigenvalues --    0.18733   0.19861   0.21617   0.22883   0.24063

 Mulliken charges:
               1
     1  C   -0.183389
     2  C   -0.026630
     3  C   -0.032322
     4  C   -0.170184
     5  H    0.091621
     6  H    0.069880
     7  H    0.049010
     8  H    0.056456
     9  H    0.057628
    10  H    0.087931
 Sum of Mulliken charges =   0.00000

 Dipole moment (field-independent basis, Debye):
    X=              0.0291    Y=             -0.0158    Z=              0.0042  Tot=              0.0334
 Quadrupole moment (field-independent basis, Debye-Ang):
   XX=            -23.5806   YY=            -23.2150   ZZ=            -29.1780
   XY=             -0.0287   XZ=             -0.4741   YZ=              0.0117

 1\1\GINC-NODE38\SP\RB2PLYPD3-FC\def2QZVP\C4H6\BOITTIER\26-Aug-2020\0\\
 #p B2PLYPD3/Def2QZVP\\butadiene\\0,1\C,0,-3.851988,0.211392,0.005973\C
 ,0,-2.718675,-0.484162,0.060639\C,0,-1.371409,0.090672,0.037106\C,0,-0
 .273116,-0.660619,0.000661\H,0,-4.752852,-0.302117,-0.013507\H,0,-3.80
 6798,1.268628,-0.161543\H,0,-2.715983,-1.574585,0.192678\H,0,-1.295583
 ,1.155162,0.05331\H,0,-0.435679,-1.740339,-0.071159\H,0,0.774608,-0.28
 3762,0.12424\\Version=ES64L-G09RevD.01\State=1-A\HF=-155.6956283\MP2=-
 155.9213292\RMSD=5.639e-09\PG=C01 [X(C4H6)]\\@

 Normal termination of Gaussian 09 at Wed Aug 26 10:29:54 2020.
