 Gaussian 09, Revision D.01,
 Gaussian 09:  ES64L-G09RevD.01 24-Apr-2013

 --------------------
 #p B2PLYPD3/Def2QZVP
 --------------------

 ---------
 butadiene
 ---------
 Symbolic Z-matrix:
 Charge =  0 Multiplicity = 1

                         Standard orientation:
 ---------------------------------------------------------------------
 Center     Atomic      Atomic             Coordinates (Angstroms)
 Number     Number       Type             X           Y           Z
 ---------------------------------------------------------------------
      1          6           0       -1.837958   -0.098868   -0.025784
      2          6           0       -0.599065    0.382365    0.015694
      3          6           0        0.597349   -0.418326    0.016018
      4          6           0        1.837250    0.116623   -0.009207
      5          1           0       -2.673564    0.580669    0.028330
      6          1           0       -2.027024   -1.150816   -0.071095
      7          1           0       -0.424893    1.473517    0.071073
      8          1           0        0.438645   -1.488295    0.107267
      9          1           0        1.978997    1.201687   -0.062501
     10          1           0        2.722386   -0.507527   -0.053400
 ---------------------------------------------------------------------

 SCF Done:  E(RB2PLYPD3) =  -155.699527992     A.U. after   11 cycles
 E2(B2PLYPD3) =    -0.2261147695D+00 E(B2PLYPD3) =    -0.15592564276129D+03

 The electronic state is 1-A.
 Alpha  occ. eigenvalues --  -10.62662 -10.62417 -10.61998 -10.61236  -0.93115
 Alpha  occ. eigenvalues --   -0.84726  -0.70352  -0.63876  -0.54511  -0.53877
 Alpha  occ. eigenvalues --   -0.46596  -0.45788  -0.41173  -0.38123  -0.27519
 Alpha virt. eigenvalues --    0.01522   0.07027   0.07328   0.08058   0.09615
 Alpha virt. eigenvalues --    0.11724   0.12370   0.14813   0.15707   0.16081
 Alpha virt. eigenvalues --    0.18713   0.20295   0.21699   0.22820   0.23794

 Mulliken charges:
               1
     1  C   -0.183325
     2  C   -0.017262
     3  C   -0.034888
     4  C   -0.177423
     5  H    0.087704
     6  H    0.068204
     7  H    0.047606
     8  H    0.056095
     9  H    0.066245
    10  H    0.087045
 Sum of Mulliken charges =   0.00000

 Dipole moment (field-independent basis, Debye):
    X=              0.0150    Y=             -0.0220    Z=              0.0322  Tot=              0.0417
 Quadrupole moment (field-independent basis, Debye-Ang):
   XX=            -23.6112   YY=            -23.0946   ZZ=            -29.2917
   XY=              0.2351   XZ=             -0.2155   YZ=              0.0153

 1\1\GINC-NODE12\SP\RB2PLYPD3-FC\def2QZVP\C4H6\BOITTIER\26-Aug-2020\0\\
 #p B2PLYPD3/Def2QZVP\\butadiene\\0,1\C,0,-3.840705,0.219025,0.040166\C
 ,0,-2.711501,-0.482807,0.01797\C,0,-1.388277,0.083896,-0.002922\C,0,-0
 .26781,-0.668823,0.043218\H,0,-4.78712,-0.296668,0.004168\H,0,-3.83304
 4,1.288693,0.052227\H,0,-2.741033,-1.588566,-0.002993\H,0,-1.347762,1.
 161444,-0.127806\H,0,-0.327852,-1.759263,0.130573\H,0,0.717086,-0.2169
 6,0.071189\\Version=ES64L-G09RevD.01\State=1-A\HF=-155.699528\MP2=-155
 .9256428\RMSD=6.224e-09\PG=C01 [X(C4H6)]\\@

 Normal termination of Gaussian 09 at Wed Aug 26 18:05:43 2020.
