 Gaussian 09, Revision D.01,
 Gaussian 09:  ES64L-G09RevD.01 24-Apr-2013

 --------------------
 #p B2PLYPD3/Def2QZVP
 --------------------

 ---------
 butadiene
 ---------
 Symbolic Z-matrix:
 Charge =  0 Multiplicity = 1

                         Standard orientation:
 ---------------------------------------------------------------------
 Center     Atomic      Atomic             Coordinates (Angstroms)
 Number     Number       Type             X           Y           Z
 ---------------------------------------------------------------------
      1          6           0       -1.816169   -0.115291    0.029018
      2          6           0       -0.602888    0.403372   -0.039756
      3          6           0        0.586395   -0.382035   -0.036027
      4          6           0        1.826105    0.095739    0.050949
      5          1           0       -2.679708    0.512453   -0.013939
      6          1           0       -1.969246   -1.168021    0.148991
      7          1           0       -0.482914    1.485686   -0.102801
      8          1           0        0.407556   -1.465968   -0.086035
      9          1           0        2.024812    1.157027    0.134685
     10          1           0        2.738846   -0.531893   -0.106003
 ---------------------------------------------------------------------

 SCF Done:  E(RB2PLYPD3) =  -155.697890637     A.U. after   11 cycles
 E2(B2PLYPD3) =    -0.2256106354D+00 E(B2PLYPD3) =    -0.15592350127282D+03

 The electronic state is 1-A.
 Alpha  occ. eigenvalues --  -10.62375 -10.62063 -10.61802 -10.61066  -0.93614
 Alpha  occ. eigenvalues --   -0.85011  -0.70364  -0.63977  -0.54860  -0.53837
 Alpha  occ. eigenvalues --   -0.46851  -0.45454  -0.40931  -0.38434  -0.27685
 Alpha virt. eigenvalues --    0.01618   0.07023   0.07382   0.07994   0.09857
 Alpha virt. eigenvalues --    0.11736   0.12426   0.14911   0.15816   0.16069
 Alpha virt. eigenvalues --    0.18849   0.20242   0.21741   0.22460   0.23707

 Mulliken charges:
               1
     1  C   -0.177069
     2  C   -0.022872
     3  C   -0.027607
     4  C   -0.172507
     5  H    0.085992
     6  H    0.066268
     7  H    0.052350
     8  H    0.052034
     9  H    0.062271
    10  H    0.081140
 Sum of Mulliken charges =   0.00000

 Dipole moment (field-independent basis, Debye):
    X=             -0.0735    Y=              0.0359    Z=             -0.0650  Tot=              0.1045
 Quadrupole moment (field-independent basis, Debye-Ang):
   XX=            -23.4968   YY=            -23.2496   ZZ=            -29.1149
   XY=              0.2733   XZ=             -0.3012   YZ=              0.0180

 1\1\GINC-NODE14\SP\RB2PLYPD3-FC\def2QZVP\C4H6\BOITTIER\26-Aug-2020\0\\
 #p B2PLYPD3/Def2QZVP\\butadiene\\0,1\C,0,-3.815316,0.231201,-0.013987\
 C,0,-2.717945,-0.499202,0.075897\C,0,-1.404553,0.053724,0.0525\C,0,-0.
 273956,-0.646262,-0.014457\H,0,-4.779464,-0.225465,0.045024\H,0,-3.772
 462,1.289831,-0.167394\H,0,-2.798874,-1.582602,0.173193\H,0,-1.380992,
 1.153089,0.067911\H,0,-0.273883,-1.72809,-0.064205\H,0,0.738881,-0.192
 464,0.126545\\Version=ES64L-G09RevD.01\State=1-A\HF=-155.6978906\MP2=-
 155.9235013\RMSD=5.258e-09\PG=C01 [X(C4H6)]\\@

 Normal termination of Gaussian 09 at Wed Aug 26 09:50:59 2020.
