 Gaussian 09, Revision D.01,
 Gaussian 09:  ES64L-G09RevD.01 24-Apr-2013

 --------------------
 #p B2PLYPD3/Def2QZVP
 --------------------

 ---------
 butadiene
 ---------
 Symbolic Z-matrix:
 Charge =  0 Multiplicity = 1

                         Standard orientation:
 ---------------------------------------------------------------------
 Center     Atomic      Atomic             Coordinates (Angstroms)
 Number     Number       Type             X           Y           Z
 ---------------------------------------------------------------------
      1          6           0       -1.843576   -0.122735    0.007634
      2          6           0       -0.607597    0.399962   -0.035590
      3          6           0        0.631111   -0.374425   -0.060186
      4          6           0        1.839602    0.097908    0.036799
      5          1           0       -2.625829    0.469919   -0.076630
      6          1           0       -2.082419   -1.167882    0.361625
      7          1           0       -0.633094    1.535210    0.004173
      8          1           0        0.454010   -1.408642   -0.166203
      9          1           0        2.087601    1.126836    0.151566
     10          1           0        2.682489   -0.559700    0.033534
 ---------------------------------------------------------------------

 SCF Done:  E(RB2PLYPD3) =  -155.681502686     A.U. after   11 cycles
 E2(B2PLYPD3) =    -0.2251699381D+00 E(B2PLYPD3) =    -0.15590667262380D+03

 The electronic state is 1-A.
 Alpha  occ. eigenvalues --  -10.63110 -10.61932 -10.60870 -10.60802  -0.93092
 Alpha  occ. eigenvalues --   -0.85715  -0.70969  -0.63643  -0.55454  -0.54068
 Alpha  occ. eigenvalues --   -0.47802  -0.45047  -0.40915  -0.37819  -0.27814
 Alpha virt. eigenvalues --    0.01590   0.07084   0.07531   0.08005   0.09580
 Alpha virt. eigenvalues --    0.11556   0.12409   0.14806   0.15855   0.16595
 Alpha virt. eigenvalues --    0.18920   0.20071   0.21893   0.22384   0.23688

 Mulliken charges:
               1
     1  C   -0.176653
     2  C   -0.038653
     3  C   -0.035092
     4  C   -0.163877
     5  H    0.085119
     6  H    0.061669
     7  H    0.046388
     8  H    0.068659
     9  H    0.071606
    10  H    0.080835
 Sum of Mulliken charges =   0.00000

 Dipole moment (field-independent basis, Debye):
    X=              0.0406    Y=              0.0496    Z=              0.2392  Tot=              0.2476
 Quadrupole moment (field-independent basis, Debye-Ang):
   XX=            -23.2157   YY=            -23.3451   ZZ=            -28.9122
   XY=              0.0305   XZ=             -0.1897   YZ=             -0.0853

 1\1\GINC-NODE20\SP\RB2PLYPD3-FC\def2QZVP\C4H6\BOITTIER\26-Aug-2020\0\\
 #p B2PLYPD3/Def2QZVP\\butadiene\\0,1\C,0,-3.84679,0.233231,-0.000367\C
 ,0,-2.72348,-0.499014,0.068303\C,0,-1.366642,0.042898,0.067929\C,0,-0.
 261811,-0.640403,-0.005576\H,0,-4.721807,-0.206986,0.103619\H,0,-3.896
 769,1.289583,-0.395727\H,0,-2.950768,-1.612271,0.072612\H,0,-1.356513,
 1.095459,0.132907\H,0,-0.201258,-1.700724,-0.079208\H,0,0.68468,-0.143
 697,-0.024374\\Version=ES64L-G09RevD.01\State=1-A\HF=-155.6815027\MP2=
 -155.9066726\RMSD=8.739e-09\PG=C01 [X(C4H6)]\\@

 Normal termination of Gaussian 09 at Wed Aug 26 14:05:27 2020.
