 Gaussian 09, Revision D.01,
 Gaussian 09:  ES64L-G09RevD.01 24-Apr-2013

 --------------------
 #p B2PLYPD3/Def2QZVP
 --------------------

 ---------
 butadiene
 ---------
 Symbolic Z-matrix:
 Charge =  0 Multiplicity = 1

                         Standard orientation:
 ---------------------------------------------------------------------
 Center     Atomic      Atomic             Coordinates (Angstroms)
 Number     Number       Type             X           Y           Z
 ---------------------------------------------------------------------
      1          6           0        1.838491    0.096097   -0.025570
      2          6           0        0.590433   -0.392314    0.011472
      3          6           0       -0.611507    0.429330    0.028574
      4          6           0       -1.824272   -0.121193   -0.006663
      5          1           0        2.638011   -0.592711    0.008854
      6          1           0        2.123543    1.151533   -0.097201
      7          1           0        0.433856   -1.427716    0.105784
      8          1           0       -0.475943    1.503826    0.131251
      9          1           0       -1.968242   -1.189851   -0.076892
     10          1           0       -2.710095    0.483394   -0.118669
 ---------------------------------------------------------------------

 SCF Done:  E(RB2PLYPD3) =  -155.698042217     A.U. after   11 cycles
 E2(B2PLYPD3) =    -0.2255472986D+00 E(B2PLYPD3) =    -0.15592358951552D+03

 The electronic state is 1-A.
 Alpha  occ. eigenvalues --  -10.62480 -10.62179 -10.61382 -10.61320  -0.93031
 Alpha  occ. eigenvalues --   -0.84866  -0.70294  -0.64448  -0.54675  -0.53962
 Alpha  occ. eigenvalues --   -0.46766  -0.45913  -0.41285  -0.37872  -0.27605
 Alpha virt. eigenvalues --    0.01782   0.07069   0.07442   0.08142   0.09385
 Alpha virt. eigenvalues --    0.11667   0.12451   0.14916   0.15753   0.16092
 Alpha virt. eigenvalues --    0.18783   0.20317   0.21819   0.22741   0.23923

 Mulliken charges:
               1
     1  C   -0.180569
     2  C   -0.037737
     3  C   -0.034017
     4  C   -0.171352
     5  H    0.081043
     6  H    0.070102
     7  H    0.064012
     8  H    0.063184
     9  H    0.063731
    10  H    0.081603
 Sum of Mulliken charges =   0.00000

 Dipole moment (field-independent basis, Debye):
    X=             -0.0171    Y=             -0.0033    Z=             -0.0220  Tot=              0.0281
 Quadrupole moment (field-independent basis, Debye-Ang):
   XX=            -23.6422   YY=            -22.9770   ZZ=            -29.1822
   XY=              0.3734   XZ=              0.3303   YZ=             -0.0770

 1\1\GINC-NODE37\SP\RB2PLYPD3-FC\def2QZVP\C4H6\BOITTIER\26-Aug-2020\0\\
 #p B2PLYPD3/Def2QZVP\\butadiene\\0,1\C,0,-3.842202,0.219045,0.040186\C
 ,0,-2.706016,-0.492527,0.022462\C,0,-1.372903,0.091918,-0.013382\C,0,-
 0.282796,-0.672036,0.04279\H,0,-4.755338,-0.310803,0.02236\H,0,-3.9271
 02,1.310617,0.080101\H,0,-2.743701,-1.541332,-0.041237\H,0,-1.307588,1
 .169495,-0.147631\H,0,-0.338811,-1.746379,0.144471\H,0,0.699681,-0.238
 612,0.140957\\Version=ES64L-G09RevD.01\State=1-A\HF=-155.6980422\MP2=-
 155.9235895\RMSD=2.521e-09\PG=C01 [X(C4H6)]\\@

 Normal termination of Gaussian 09 at Wed Aug 26 09:30:32 2020.
