 Gaussian 09, Revision D.01,
 Gaussian 09:  ES64L-G09RevD.01 24-Apr-2013

 --------------------
 #p B2PLYPD3/Def2QZVP
 --------------------

 ---------
 butadiene
 ---------
 Symbolic Z-matrix:
 Charge =  0 Multiplicity = 1

                         Standard orientation:
 ---------------------------------------------------------------------
 Center     Atomic      Atomic             Coordinates (Angstroms)
 Number     Number       Type             X           Y           Z
 ---------------------------------------------------------------------
      1          6           0        1.834337   -0.114617    0.001886
      2          6           0        0.594810    0.392428    0.004263
      3          6           0       -0.608739   -0.413795    0.001434
      4          6           0       -1.826056    0.117455   -0.007043
      5          1           0        2.669213    0.567862   -0.039061
      6          1           0        2.027307   -1.155139   -0.047129
      7          1           0        0.470313    1.489657    0.077414
      8          1           0       -0.489937   -1.504740    0.051044
      9          1           0       -1.925986    1.217926   -0.054546
     10          1           0       -2.717018   -0.504385    0.009034
 ---------------------------------------------------------------------

 SCF Done:  E(RB2PLYPD3) =  -155.699363142     A.U. after   11 cycles
 E2(B2PLYPD3) =    -0.2259011884D+00 E(B2PLYPD3) =    -0.15592526433086D+03

 The electronic state is 1-A.
 Alpha  occ. eigenvalues --  -10.62688 -10.62457 -10.61680 -10.61191  -0.93076
 Alpha  occ. eigenvalues --   -0.84944  -0.69913  -0.63752  -0.54506  -0.53964
 Alpha  occ. eigenvalues --   -0.46258  -0.45606  -0.41265  -0.38175  -0.27659
 Alpha virt. eigenvalues --    0.01829   0.07030   0.07290   0.07995   0.09551
 Alpha virt. eigenvalues --    0.11746   0.12362   0.14732   0.15793   0.16038
 Alpha virt. eigenvalues --    0.18645   0.20329   0.21520   0.22865   0.24092

 Mulliken charges:
               1
     1  C   -0.181904
     2  C   -0.025680
     3  C   -0.029575
     4  C   -0.173882
     5  H    0.083867
     6  H    0.071118
     7  H    0.051406
     8  H    0.052988
     9  H    0.063397
    10  H    0.088266
 Sum of Mulliken charges =   0.00000

 Dipole moment (field-independent basis, Debye):
    X=             -0.0189    Y=             -0.0359    Z=             -0.0067  Tot=              0.0411
 Quadrupole moment (field-independent basis, Debye-Ang):
   XX=            -23.7512   YY=            -22.9764   ZZ=            -29.2890
   XY=             -0.0421   XZ=             -0.1378   YZ=             -0.0116

 1\1\GINC-NODE12\SP\RB2PLYPD3-FC\def2QZVP\C4H6\BOITTIER\26-Aug-2020\0\\
 #p B2PLYPD3/Def2QZVP\\butadiene\\0,1\C,0,-3.837375,0.224443,0.018612\C
 ,0,-2.7087,-0.49612,0.038905\C,0,-1.380226,0.081105,0.016497\C,0,-0.27
 7763,-0.659593,0.026567\H,0,-4.781078,-0.298365,-0.005227\H,0,-3.84098
 ,1.280873,-0.060554\H,0,-2.782561,-1.595366,0.14362\H,0,-1.301601,1.17
 6652,0.034687\H,0,-0.376657,-1.761068,0.010701\H,0,0.7102,-0.207173,0.
 02743\\Version=ES64L-G09RevD.01\State=1-A\HF=-155.6993631\MP2=-155.925
 2643\RMSD=5.738e-09\PG=C01 [X(C4H6)]\\@

 Normal termination of Gaussian 09 at Wed Aug 26 08:51:11 2020.
