 Gaussian 09, Revision D.01,
 Gaussian 09:  ES64L-G09RevD.01 24-Apr-2013

 --------------------
 #p B2PLYPD3/Def2QZVP
 --------------------

 ---------
 butadiene
 ---------
 Symbolic Z-matrix:
 Charge =  0 Multiplicity = 1

                         Standard orientation:
 ---------------------------------------------------------------------
 Center     Atomic      Atomic             Coordinates (Angstroms)
 Number     Number       Type             X           Y           Z
 ---------------------------------------------------------------------
      1          6           0       -1.832087   -0.110618   -0.046831
      2          6           0       -0.610591    0.387868    0.068586
      3          6           0        0.605667   -0.388482    0.028605
      4          6           0        1.853591    0.104917   -0.027362
      5          1           0       -2.696888    0.549477   -0.061172
      6          1           0       -2.075590   -1.168395    0.017383
      7          1           0       -0.530446    1.468204   -0.025059
      8          1           0        0.426101   -1.422134    0.014197
      9          1           0        2.044309    1.129218   -0.023727
     10          1           0        2.733034   -0.518480   -0.059602
 ---------------------------------------------------------------------

 SCF Done:  E(RB2PLYPD3) =  -155.696874073     A.U. after   11 cycles
 E2(B2PLYPD3) =    -0.2253801396D+00 E(B2PLYPD3) =    -0.15592225421216D+03

 The electronic state is 1-A.
 Alpha  occ. eigenvalues --  -10.62286 -10.62224 -10.61533 -10.61234  -0.93227
 Alpha  occ. eigenvalues --   -0.85083  -0.70838  -0.64475  -0.54850  -0.54197
 Alpha  occ. eigenvalues --   -0.47019  -0.45794  -0.40914  -0.38260  -0.27728
 Alpha virt. eigenvalues --    0.01519   0.06981   0.07606   0.08109   0.09678
 Alpha virt. eigenvalues --    0.11680   0.12524   0.14919   0.15644   0.16317
 Alpha virt. eigenvalues --    0.18948   0.19918   0.22244   0.22939   0.23727

 Mulliken charges:
               1
     1  C   -0.169091
     2  C   -0.027758
     3  C   -0.036314
     4  C   -0.175544
     5  H    0.077580
     6  H    0.063190
     7  H    0.054750
     8  H    0.060097
     9  H    0.069327
    10  H    0.083762
 Sum of Mulliken charges =   0.00000

 Dipole moment (field-independent basis, Debye):
    X=             -0.0359    Y=              0.0029    Z=             -0.0493  Tot=              0.0611
 Quadrupole moment (field-independent basis, Debye-Ang):
   XX=            -23.1633   YY=            -23.2615   ZZ=            -29.1445
   XY=              0.3038   XZ=             -0.0490   YZ=             -0.1244

 1\1\GINC-NODE40\SP\RB2PLYPD3-FC\def2QZVP\C4H6\BOITTIER\26-Aug-2020\0\\
 #p B2PLYPD3/Def2QZVP\\butadiene\\0,1\C,0,-3.83556,0.226899,0.065128\C,
 0,-2.725013,-0.488642,-0.027332\C,0,-1.388151,0.055642,-0.014897\C,0,-
 0.249904,-0.652946,0.06376\H,0,-4.805482,-0.264636,0.103292\H,0,-3.883
 87,1.307924,-0.04146\H,0,-2.841309,-1.561103,0.10913\H,0,-1.377586,1.1
 04476,-0.041805\H,0,-0.247759,-1.694186,0.101092\H,0,0.72799,-0.198292
 ,0.073628\\Version=ES64L-G09RevD.01\State=1-A\HF=-155.6968741\MP2=-155
 .9222542\RMSD=5.642e-09\PG=C01 [X(C4H6)]\\@

 Normal termination of Gaussian 09 at Wed Aug 26 11:05:23 2020.
