 Gaussian 09, Revision D.01,
 Gaussian 09:  ES64L-G09RevD.01 24-Apr-2013

 --------------------
 #p B2PLYPD3/Def2QZVP
 --------------------

 ---------
 butadiene
 ---------
 Symbolic Z-matrix:
 Charge =  0 Multiplicity = 1

                         Standard orientation:
 ---------------------------------------------------------------------
 Center     Atomic      Atomic             Coordinates (Angstroms)
 Number     Number       Type             X           Y           Z
 ---------------------------------------------------------------------
      1          6           0        1.851898    0.095729   -0.009690
      2          6           0        0.607666   -0.391254    0.018865
      3          6           0       -0.621969    0.419815    0.040052
      4          6           0       -1.828693   -0.121947   -0.033290
      5          1           0        2.737272   -0.505491   -0.021064
      6          1           0        2.064878    1.185806   -0.014307
      7          1           0        0.461149   -1.469730   -0.079493
      8          1           0       -0.571268    1.500762   -0.033613
      9          1           0       -1.984490   -1.212073    0.094886
     10          1           0       -2.760948    0.486660   -0.042032
 ---------------------------------------------------------------------

 SCF Done:  E(RB2PLYPD3) =  -155.696350146     A.U. after   11 cycles
 E2(B2PLYPD3) =    -0.2260348629D+00 E(B2PLYPD3) =    -0.15592238500896D+03

 The electronic state is 1-A.
 Alpha  occ. eigenvalues --  -10.62986 -10.62655 -10.61970 -10.61736  -0.92739
 Alpha  occ. eigenvalues --   -0.84932  -0.69596  -0.63857  -0.54593  -0.53530
 Alpha  occ. eigenvalues --   -0.46875  -0.44676  -0.40830  -0.37977  -0.27962
 Alpha virt. eigenvalues --    0.01864   0.07020   0.07371   0.07947   0.09297
 Alpha virt. eigenvalues --    0.11567   0.12476   0.14426   0.15720   0.16303
 Alpha virt. eigenvalues --    0.18916   0.20025   0.21708   0.22936   0.23568

 Mulliken charges:
               1
     1  C   -0.169637
     2  C   -0.039076
     3  C   -0.034223
     4  C   -0.162893
     5  H    0.086054
     6  H    0.060004
     7  H    0.059414
     8  H    0.061752
     9  H    0.061483
    10  H    0.077122
 Sum of Mulliken charges =   0.00000

 Dipole moment (field-independent basis, Debye):
    X=             -0.0190    Y=              0.0177    Z=             -0.0399  Tot=              0.0476
 Quadrupole moment (field-independent basis, Debye-Ang):
   XX=            -23.2634   YY=            -23.2453   ZZ=            -29.3233
   XY=              0.0773   XZ=             -0.1707   YZ=             -0.0990

 1\1\GINC-NODE38\SP\RB2PLYPD3-FC\def2QZVP\C4H6\BOITTIER\26-Aug-2020\0\\
 #p B2PLYPD3/Def2QZVP\\butadiene\\0,1\C,0,-3.857067,0.206604,0.034216\C
 ,0,-2.718643,-0.493245,0.017402\C,0,-1.365098,0.086894,-0.023085\C,0,-
 0.272851,-0.657824,0.063276\H,0,-4.834722,-0.228155,0.0599\H,0,-3.8739
 79,1.316965,0.012752\H,0,-2.764668,-1.578015,0.14153\H,0,-1.223615,1.1
 61203,0.024709\H,0,-0.312744,-1.761033,-0.038787\H,0,0.752335,-0.22361
 3,0.057529\\Version=ES64L-G09RevD.01\State=1-A\HF=-155.6963501\MP2=-15
 5.922385\RMSD=3.311e-09\PG=C01 [X(C4H6)]\\@

 Normal termination of Gaussian 09 at Wed Aug 26 08:54:04 2020.
