 Gaussian 09, Revision D.01,
 Gaussian 09:  ES64L-G09RevD.01 24-Apr-2013

 --------------------
 #p B2PLYPD3/Def2QZVP
 --------------------

 ---------
 butadiene
 ---------
 Symbolic Z-matrix:
 Charge =  0 Multiplicity = 1

                         Standard orientation:
 ---------------------------------------------------------------------
 Center     Atomic      Atomic             Coordinates (Angstroms)
 Number     Number       Type             X           Y           Z
 ---------------------------------------------------------------------
      1          6           0       -1.845821    0.100895   -0.021090
      2          6           0       -0.604753   -0.403185    0.015424
      3          6           0        0.609204    0.401700    0.012211
      4          6           0        1.852908   -0.117690   -0.010942
      5          1           0       -2.794117   -0.471202   -0.073695
      6          1           0       -1.988943    1.167354    0.135273
      7          1           0       -0.474397   -1.463926    0.013473
      8          1           0        0.436752    1.471177   -0.057186
      9          1           0        2.054927   -1.190319    0.045299
     10          1           0        2.696551    0.596598   -0.036776
 ---------------------------------------------------------------------

 SCF Done:  E(RB2PLYPD3) =  -155.696601447     A.U. after   11 cycles
 E2(B2PLYPD3) =    -0.2264981155D+00 E(B2PLYPD3) =    -0.15592309956240D+03

 The electronic state is 1-A.
 Alpha  occ. eigenvalues --  -10.62871 -10.62497 -10.62216 -10.61943  -0.92807
 Alpha  occ. eigenvalues --   -0.84549  -0.69966  -0.64228  -0.54239  -0.53645
 Alpha  occ. eigenvalues --   -0.46719  -0.45420  -0.41013  -0.37925  -0.27553
 Alpha virt. eigenvalues --    0.01445   0.06946   0.07409   0.08030   0.09371
 Alpha virt. eigenvalues --    0.11647   0.12364   0.14623   0.15724   0.16187
 Alpha virt. eigenvalues --    0.18817   0.20268   0.21464   0.22985   0.23608

 Mulliken charges:
               1
     1  C   -0.172094
     2  C   -0.029157
     3  C   -0.035980
     4  C   -0.178515
     5  H    0.082612
     6  H    0.058660
     7  H    0.056939
     8  H    0.058410
     9  H    0.075141
    10  H    0.083985
 Sum of Mulliken charges =   0.00000

 Dipole moment (field-independent basis, Debye):
    X=             -0.0175    Y=             -0.0149    Z=              0.0523  Tot=              0.0571
 Quadrupole moment (field-independent basis, Debye-Ang):
   XX=            -23.4658   YY=            -23.1914   ZZ=            -29.3705
   XY=             -0.2255   XZ=             -0.0782   YZ=              0.0350

 1\1\GINC-NODE28\SP\RB2PLYPD3-FC\def2QZVP\C4H6\BOITTIER\26-Aug-2020\0\\
 #p B2PLYPD3/Def2QZVP\\butadiene\\0,1\C,0,-3.85067,0.218851,-0.000887\C
 ,0,-2.720793,-0.499716,0.05128\C,0,-1.381548,0.072421,0.026287\C,0,-0.
 252091,-0.663363,0.019252\H,0,-4.886843,-0.173945,-0.038075\H,0,-3.798
 35,1.297618,0.124778\H,0,-2.783995,-1.566187,0.079787\H,0,-1.358472,1.
 15306,-0.073831\H,0,-0.246709,-1.752809,0.10634\H,0,0.70648,-0.1141,-0
 .026137\\Version=ES64L-G09RevD.01\State=1-A\HF=-155.6966014\MP2=-155.9
 230996\RMSD=5.726e-09\PG=C01 [X(C4H6)]\\@

 Normal termination of Gaussian 09 at Wed Aug 26 09:20:54 2020.
