 Gaussian 09, Revision D.01,
 Gaussian 09:  ES64L-G09RevD.01 24-Apr-2013

 --------------------
 #p B2PLYPD3/Def2QZVP
 --------------------

 ---------
 butadiene
 ---------
 Symbolic Z-matrix:
 Charge =  0 Multiplicity = 1

                         Standard orientation:
 ---------------------------------------------------------------------
 Center     Atomic      Atomic             Coordinates (Angstroms)
 Number     Number       Type             X           Y           Z
 ---------------------------------------------------------------------
      1          6           0       -1.817354   -0.130783   -0.088550
      2          6           0       -0.604331    0.444246    0.054642
      3          6           0        0.612104   -0.363568    0.082339
      4          6           0        1.816823    0.082376   -0.061018
      5          1           0       -2.769500    0.363113    0.193091
      6          1           0       -1.969550   -1.267948   -0.211579
      7          1           0       -0.550034    1.602557    0.053829
      8          1           0        0.551314   -1.476085    0.210936
      9          1           0        2.016383    1.118970   -0.126949
     10          1           0        2.677937   -0.534231   -0.043812
 ---------------------------------------------------------------------

 SCF Done:  E(RB2PLYPD3) =  -155.681385793     A.U. after   12 cycles
 E2(B2PLYPD3) =    -0.2265321259D+00 E(B2PLYPD3) =    -0.15590791791912D+03

 The electronic state is 1-A.
 Alpha  occ. eigenvalues --  -10.63973 -10.62714 -10.62323 -10.60264  -0.93088
 Alpha  occ. eigenvalues --   -0.85126  -0.69503  -0.63084  -0.54730  -0.53579
 Alpha  occ. eigenvalues --   -0.46795  -0.44174  -0.40637  -0.37824  -0.27963
 Alpha virt. eigenvalues --    0.01593   0.06992   0.07103   0.07762   0.09624
 Alpha virt. eigenvalues --    0.11461   0.12568   0.14251   0.15734   0.16396
 Alpha virt. eigenvalues --    0.18781   0.19508   0.21898   0.22337   0.23764

 Mulliken charges:
               1
     1  C   -0.156875
     2  C   -0.049273
     3  C   -0.019835
     4  C   -0.161896
     5  H    0.079591
     6  H    0.053023
     7  H    0.062155
     8  H    0.051670
     9  H    0.058611
    10  H    0.082830
 Sum of Mulliken charges =   0.00000

 Dipole moment (field-independent basis, Debye):
    X=              0.1128    Y=             -0.0032    Z=              0.1633  Tot=              0.1985
 Quadrupole moment (field-independent basis, Debye-Ang):
   XX=            -23.4386   YY=            -23.3035   ZZ=            -29.1902
   XY=              0.1178   XZ=             -0.5105   YZ=              0.0536

 1\1\GINC-NODE04\SP\RB2PLYPD3-FC\def2QZVP\C4H6\BOITTIER\26-Aug-2020\0\\
 #p B2PLYPD3/Def2QZVP\\butadiene\\0,1\C,0,-3.817934,0.239025,0.098061\C
 ,0,-2.725217,-0.543922,-0.026638\C,0,-1.385236,0.035803,-0.064231\C,0,
 -0.278415,-0.612582,0.09486\H,0,-4.841811,-0.084963,-0.178606\H,0,-3.7
 67216,1.387548,0.196888\H,0,-2.876249,-1.693359,-0.001753\H,0,-1.24845
 1,1.138615,-0.215966\H,0,-0.265096,-1.666492,0.183147\H,0,0.678053,-0.
 158101,0.069729\\Version=ES64L-G09RevD.01\State=1-A\HF=-155.6813858\MP
 2=-155.9079179\RMSD=3.619e-09\PG=C01 [X(C4H6)]\\@

 Normal termination of Gaussian 09 at Wed Aug 26 14:08:09 2020.
