 Gaussian 09, Revision D.01,
 Gaussian 09:  ES64L-G09RevD.01 24-Apr-2013

 --------------------
 #p B2PLYPD3/Def2QZVP
 --------------------

 ---------
 butadiene
 ---------
 Symbolic Z-matrix:
 Charge =  0 Multiplicity = 1

                         Standard orientation:
 ---------------------------------------------------------------------
 Center     Atomic      Atomic             Coordinates (Angstroms)
 Number     Number       Type             X           Y           Z
 ---------------------------------------------------------------------
      1          6           0       -1.842282   -0.107774    0.048681
      2          6           0       -0.631484    0.337025   -0.081237
      3          6           0        0.622329   -0.392553   -0.056015
      4          6           0        1.853166    0.125961    0.076452
      5          1           0       -2.597304    0.644529    0.286687
      6          1           0       -2.063482   -1.088221   -0.088029
      7          1           0       -0.517402    1.390055   -0.124526
      8          1           0        0.503966   -1.456733   -0.017448
      9          1           0        1.942113    1.239239   -0.068095
     10          1           0        2.721741   -0.504821    0.084126
 ---------------------------------------------------------------------

 SCF Done:  E(RB2PLYPD3) =  -155.685930950     A.U. after   12 cycles
 E2(B2PLYPD3) =    -0.2251661306D+00 E(B2PLYPD3) =    -0.15591109708102D+03

 The electronic state is 1-A.
 Alpha  occ. eigenvalues --  -10.62417 -10.62052 -10.61457 -10.60389  -0.93492
 Alpha  occ. eigenvalues --   -0.85738  -0.70471  -0.64317  -0.54938  -0.54262
 Alpha  occ. eigenvalues --   -0.47247  -0.45926  -0.41046  -0.37739  -0.27948
 Alpha virt. eigenvalues --    0.01634   0.06910   0.07645   0.08044   0.09886
 Alpha virt. eigenvalues --    0.11811   0.12277   0.14899   0.15562   0.16380
 Alpha virt. eigenvalues --    0.18781   0.19278   0.21333   0.23248   0.24722

 Mulliken charges:
               1
     1  C   -0.187025
     2  C   -0.007477
     3  C   -0.044718
     4  C   -0.170692
     5  H    0.084757
     6  H    0.078347
     7  H    0.046558
     8  H    0.049137
     9  H    0.060269
    10  H    0.090842
 Sum of Mulliken charges =   0.00000

 Dipole moment (field-independent basis, Debye):
    X=             -0.0530    Y=             -0.0566    Z=             -0.0498  Tot=              0.0922
 Quadrupole moment (field-independent basis, Debye-Ang):
   XX=            -23.7215   YY=            -23.2452   ZZ=            -28.9340
   XY=             -0.1407   XZ=             -0.4351   YZ=              0.0792

 1\1\GINC-NODE32\SP\RB2PLYPD3-FC\def2QZVP\C4H6\BOITTIER\26-Aug-2020\0\\
 #p B2PLYPD3/Def2QZVP\\butadiene\\0,1\C,0,-3.848569,0.206865,-0.036074\
 C,0,-2.733721,-0.438793,0.108822\C,0,-1.372101,0.060976,0.074331\C,0,-
 0.250068,-0.666346,-0.041466\H,0,-4.72268,-0.40762,-0.261915\H,0,-3.89
 6017,1.213531,0.079113\H,0,-2.804568,-1.494452,0.174598\H,0,-1.303534,
 1.128457,0.013022\H,0,-0.356251,-1.774788,0.126682\H,0,0.714985,-0.196
 493,-0.058178\\Version=ES64L-G09RevD.01\State=1-A\HF=-155.685931\MP2=-
 155.9110971\RMSD=2.746e-09\PG=C01 [X(C4H6)]\\@

 Normal termination of Gaussian 09 at Wed Aug 26 13:54:07 2020.
