 Gaussian 09, Revision D.01,
 Gaussian 09:  ES64L-G09RevD.01 24-Apr-2013

 --------------------
 #p B2PLYPD3/Def2QZVP
 --------------------

 ---------
 butadiene
 ---------
 Symbolic Z-matrix:
 Charge =  0 Multiplicity = 1

                         Standard orientation:
 ---------------------------------------------------------------------
 Center     Atomic      Atomic             Coordinates (Angstroms)
 Number     Number       Type             X           Y           Z
 ---------------------------------------------------------------------
      1          6           0        1.843718   -0.076999   -0.082163
      2          6           0        0.583873    0.337652    0.054326
      3          6           0       -0.619189   -0.432784    0.037531
      4          6           0       -1.816428    0.137423   -0.063383
      5          1           0        2.755480    0.541353    0.090942
      6          1           0        2.021035   -1.142692   -0.152082
      7          1           0        0.531934    1.476252    0.197164
      8          1           0       -0.534047   -1.498983    0.306428
      9          1           0       -1.921008    1.272939   -0.061895
     10          1           0       -2.805233   -0.440619   -0.058422
 ---------------------------------------------------------------------

 SCF Done:  E(RB2PLYPD3) =  -155.683815102     A.U. after   11 cycles
 E2(B2PLYPD3) =    -0.2273308518D+00 E(B2PLYPD3) =    -0.15591114595343D+03

 The electronic state is 1-A.
 Alpha  occ. eigenvalues --  -10.63153 -10.62964 -10.62895 -10.61627  -0.93302
 Alpha  occ. eigenvalues --   -0.84768  -0.69598  -0.62988  -0.54104  -0.53556
 Alpha  occ. eigenvalues --   -0.47279  -0.43623  -0.40905  -0.37492  -0.27915
 Alpha virt. eigenvalues --    0.01386   0.06914   0.07124   0.07594   0.09686
 Alpha virt. eigenvalues --    0.11420   0.12385   0.14254   0.15284   0.16576
 Alpha virt. eigenvalues --    0.18896   0.19353   0.21429   0.22012   0.23656

 Mulliken charges:
               1
     1  C   -0.167418
     2  C   -0.021125
     3  C   -0.043857
     4  C   -0.159019
     5  H    0.083984
     6  H    0.051854
     7  H    0.042707
     8  H    0.067587
     9  H    0.065089
    10  H    0.080196
 Sum of Mulliken charges =   0.00000

 Dipole moment (field-independent basis, Debye):
    X=             -0.1407    Y=             -0.0368    Z=              0.3552  Tot=              0.3838
 Quadrupole moment (field-independent basis, Debye-Ang):
   XX=            -23.3156   YY=            -23.5850   ZZ=            -29.2875
   XY=              0.0749   XZ=              0.2145   YZ=             -0.0001

 1\1\GINC-NODE33\SP\RB2PLYPD3-FC\def2QZVP\C4H6\BOITTIER\26-Aug-2020\0\\
 #p B2PLYPD3/Def2QZVP\\butadiene\\0,1\C,0,-3.856398,0.178413,-0.052194\
 C,0,-2.688035,-0.447452,0.092702\C,0,-1.368903,0.100434,0.062307\C,0,-
 0.29,-0.67199,-0.027308\H,0,-4.861719,-0.267791,0.13183\H,0,-3.844949,
 1.257226,-0.141988\H,0,-2.835478,-1.574786,0.256683\H,0,-1.265704,1.16
 9863,0.311314\H,0,-0.385451,-1.808085,-0.004679\H,0,0.78461,-0.275659,
 -0.032504\\Version=ES64L-G09RevD.01\State=1-A\HF=-155.6838151\MP2=-155
 .911146\RMSD=7.213e-09\PG=C01 [X(C4H6)]\\@

 Normal termination of Gaussian 09 at Wed Aug 26 16:09:05 2020.
