 Gaussian 09, Revision D.01,
 Gaussian 09:  ES64L-G09RevD.01 24-Apr-2013

 --------------------
 #p B2PLYPD3/Def2QZVP
 --------------------

 ---------
 butadiene
 ---------
 Symbolic Z-matrix:
 Charge =  0 Multiplicity = 1

                         Standard orientation:
 ---------------------------------------------------------------------
 Center     Atomic      Atomic             Coordinates (Angstroms)
 Number     Number       Type             X           Y           Z
 ---------------------------------------------------------------------
      1          6           0        1.864027    0.128343   -0.009066
      2          6           0        0.637366   -0.460184    0.003774
      3          6           0       -0.606429    0.357685    0.068022
      4          6           0       -1.856971   -0.075142   -0.051656
      5          1           0        2.811643   -0.473586   -0.101108
      6          1           0        1.861433    1.284456   -0.219770
      7          1           0        0.373943   -1.438819    0.245155
      8          1           0       -0.438937    1.456584    0.204872
      9          1           0       -2.193346   -1.116001   -0.147668
     10          1           0       -2.642701    0.583152   -0.047928
 ---------------------------------------------------------------------

 SCF Done:  E(RB2PLYPD3) =  -155.677758569     A.U. after   12 cycles
 E2(B2PLYPD3) =    -0.2273900274D+00 E(B2PLYPD3) =    -0.15590514859634D+03

 The electronic state is 1-A.
 Alpha  occ. eigenvalues --  -10.63750 -10.63025 -10.62951 -10.61002  -0.92403
 Alpha  occ. eigenvalues --   -0.84596  -0.70163  -0.63820  -0.54762  -0.52507
 Alpha  occ. eigenvalues --   -0.47490  -0.44940  -0.40414  -0.37063  -0.28006
 Alpha virt. eigenvalues --    0.01419   0.06896   0.07351   0.07990   0.08991
 Alpha virt. eigenvalues --    0.11479   0.12341   0.14380   0.15059   0.16114
 Alpha virt. eigenvalues --    0.18871   0.19758   0.21375   0.21978   0.23985

 Mulliken charges:
               1
     1  C   -0.166887
     2  C   -0.046083
     3  C   -0.026644
     4  C   -0.178654
     5  H    0.088894
     6  H    0.062682
     7  H    0.074451
     8  H    0.047046
     9  H    0.058226
    10  H    0.086970
 Sum of Mulliken charges =   0.00000

 Dipole moment (field-independent basis, Debye):
    X=             -0.0752    Y=             -0.0718    Z=             -0.0127  Tot=              0.1047
 Quadrupole moment (field-independent basis, Debye-Ang):
   XX=            -23.3830   YY=            -23.4728   ZZ=            -29.3202
   XY=              0.2406   XZ=             -0.1944   YZ=             -0.1955

 1\1\GINC-NODE18\SP\RB2PLYPD3-FC\def2QZVP\C4H6\BOITTIER\26-Aug-2020\0\\
 #p B2PLYPD3/Def2QZVP\\butadiene\\0,1\C,0,-3.85564,0.255523,0.033028\C,
 0,-2.756973,-0.54703,0.024877\C,0,-1.384941,0.029611,-0.04637\C,0,-0.2
 34163,-0.623139,0.076694\H,0,-4.897019,-0.162627,0.130225\H,0,-3.64179
 6,1.39343,0.234119\H,0,-2.676935,-1.559233,-0.208408\H,0,-1.34935,1.13
 9473,-0.192318\H,0,-0.093185,-1.707085,0.181296\H,0,0.65848,-0.119316,
 0.067368\\Version=ES64L-G09RevD.01\State=1-A\HF=-155.6777586\MP2=-155.
 9051486\RMSD=4.066e-09\PG=C01 [X(C4H6)]\\@

 Normal termination of Gaussian 09 at Wed Aug 26 11:32:49 2020.
