 Gaussian 09, Revision D.01,
 Gaussian 09:  ES64L-G09RevD.01 24-Apr-2013

 --------------------
 #p B2PLYPD3/Def2QZVP
 --------------------

 ---------
 butadiene
 ---------
 Symbolic Z-matrix:
 Charge =  0 Multiplicity = 1

                         Standard orientation:
 ---------------------------------------------------------------------
 Center     Atomic      Atomic             Coordinates (Angstroms)
 Number     Number       Type             X           Y           Z
 ---------------------------------------------------------------------
      1          6           0        1.844600    0.090382   -0.005980
      2          6           0        0.619836   -0.370503   -0.005004
      3          6           0       -0.607450    0.433308    0.001445
      4          6           0       -1.838875   -0.138368    0.005747
      5          1           0        2.685719   -0.570482    0.044836
      6          1           0        1.976800    1.178633    0.060846
      7          1           0        0.471934   -1.446441   -0.101871
      8          1           0       -0.533103    1.502971   -0.029651
      9          1           0       -1.977619   -1.249088    0.103100
     10          1           0       -2.732396    0.495499   -0.054508
 ---------------------------------------------------------------------

 SCF Done:  E(RB2PLYPD3) =  -155.696433383     A.U. after   11 cycles
 E2(B2PLYPD3) =    -0.2260063263D+00 E(B2PLYPD3) =    -0.15592243970954D+03

 The electronic state is 1-A.
 Alpha  occ. eigenvalues --  -10.62919 -10.62504 -10.62145 -10.61048  -0.92866
 Alpha  occ. eigenvalues --   -0.84954  -0.69558  -0.63851  -0.54453  -0.53780
 Alpha  occ. eigenvalues --   -0.46600  -0.45199  -0.41080  -0.37977  -0.27827
 Alpha virt. eigenvalues --    0.01828   0.07003   0.07355   0.07989   0.09508
 Alpha virt. eigenvalues --    0.11704   0.12282   0.14521   0.15633   0.16234
 Alpha virt. eigenvalues --    0.18712   0.19991   0.21385   0.22932   0.24026

 Mulliken charges:
               1
     1  C   -0.176320
     2  C   -0.015646
     3  C   -0.048606
     4  C   -0.174480
     5  H    0.090380
     6  H    0.060611
     7  H    0.051467
     8  H    0.059384
     9  H    0.068692
    10  H    0.084518
 Sum of Mulliken charges =   0.00000

 Dipole moment (field-independent basis, Debye):
    X=             -0.0355    Y=              0.0035    Z=              0.0275  Tot=              0.0451
 Quadrupole moment (field-independent basis, Debye-Ang):
   XX=            -23.7196   YY=            -23.0244   ZZ=            -29.3167
   XY=             -0.1181   XZ=              0.1944   YZ=             -0.0515

 1\1\GINC-NODE08\SP\RB2PLYPD3-FC\def2QZVP\C4H6\BOITTIER\26-Aug-2020\0\\
 #p B2PLYPD3/Def2QZVP\\butadiene\\0,1\C,0,-3.850494,0.197209,0.02255\C,
 0,-2.725922,-0.471791,0.038064\C,0,-1.376375,0.1031,0.013391\C,0,-0.26
 4744,-0.676184,0.028642\H,0,-4.794848,-0.30653,-0.012736\H,0,-3.789289
 ,1.289482,-0.074543\H,0,-2.769451,-1.553881,0.164897\H,0,-1.261319,1.1
 69605,0.014874\H,0,-0.323747,-1.796246,-0.037743\H,0,0.726462,-0.20796
 8,0.074269\\Version=ES64L-G09RevD.01\State=1-A\HF=-155.6964334\MP2=-15
 5.9224397\RMSD=7.098e-09\PG=C01 [X(C4H6)]\\@

 Normal termination of Gaussian 09 at Wed Aug 26 11:07:32 2020.
