 Gaussian 09, Revision D.01,
 Gaussian 09:  ES64L-G09RevD.01 24-Apr-2013

 --------------------
 #p B2PLYPD3/Def2QZVP
 --------------------

 ---------
 butadiene
 ---------
 Symbolic Z-matrix:
 Charge =  0 Multiplicity = 1

                         Standard orientation:
 ---------------------------------------------------------------------
 Center     Atomic      Atomic             Coordinates (Angstroms)
 Number     Number       Type             X           Y           Z
 ---------------------------------------------------------------------
      1          6           0       -1.839935    0.120603    0.015187
      2          6           0       -0.605754   -0.387441   -0.012773
      3          6           0        0.602539    0.375451   -0.017173
      4          6           0        1.833572   -0.103086    0.004855
      5          1           0       -2.669857   -0.593405   -0.004698
      6          1           0       -2.059782    1.186662    0.067301
      7          1           0       -0.510872   -1.450495   -0.101411
      8          1           0        0.520437    1.491723   -0.022056
      9          1           0        2.005701   -1.165862    0.153699
     10          1           0        2.771840    0.498211   -0.033412
 ---------------------------------------------------------------------

 SCF Done:  E(RB2PLYPD3) =  -155.696531831     A.U. after   11 cycles
 E2(B2PLYPD3) =    -0.2258775099D+00 E(B2PLYPD3) =    -0.15592240934056D+03

 The electronic state is 1-A.
 Alpha  occ. eigenvalues --  -10.62476 -10.62273 -10.61814 -10.61693  -0.93370
 Alpha  occ. eigenvalues --   -0.85088  -0.70154  -0.63734  -0.54602  -0.53979
 Alpha  occ. eigenvalues --   -0.46637  -0.45133  -0.40694  -0.38468  -0.27752
 Alpha virt. eigenvalues --    0.01592   0.06950   0.07439   0.07828   0.09908
 Alpha virt. eigenvalues --    0.11607   0.12316   0.14736   0.15693   0.16324
 Alpha virt. eigenvalues --    0.18843   0.20255   0.21642   0.22306   0.23736

 Mulliken charges:
               1
     1  C   -0.174779
     2  C   -0.035789
     3  C   -0.021375
     4  C   -0.169220
     5  H    0.081984
     6  H    0.074082
     7  H    0.058179
     8  H    0.046174
     9  H    0.057694
    10  H    0.083049
 Sum of Mulliken charges =   0.00000

 Dipole moment (field-independent basis, Debye):
    X=              0.0014    Y=             -0.0208    Z=              0.0436  Tot=              0.0483
 Quadrupole moment (field-independent basis, Debye-Ang):
   XX=            -23.4012   YY=            -23.2479   ZZ=            -29.2156
   XY=             -0.0490   XZ=              0.1238   YZ=             -0.0049

 1\1\GINC-NODE18\SP\RB2PLYPD3-FC\def2QZVP\C4H6\BOITTIER\26-Aug-2020\0\\
 #p B2PLYPD3/Def2QZVP\\butadiene\\0,1\C,0,-3.840054,0.230347,0.031761\C
 ,0,-2.715888,-0.489552,0.022239\C,0,-1.391255,0.045989,-0.000967\C,0,-
 0.264826,-0.642862,0.038605\H,0,-4.78371,-0.325067,0.030358\H,0,-3.866
 803,1.319568,0.052048\H,0,-2.811666,-1.554678,-0.035007\H,0,-1.273662,
 1.158452,-0.038722\H,0,-0.283979,-1.714488,0.218955\H,0,0.765282,-0.21
 9275,-0.01451\\Version=ES64L-G09RevD.01\State=1-A\HF=-155.6965318\MP2=
 -155.9224093\RMSD=5.748e-09\PG=C01 [X(C4H6)]\\@

 Normal termination of Gaussian 09 at Wed Aug 26 09:06:33 2020.
