 Gaussian 09, Revision D.01,
 Gaussian 09:  ES64L-G09RevD.01 24-Apr-2013

 --------------------
 #p B2PLYPD3/Def2QZVP
 --------------------

 ---------
 butadiene
 ---------
 Symbolic Z-matrix:
 Charge =  0 Multiplicity = 1

                         Standard orientation:
 ---------------------------------------------------------------------
 Center     Atomic      Atomic             Coordinates (Angstroms)
 Number     Number       Type             X           Y           Z
 ---------------------------------------------------------------------
      1          6           0       -1.865857    0.074473    0.098850
      2          6           0       -0.621571   -0.350196   -0.088386
      3          6           0        0.613937    0.454017   -0.064343
      4          6           0        1.860660   -0.132390    0.055746
      5          1           0       -2.688004   -0.597633    0.216150
      6          1           0       -2.164160    1.063872   -0.175958
      7          1           0       -0.362908   -1.432136   -0.211968
      8          1           0        0.479744    1.518990   -0.026669
      9          1           0        1.908182   -1.191706    0.016087
     10          1           0        2.904125    0.363194    0.171156
 ---------------------------------------------------------------------

 SCF Done:  E(RB2PLYPD3) =  -155.679757953     A.U. after   12 cycles
 E2(B2PLYPD3) =    -0.2277426609D+00 E(B2PLYPD3) =    -0.15590750061355D+03

 The electronic state is 1-A.
 Alpha  occ. eigenvalues --  -10.63684 -10.63359 -10.63206 -10.61256  -0.92446
 Alpha  occ. eigenvalues --   -0.84428  -0.70405  -0.64105  -0.54527  -0.52978
 Alpha  occ. eigenvalues --   -0.47312  -0.45415  -0.41212  -0.36887  -0.27379
 Alpha virt. eigenvalues --    0.00860   0.06908   0.07453   0.07921   0.08852
 Alpha virt. eigenvalues --    0.11438   0.12732   0.14332   0.15728   0.16554
 Alpha virt. eigenvalues --    0.18718   0.19983   0.21663   0.22922   0.23819

 Mulliken charges:
               1
     1  C   -0.174227
     2  C   -0.027536
     3  C   -0.041603
     4  C   -0.165896
     5  H    0.079159
     6  H    0.072053
     7  H    0.048365
     8  H    0.063345
     9  H    0.062988
    10  H    0.083353
 Sum of Mulliken charges =   0.00000

 Dipole moment (field-independent basis, Debye):
    X=              0.0556    Y=             -0.0363    Z=             -0.1293  Tot=              0.1454
 Quadrupole moment (field-independent basis, Debye-Ang):
   XX=            -22.9464   YY=            -23.7044   ZZ=            -29.3362
   XY=             -0.4112   XZ=              0.4551   YZ=             -0.1182

 1\1\GINC-NODE17\SP\RB2PLYPD3-FC\def2QZVP\C4H6\BOITTIER\26-Aug-2020\0\\
 #p B2PLYPD3/Def2QZVP\\butadiene\\0,1\C,0,-3.873186,0.195216,0.108939\C
 ,0,-2.726564,-0.455402,-0.051066\C,0,-1.366081,0.112808,-0.057482\C,0,
 -0.24542,-0.682709,0.097066\H,0,-4.802859,-0.311179,0.252758\H,0,-3.98
 8677,1.208185,-0.213505\H,0,-2.667871,-1.570852,-0.122476\H,0,-1.30565
 1,1.185085,-0.070373\H,0,-0.39008,-1.733876,0.10721\H,0,0.870697,-0.37
 8753,0.195224\\Version=ES64L-G09RevD.01\State=1-A\HF=-155.679758\MP2=-
 155.9075006\RMSD=5.221e-09\PG=C01 [X(C4H6)]\\@

 Normal termination of Gaussian 09 at Wed Aug 26 11:50:56 2020.
