 Gaussian 09, Revision D.01,
 Gaussian 09:  ES64L-G09RevD.01 24-Apr-2013

 --------------------
 #p B2PLYPD3/Def2QZVP
 --------------------

 ---------
 butadiene
 ---------
 Symbolic Z-matrix:
 Charge =  0 Multiplicity = 1

                         Standard orientation:
 ---------------------------------------------------------------------
 Center     Atomic      Atomic             Coordinates (Angstroms)
 Number     Number       Type             X           Y           Z
 ---------------------------------------------------------------------
      1          6           0       -1.853283    0.101649   -0.018946
      2          6           0       -0.604633   -0.395951    0.018810
      3          6           0        0.618112    0.416548    0.009206
      4          6           0        1.845518   -0.116199   -0.012450
      5          1           0       -2.721456   -0.533433   -0.032314
      6          1           0       -2.076568    1.162561    0.019475
      7          1           0       -0.447036   -1.460516    0.050064
      8          1           0        0.500995    1.485999    0.017668
      9          1           0        1.978926   -1.180270   -0.029034
     10          1           0        2.730857    0.489379   -0.005578
 ---------------------------------------------------------------------

 SCF Done:  E(RB2PLYPD3) =  -155.700841397     A.U. after   11 cycles
 E2(B2PLYPD3) =    -0.2256984639D+00 E(B2PLYPD3) =    -0.15592653986083D+03

 The electronic state is 1-A.
 Alpha  occ. eigenvalues --  -10.62782 -10.62591 -10.61639 -10.61392  -0.92673
 Alpha  occ. eigenvalues --   -0.84803  -0.70286  -0.64378  -0.54759  -0.53777
 Alpha  occ. eigenvalues --   -0.46917  -0.45774  -0.41190  -0.37830  -0.27654
 Alpha virt. eigenvalues --    0.01663   0.07004   0.07481   0.08141   0.09441
 Alpha virt. eigenvalues --    0.11633   0.12506   0.14693   0.15939   0.16172
 Alpha virt. eigenvalues --    0.18894   0.20598   0.21699   0.22908   0.23637

 Mulliken charges:
               1
     1  C   -0.174167
     2  C   -0.037990
     3  C   -0.031316
     4  C   -0.174762
     5  H    0.083411
     6  H    0.066174
     7  H    0.058329
     8  H    0.058852
     9  H    0.064923
    10  H    0.086546
 Sum of Mulliken charges =   0.00000

 Dipole moment (field-independent basis, Debye):
    X=              0.0211    Y=              0.0112    Z=              0.0395  Tot=              0.0461
 Quadrupole moment (field-independent basis, Debye-Ang):
   XX=            -23.2888   YY=            -23.1187   ZZ=            -29.3042
   XY=             -0.2367   XZ=             -0.0299   YZ=              0.0429

 1\1\GINC-NODE36\SP\RB2PLYPD3-FC\def2QZVP\C4H6\BOITTIER\26-Aug-2020\0\\
 #p B2PLYPD3/Def2QZVP\\butadiene\\0,1\C,0,-3.857786,0.217349,0.000956\C
 ,0,-2.718876,-0.495567,0.053801\C,0,-1.369976,0.083187,0.024387\C,0,-0
 .258482,-0.66204,0.018744\H,0,-4.826065,-0.251334,0.003211\H,0,-3.8864
 89,1.301759,0.010788\H,0,-2.755214,-1.56991,0.113619\H,0,-1.292807,1.1
 56104,0.004201\H,0,-0.318686,-1.732812,0.030692\H,0,0.721354,-0.225629
 ,0.010808\\Version=ES64L-G09RevD.01\State=1-A\HF=-155.7008414\MP2=-155
 .9265399\RMSD=2.450e-09\PG=C01 [X(C4H6)]\\@

 Normal termination of Gaussian 09 at Wed Aug 26 10:05:02 2020.
