 Gaussian 09, Revision D.01,
 Gaussian 09:  ES64L-G09RevD.01 24-Apr-2013

 --------------------
 #p B2PLYPD3/Def2QZVP
 --------------------

 ---------
 butadiene
 ---------
 Symbolic Z-matrix:
 Charge =  0 Multiplicity = 1

                         Standard orientation:
 ---------------------------------------------------------------------
 Center     Atomic      Atomic             Coordinates (Angstroms)
 Number     Number       Type             X           Y           Z
 ---------------------------------------------------------------------
      1          6           0       -1.813304   -0.164084   -0.068730
      2          6           0       -0.588017    0.423082    0.078741
      3          6           0        0.613205   -0.366582    0.010724
      4          6           0        1.831702    0.096393   -0.025600
      5          1           0       -2.661203    0.502388   -0.121374
      6          1           0       -1.903296   -1.199590    0.158243
      7          1           0       -0.655595    1.618951   -0.002808
      8          1           0        0.379236   -1.372536    0.093395
      9          1           0        1.980419    1.153677    0.051365
     10          1           0        2.598924   -0.635745   -0.149628
 ---------------------------------------------------------------------

 SCF Done:  E(RB2PLYPD3) =  -155.677222398     A.U. after   12 cycles
 E2(B2PLYPD3) =    -0.2268373114D+00 E(B2PLYPD3) =    -0.15590405970912D+03

 The electronic state is 1-A.
 Alpha  occ. eigenvalues --  -10.63659 -10.61561 -10.61486 -10.60738  -0.93570
 Alpha  occ. eigenvalues --   -0.85194  -0.70274  -0.63508  -0.54945  -0.53872
 Alpha  occ. eigenvalues --   -0.46895  -0.44630  -0.41468  -0.38089  -0.27514
 Alpha virt. eigenvalues --    0.01502   0.06994   0.07232   0.07954   0.09293
 Alpha virt. eigenvalues --    0.11897   0.12063   0.14761   0.15597   0.16249
 Alpha virt. eigenvalues --    0.18505   0.19167   0.21582   0.23524   0.24414

 Mulliken charges:
               1
     1  C   -0.179479
     2  C   -0.030586
     3  C   -0.016339
     4  C   -0.184739
     5  H    0.078667
     6  H    0.068041
     7  H    0.036572
     8  H    0.058811
     9  H    0.080162
    10  H    0.088889
 Sum of Mulliken charges =   0.00000

 Dipole moment (field-independent basis, Debye):
    X=             -0.0203    Y=             -0.0552    Z=              0.1125  Tot=              0.1269
 Quadrupole moment (field-independent basis, Debye-Ang):
   XX=            -24.2198   YY=            -22.9571   ZZ=            -29.1721
   XY=             -0.2359   XZ=             -0.1928   YZ=             -0.2434

 1\1\GINC-NODE21\SP\RB2PLYPD3-FC\def2QZVP\C4H6\BOITTIER\26-Aug-2020\0\\
 #p B2PLYPD3/Def2QZVP\\butadiene\\0,1\C,0,-3.813717,0.265177,0.07983\C,
 0,-2.710651,-0.532835,-0.039594\C,0,-1.389516,0.03644,0.001125\C,0,-0.
 270763,-0.630855,0.060355\H,0,-4.765006,-0.239929,0.156025\H,0,-3.7218
 29,1.290521,-0.188714\H,0,-2.986247,-1.694172,0.089488\H,0,-1.444058,1
 .063691,-0.122572\H,0,-0.309691,-1.700067,0.026289\H,0,0.613199,-0.039
 957,0.15777\\Version=ES64L-G09RevD.01\State=1-A\HF=-155.6772224\MP2=-1
 55.9040597\RMSD=3.291e-09\PG=C01 [X(C4H6)]\\@

 Normal termination of Gaussian 09 at Wed Aug 26 15:33:54 2020.
