 Gaussian 09, Revision D.01,
 Gaussian 09:  ES64L-G09RevD.01 24-Apr-2013

 --------------------
 #p B2PLYPD3/Def2QZVP
 --------------------

 ---------
 butadiene
 ---------
 Symbolic Z-matrix:
 Charge =  0 Multiplicity = 1

                         Standard orientation:
 ---------------------------------------------------------------------
 Center     Atomic      Atomic             Coordinates (Angstroms)
 Number     Number       Type             X           Y           Z
 ---------------------------------------------------------------------
      1          6           0       -1.826774   -0.119954   -0.007395
      2          6           0       -0.597223    0.406907    0.019074
      3          6           0        0.606185   -0.370055    0.014905
      4          6           0        1.827495    0.100882   -0.025279
      5          1           0       -2.777592    0.461003   -0.069165
      6          1           0       -1.925977   -1.168595   -0.065062
      7          1           0       -0.508279    1.460546    0.103069
      8          1           0        0.455898   -1.434651    0.072900
      9          1           0        2.037472    1.156602   -0.070431
     10          1           0        2.660382   -0.581589    0.020860
 ---------------------------------------------------------------------

 SCF Done:  E(RB2PLYPD3) =  -155.698296043     A.U. after   11 cycles
 E2(B2PLYPD3) =    -0.2250448366D+00 E(B2PLYPD3) =    -0.15592334087969D+03

 The electronic state is 1-A.
 Alpha  occ. eigenvalues --  -10.62051 -10.61801 -10.61579 -10.60991  -0.93632
 Alpha  occ. eigenvalues --   -0.85264  -0.70323  -0.64546  -0.54689  -0.54383
 Alpha  occ. eigenvalues --   -0.46878  -0.45548  -0.41179  -0.38452  -0.27806
 Alpha virt. eigenvalues --    0.01820   0.07001   0.07574   0.08024   0.09903
 Alpha virt. eigenvalues --    0.11703   0.12518   0.14800   0.15772   0.16257
 Alpha virt. eigenvalues --    0.18758   0.20278   0.21868   0.22642   0.23941

 Mulliken charges:
               1
     1  C   -0.173864
     2  C   -0.031176
     3  C   -0.023643
     4  C   -0.177693
     5  H    0.082521
     6  H    0.061552
     7  H    0.058206
     8  H    0.051348
     9  H    0.068039
    10  H    0.084710
 Sum of Mulliken charges =   0.00000

 Dipole moment (field-independent basis, Debye):
    X=             -0.0057    Y=             -0.0012    Z=              0.0098  Tot=              0.0114
 Quadrupole moment (field-independent basis, Debye-Ang):
   XX=            -23.4036   YY=            -23.2165   ZZ=            -29.0719
   XY=              0.0867   XZ=              0.2454   YZ=             -0.0226

 1\1\GINC-NODE26\SP\RB2PLYPD3-FC\def2QZVP\C4H6\BOITTIER\26-Aug-2020\0\\
 #p B2PLYPD3/Def2QZVP\\butadiene\\0,1\C,0,-3.82853,0.232565,0.028541\C,
 0,-2.713541,-0.506859,0.017066\C,0,-1.390311,0.041415,-0.00124\C,0,-0.
 27305,-0.639653,0.052305\H,0,-4.867773,-0.166414,0.107095\H,0,-3.73777
 9,1.283194,0.056068\H,0,-2.81542,-1.561305,-0.036633\H,0,-1.347564,1.1
 13632,-0.089779\H,0,-0.25555,-1.714212,0.127744\H,0,0.668461,-0.11925,
 -0.013527\\Version=ES64L-G09RevD.01\State=1-A\HF=-155.698296\MP2=-155.
 9233409\RMSD=5.547e-09\PG=C01 [X(C4H6)]\\@

 Normal termination of Gaussian 09 at Wed Aug 26 10:14:23 2020.
