 Gaussian 09, Revision D.01,
 Gaussian 09:  ES64L-G09RevD.01 24-Apr-2013

 --------------------
 #p B2PLYPD3/Def2QZVP
 --------------------

 ---------
 butadiene
 ---------
 Symbolic Z-matrix:
 Charge =  0 Multiplicity = 1

                         Standard orientation:
 ---------------------------------------------------------------------
 Center     Atomic      Atomic             Coordinates (Angstroms)
 Number     Number       Type             X           Y           Z
 ---------------------------------------------------------------------
      1          6           0       -1.841880    0.109167   -0.027421
      2          6           0       -0.603320   -0.403200    0.040255
      3          6           0        0.614136    0.416780    0.018235
      4          6           0        1.837366   -0.117198   -0.018678
      5          1           0       -2.695649   -0.529826   -0.022837
      6          1           0       -2.040493    1.158180   -0.014674
      7          1           0       -0.467136   -1.452973   -0.003721
      8          1           0        0.480472    1.482902    0.020263
      9          1           0        1.952060   -1.199918   -0.031136
     10          1           0        2.732930    0.508342   -0.022244
 ---------------------------------------------------------------------

 SCF Done:  E(RB2PLYPD3) =  -155.700248747     A.U. after   11 cycles
 E2(B2PLYPD3) =    -0.2255731938D+00 E(B2PLYPD3) =    -0.15592582194050D+03

 The electronic state is 1-A.
 Alpha  occ. eigenvalues --  -10.62482 -10.62417 -10.61667 -10.61236  -0.92820
 Alpha  occ. eigenvalues --   -0.84859  -0.70050  -0.64574  -0.54495  -0.54022
 Alpha  occ. eigenvalues --   -0.46702  -0.45914  -0.41313  -0.37896  -0.27665
 Alpha virt. eigenvalues --    0.01812   0.07016   0.07487   0.08146   0.09382
 Alpha virt. eigenvalues --    0.11721   0.12473   0.14711   0.15826   0.16152
 Alpha virt. eigenvalues --    0.18785   0.20327   0.21736   0.23075   0.23952

 Mulliken charges:
               1
     1  C   -0.176274
     2  C   -0.036695
     3  C   -0.033020
     4  C   -0.175073
     5  H    0.082512
     6  H    0.067593
     7  H    0.060908
     8  H    0.058773
     9  H    0.065170
    10  H    0.086106
 Sum of Mulliken charges =   0.00000

 Dipole moment (field-independent basis, Debye):
    X=             -0.0106    Y=              0.0152    Z=             -0.0249  Tot=              0.0310
 Quadrupole moment (field-independent basis, Debye-Ang):
   XX=            -23.5373   YY=            -23.0015   ZZ=            -29.2766
   XY=             -0.1594   XZ=             -0.0026   YZ=              0.0621

 1\1\GINC-NODE20\SP\RB2PLYPD3-FC\def2QZVP\C4H6\BOITTIER\26-Aug-2020\0\\
 #p B2PLYPD3/Def2QZVP\\butadiene\\0,1\C,0,-3.84556,0.221509,-0.009577\C
 ,0,-2.718762,-0.502882,0.072377\C,0,-1.374076,0.084738,0.032712\C,0,-0
 .266516,-0.660654,0.0106\H,0,-4.80005,-0.25374,0.008916\H,0,-3.85283,1
 .289134,-0.022287\H,0,-2.77313,-1.560805,0.053783\H,0,-1.314411,1.1572
 88,0.008983\H,0,-0.347848,-1.746375,0.024269\H,0,0.726681,-0.206106,-0
 .006485\\Version=ES64L-G09RevD.01\State=1-A\HF=-155.7002487\MP2=-155.9
 258219\RMSD=4.804e-09\PG=C01 [X(C4H6)]\\@

 Normal termination of Gaussian 09 at Wed Aug 26 19:16:50 2020.
