 Gaussian 09, Revision D.01,
 Gaussian 09:  ES64L-G09RevD.01 24-Apr-2013

 --------------------
 #p B2PLYPD3/Def2QZVP
 --------------------

 ---------
 butadiene
 ---------
 Symbolic Z-matrix:
 Charge =  0 Multiplicity = 1

                         Standard orientation:
 ---------------------------------------------------------------------
 Center     Atomic      Atomic             Coordinates (Angstroms)
 Number     Number       Type             X           Y           Z
 ---------------------------------------------------------------------
      1          6           0       -1.856394   -0.143588   -0.072938
      2          6           0       -0.615892    0.436493    0.053002
      3          6           0        0.613498   -0.354265    0.056215
      4          6           0        1.872511    0.057895   -0.046525
      5          1           0       -2.799561    0.447163   -0.192141
      6          1           0       -2.010122   -1.147403    0.182116
      7          1           0       -0.563595    1.486112    0.182163
      8          1           0        0.317726   -1.334006    0.035160
      9          1           0        2.158795    1.108965   -0.044680
     10          1           0        2.814422   -0.540046   -0.101138
 ---------------------------------------------------------------------

 SCF Done:  E(RB2PLYPD3) =  -155.680008068     A.U. after   12 cycles
 E2(B2PLYPD3) =    -0.2268928305D+00 E(B2PLYPD3) =    -0.15590690089840D+03

 The electronic state is 1-A.
 Alpha  occ. eigenvalues --  -10.63193 -10.62332 -10.62293 -10.62158  -0.92875
 Alpha  occ. eigenvalues --   -0.84459  -0.70888  -0.65257  -0.55171  -0.53026
 Alpha  occ. eigenvalues --   -0.47509  -0.45764  -0.40825  -0.37326  -0.27386
 Alpha virt. eigenvalues --    0.00822   0.06878   0.07559   0.08221   0.09236
 Alpha virt. eigenvalues --    0.11468   0.12593   0.14434   0.15756   0.16659
 Alpha virt. eigenvalues --    0.19041   0.19837   0.21612   0.22776   0.23646

 Mulliken charges:
               1
     1  C   -0.182916
     2  C   -0.036711
     3  C   -0.038660
     4  C   -0.159294
     5  H    0.076385
     6  H    0.071756
     7  H    0.066331
     8  H    0.065204
     9  H    0.058918
    10  H    0.078987
 Sum of Mulliken charges =   0.00000

 Dipole moment (field-independent basis, Debye):
    X=             -0.0282    Y=              0.0515    Z=              0.1607  Tot=              0.1711
 Quadrupole moment (field-independent basis, Debye-Ang):
   XX=            -22.7274   YY=            -23.7483   ZZ=            -29.2079
   XY=              0.4547   XZ=             -0.3111   YZ=             -0.1372

 1\1\GINC-NODE39\SP\RB2PLYPD3-FC\def2QZVP\C4H6\BOITTIER\26-Aug-2020\0\\
 #p B2PLYPD3/Def2QZVP\\butadiene\\0,1\C,0,-3.853159,0.263592,0.083982\C
 ,0,-2.7384,-0.534663,-0.022325\C,0,-1.385973,0.019766,-0.038393\C,0,-0
 .22264,-0.611245,0.080032\H,0,-4.887877,-0.143306,0.212638\H,0,-3.8221
 69,1.272198,-0.195451\H,0,-2.877301,-1.579169,-0.126394\H,0,-1.499142,
 1.037115,-0.041903\H,0,-0.131746,-1.696536,0.104387\H,0,0.812082,-0.19
 2861,0.124966\\Version=ES64L-G09RevD.01\State=1-A\HF=-155.6800081\MP2=
 -155.9069009\RMSD=2.940e-09\PG=C01 [X(C4H6)]\\@

 Normal termination of Gaussian 09 at Wed Aug 26 13:18:03 2020.
