 Gaussian 09, Revision D.01,
 Gaussian 09:  ES64L-G09RevD.01 24-Apr-2013

 --------------------
 #p B2PLYPD3/Def2QZVP
 --------------------

 ---------
 butadiene
 ---------
 Symbolic Z-matrix:
 Charge =  0 Multiplicity = 1

                         Standard orientation:
 ---------------------------------------------------------------------
 Center     Atomic      Atomic             Coordinates (Angstroms)
 Number     Number       Type             X           Y           Z
 ---------------------------------------------------------------------
      1          6           0       -1.841241    0.099498   -0.008687
      2          6           0       -0.620835   -0.362621    0.005661
      3          6           0        0.614609    0.398250    0.039978
      4          6           0        1.844822   -0.119750   -0.026633
      5          1           0       -2.623429   -0.591366   -0.007917
      6          1           0       -2.039897    1.151574   -0.003598
      7          1           0       -0.502708   -1.442805   -0.017559
      8          1           0        0.449827    1.496005   -0.063235
      9          1           0        1.977798   -1.221373    0.025393
     10          1           0        2.754279    0.515704    0.005003
 ---------------------------------------------------------------------

 SCF Done:  E(RB2PLYPD3) =  -155.695732232     A.U. after   11 cycles
 E2(B2PLYPD3) =    -0.2254319524D+00 E(B2PLYPD3) =    -0.15592116418406D+03

 The electronic state is 1-A.
 Alpha  occ. eigenvalues --  -10.62860 -10.62336 -10.61866 -10.60511  -0.93241
 Alpha  occ. eigenvalues --   -0.85438  -0.70210  -0.63477  -0.54830  -0.53879
 Alpha  occ. eigenvalues --   -0.47054  -0.45489  -0.40441  -0.38293  -0.28111
 Alpha virt. eigenvalues --    0.01833   0.06996   0.07354   0.08014   0.09907
 Alpha virt. eigenvalues --    0.11705   0.12309   0.14767   0.15519   0.16141
 Alpha virt. eigenvalues --    0.18778   0.20031   0.21632   0.22629   0.24234

 Mulliken charges:
               1
     1  C   -0.181231
     2  C   -0.009625
     3  C   -0.035950
     4  C   -0.170993
     5  H    0.089897
     6  H    0.065864
     7  H    0.041211
     8  H    0.048521
     9  H    0.064678
    10  H    0.087629
 Sum of Mulliken charges =   0.00000

 Dipole moment (field-independent basis, Debye):
    X=             -0.0161    Y=             -0.0187    Z=             -0.0176  Tot=              0.0303
 Quadrupole moment (field-independent basis, Debye-Ang):
   XX=            -23.4655   YY=            -23.2168   ZZ=            -29.1818
   XY=             -0.0516   XZ=              0.0554   YZ=             -0.1045

 1\1\GINC-NODE04\SP\RB2PLYPD3-FC\def2QZVP\C4H6\BOITTIER\26-Aug-2020\0\\
 #p B2PLYPD3/Def2QZVP\\butadiene\\0,1\C,0,-3.846359,0.208945,0.006469\C
 ,0,-2.727663,-0.462217,0.041272\C,0,-1.376368,0.067263,0.04992\C,0,-0.
 258316,-0.663636,0.005954\H,0,-4.73903,-0.331083,0.031366\H,0,-3.85452
 7,1.279018,-0.028636\H,0,-2.803818,-1.546271,0.05912\H,0,-1.343535,1.1
 72151,-0.09505\H,0,-0.323354,-1.768587,0.09984\H,0,0.749865,-0.199536,
 0.015847\\Version=ES64L-G09RevD.01\State=1-A\HF=-155.6957322\MP2=-155.
 9211642\RMSD=7.604e-09\PG=C01 [X(C4H6)]\\@

 Normal termination of Gaussian 09 at Wed Aug 26 09:08:29 2020.
