 Gaussian 09, Revision D.01,
 Gaussian 09:  ES64L-G09RevD.01 24-Apr-2013

 --------------------
 #p B2PLYPD3/Def2QZVP
 --------------------

 ---------
 butadiene
 ---------
 Symbolic Z-matrix:
 Charge =  0 Multiplicity = 1

                         Standard orientation:
 ---------------------------------------------------------------------
 Center     Atomic      Atomic             Coordinates (Angstroms)
 Number     Number       Type             X           Y           Z
 ---------------------------------------------------------------------
      1          6           0       -1.857144    0.115531    0.011799
      2          6           0       -0.618828   -0.413316   -0.060402
      3          6           0        0.606369    0.377048   -0.045231
      4          6           0        1.849924   -0.100615    0.040121
      5          1           0       -2.741785   -0.502232    0.185431
      6          1           0       -1.990070    1.180691    0.068275
      7          1           0       -0.435647   -1.451171   -0.018549
      8          1           0        0.469174    1.485081   -0.022853
      9          1           0        2.068230   -1.098650    0.042437
     10          1           0        2.748173    0.514399    0.067533
 ---------------------------------------------------------------------

 SCF Done:  E(RB2PLYPD3) =  -155.694479727     A.U. after   11 cycles
 E2(B2PLYPD3) =    -0.2258817759D+00 E(B2PLYPD3) =    -0.15592036150239D+03

 The electronic state is 1-A.
 Alpha  occ. eigenvalues --  -10.62909 -10.62659 -10.61979 -10.60989  -0.92844
 Alpha  occ. eigenvalues --   -0.84892  -0.70784  -0.64488  -0.54936  -0.53729
 Alpha  occ. eigenvalues --   -0.47167  -0.45830  -0.40795  -0.38006  -0.27668
 Alpha virt. eigenvalues --    0.01388   0.06937   0.07548   0.08101   0.09544
 Alpha virt. eigenvalues --    0.11640   0.12630   0.14754   0.15873   0.16173
 Alpha virt. eigenvalues --    0.18966   0.20229   0.22113   0.23170   0.23333

 Mulliken charges:
               1
     1  C   -0.167337
     2  C   -0.042718
     3  C   -0.019252
     4  C   -0.175415
     5  H    0.084711
     6  H    0.067528
     7  H    0.061608
     8  H    0.046625
     9  H    0.063659
    10  H    0.080591
 Sum of Mulliken charges =   0.00000

 Dipole moment (field-independent basis, Debye):
    X=              0.0309    Y=             -0.0654    Z=              0.2228  Tot=              0.2342
 Quadrupole moment (field-independent basis, Debye-Ang):
   XX=            -23.1552   YY=            -23.3354   ZZ=            -29.2186
   XY=             -0.3742   XZ=             -0.4442   YZ=             -0.0452

 1\1\GINC-NODE28\SP\RB2PLYPD3-FC\def2QZVP\C4H6\BOITTIER\26-Aug-2020\0\\
 #p B2PLYPD3/Def2QZVP\\butadiene\\0,1\C,0,-3.855089,0.235264,0.041887\C
 ,0,-2.732643,-0.509732,-0.016544\C,0,-1.385165,0.047242,-0.026408\C,0,
 -0.247296,-0.643856,0.071134\H,0,-4.835251,-0.207903,0.234899\H,0,-3.7
 93822,1.308125,0.067216\H,0,-2.738901,-1.561975,0.055537\H,0,-1.320614
 ,1.162049,-0.036416\H,0,-0.212105,-1.664403,0.102473\H,0,0.74711,-0.20
 008,0.079139\\Version=ES64L-G09RevD.01\State=1-A\HF=-155.6944797\MP2=-
 155.9203615\RMSD=6.657e-09\PG=C01 [X(C4H6)]\\@

 Normal termination of Gaussian 09 at Wed Aug 26 10:24:08 2020.
