 Gaussian 09, Revision D.01,
 Gaussian 09:  ES64L-G09RevD.01 24-Apr-2013

 --------------------
 #p B2PLYPD3/Def2QZVP
 --------------------

 ---------
 butadiene
 ---------
 Symbolic Z-matrix:
 Charge =  0 Multiplicity = 1

                         Standard orientation:
 ---------------------------------------------------------------------
 Center     Atomic      Atomic             Coordinates (Angstroms)
 Number     Number       Type             X           Y           Z
 ---------------------------------------------------------------------
      1          6           0        1.833093   -0.136747    0.013972
      2          6           0        0.594570    0.423044   -0.045874
      3          6           0       -0.607843   -0.374402   -0.058692
      4          6           0       -1.850556    0.095834    0.030787
      5          1           0        2.727410    0.526683    0.166986
      6          1           0        2.041444   -1.180189    0.039640
      7          1           0        0.576931    1.497644   -0.027566
      8          1           0       -0.413302   -1.439050    0.026921
      9          1           0       -2.075265    1.127295    0.061948
     10          1           0       -2.672802   -0.578759    0.090919
 ---------------------------------------------------------------------

 SCF Done:  E(RB2PLYPD3) =  -155.695690999     A.U. after   11 cycles
 E2(B2PLYPD3) =    -0.2261758016D+00 E(B2PLYPD3) =    -0.15592186680079D+03

 The electronic state is 1-A.
 Alpha  occ. eigenvalues --  -10.62742 -10.62467 -10.62089 -10.61036  -0.92980
 Alpha  occ. eigenvalues --   -0.84722  -0.70446  -0.64455  -0.54559  -0.54194
 Alpha  occ. eigenvalues --   -0.46328  -0.45688  -0.41407  -0.38081  -0.27398
 Alpha virt. eigenvalues --    0.01379   0.06968   0.07547   0.07976   0.09509
 Alpha virt. eigenvalues --    0.11663   0.12402   0.14885   0.15708   0.16342
 Alpha virt. eigenvalues --    0.18864   0.20120   0.21653   0.23206   0.23651

 Mulliken charges:
               1
     1  C   -0.175379
     2  C   -0.033719
     3  C   -0.030326
     4  C   -0.176792
     5  H    0.072221
     6  H    0.069257
     7  H    0.060821
     8  H    0.057767
     9  H    0.071455
    10  H    0.084695
 Sum of Mulliken charges =   0.00000

 Dipole moment (field-independent basis, Debye):
    X=             -0.0020    Y=              0.0063    Z=              0.2477  Tot=              0.2477
 Quadrupole moment (field-independent basis, Debye-Ang):
   XX=            -23.5919   YY=            -23.0286   ZZ=            -29.2648
   XY=             -0.3033   XZ=              0.1393   YZ=             -0.0085

 1\1\GINC-NODE13\SP\RB2PLYPD3-FC\def2QZVP\C4H6\BOITTIER\26-Aug-2020\0\\
 #p B2PLYPD3/Def2QZVP\\butadiene\\0,1\C,0,-3.833581,0.251537,0.041544\C
 ,0,-2.716589,-0.523763,-0.00456\C,0,-1.39011,0.043134,-0.035564\C,0,-0
 .252276,-0.641397,0.065513\H,0,-4.832315,-0.235917,0.209698\H,0,-3.850
 193,1.315756,0.042586\H,0,-2.893013,-1.583191,0.039008\H,0,-1.389086,1
 .127105,0.024914\H,0,-0.217198,-1.695468,0.121011\H,0,0.67839,-0.12501
 8,0.110151\\Version=ES64L-G09RevD.01\State=1-A\HF=-155.695691\MP2=-155
 .9218668\RMSD=6.802e-09\PG=C01 [X(C4H6)]\\@

 Normal termination of Gaussian 09 at Wed Aug 26 08:43:09 2020.
