 Gaussian 09, Revision D.01,
 Gaussian 09:  ES64L-G09RevD.01 24-Apr-2013

 --------------------
 #p B2PLYPD3/Def2QZVP
 --------------------

 ---------
 butadiene
 ---------
 Symbolic Z-matrix:
 Charge =  0 Multiplicity = 1

                         Standard orientation:
 ---------------------------------------------------------------------
 Center     Atomic      Atomic             Coordinates (Angstroms)
 Number     Number       Type             X           Y           Z
 ---------------------------------------------------------------------
      1          6           0        1.844187    0.113653   -0.018597
      2          6           0        0.612878   -0.414422    0.016528
      3          6           0       -0.598083    0.391784    0.002849
      4          6           0       -1.851618   -0.103571   -0.003662
      5          1           0        2.725066   -0.491151   -0.011044
      6          1           0        1.997126    1.191426   -0.033390
      7          1           0        0.487606   -1.498924    0.080958
      8          1           0       -0.478179    1.475331    0.077066
      9          1           0       -2.079243   -1.141340   -0.082562
     10          1           0       -2.696561    0.539999   -0.013734
 ---------------------------------------------------------------------

 SCF Done:  E(RB2PLYPD3) =  -155.700025318     A.U. after   11 cycles
 E2(B2PLYPD3) =    -0.2259236488D+00 E(B2PLYPD3) =    -0.15592594896637D+03

 The electronic state is 1-A.
 Alpha  occ. eigenvalues --  -10.62846 -10.62776 -10.61586 -10.61269  -0.92738
 Alpha  occ. eigenvalues --   -0.84787  -0.70517  -0.64033  -0.54790  -0.53915
 Alpha  occ. eigenvalues --   -0.46668  -0.45716  -0.41333  -0.37892  -0.27541
 Alpha virt. eigenvalues --    0.01518   0.07041   0.07445   0.08056   0.09487
 Alpha virt. eigenvalues --    0.11607   0.12502   0.14769   0.15893   0.16190
 Alpha virt. eigenvalues --    0.18842   0.20487   0.21829   0.22734   0.23687

 Mulliken charges:
               1
     1  C   -0.172156
     2  C   -0.035304
     3  C   -0.030541
     4  C   -0.178032
     5  H    0.086940
     6  H    0.064825
     7  H    0.057673
     8  H    0.056081
     9  H    0.067106
    10  H    0.083408
 Sum of Mulliken charges =   0.00000

 Dipole moment (field-independent basis, Debye):
    X=              0.0211    Y=             -0.0147    Z=              0.0221  Tot=              0.0339
 Quadrupole moment (field-independent basis, Debye-Ang):
   XX=            -23.2950   YY=            -23.1179   ZZ=            -29.2999
   XY=              0.2244   XZ=              0.1193   YZ=              0.0584

 1\1\GINC-NODE04\SP\RB2PLYPD3-FC\def2QZVP\C4H6\BOITTIER\26-Aug-2020\0\\
 #p B2PLYPD3/Def2QZVP\\butadiene\\0,1\C,0,-3.844103,0.23183,0.033424\C,
 0,-2.728668,-0.511011,0.018961\C,0,-1.391869,0.062988,0.010238\C,0,-0.
 248536,-0.650367,0.036401\H,0,-4.819831,-0.203672,0.042756\H,0,-3.7996
 21,1.319401,0.013041\H,0,-2.801723,-1.601793,-0.010132\H,0,-1.314112,1
 .147394,-0.099197\H,0,-0.212058,-1.709098,0.149359\H,0,0.698863,-0.170
 18,0.028231\\Version=ES64L-G09RevD.01\State=1-A\HF=-155.7000253\MP2=-1
 55.925949\RMSD=3.516e-09\PG=C01 [X(C4H6)]\\@

 Normal termination of Gaussian 09 at Wed Aug 26 08:58:26 2020.
