 Gaussian 09, Revision D.01,
 Gaussian 09:  ES64L-G09RevD.01 24-Apr-2013

 --------------------
 #p B2PLYPD3/Def2QZVP
 --------------------

 ---------
 butadiene
 ---------
 Symbolic Z-matrix:
 Charge =  0 Multiplicity = 1

                         Standard orientation:
 ---------------------------------------------------------------------
 Center     Atomic      Atomic             Coordinates (Angstroms)
 Number     Number       Type             X           Y           Z
 ---------------------------------------------------------------------
      1          6           0        1.841934    0.097676   -0.026131
      2          6           0        0.601274   -0.374837    0.014249
      3          6           0       -0.607594    0.406694    0.022926
      4          6           0       -1.834302   -0.125341   -0.017471
      5          1           0        2.706526   -0.554765    0.028160
      6          1           0        2.023239    1.169674   -0.048782
      7          1           0        0.442914   -1.452060    0.056183
      8          1           0       -0.515846    1.483122    0.073385
      9          1           0       -1.960086   -1.203498   -0.035241
     10          1           0       -2.704624    0.532369   -0.035145
 ---------------------------------------------------------------------

 SCF Done:  E(RB2PLYPD3) =  -155.700713137     A.U. after   11 cycles
 E2(B2PLYPD3) =    -0.2257236874D+00 E(B2PLYPD3) =    -0.15592643682480D+03

 The electronic state is 1-A.
 Alpha  occ. eigenvalues --  -10.62360 -10.62287 -10.61726 -10.61476  -0.93224
 Alpha  occ. eigenvalues --   -0.84986  -0.70162  -0.63977  -0.54500  -0.54037
 Alpha  occ. eigenvalues --   -0.46598  -0.45630  -0.41133  -0.38262  -0.27691
 Alpha virt. eigenvalues --    0.01665   0.06995   0.07416   0.07995   0.09819
 Alpha virt. eigenvalues --    0.11719   0.12348   0.14742   0.15844   0.16058
 Alpha virt. eigenvalues --    0.18760   0.20478   0.21439   0.22626   0.23969

 Mulliken charges:
               1
     1  C   -0.177165
     2  C   -0.024521
     3  C   -0.028535
     4  C   -0.178372
     5  H    0.087568
     6  H    0.064130
     7  H    0.048932
     8  H    0.052909
     9  H    0.067860
    10  H    0.087195
 Sum of Mulliken charges =   0.00000

 Dipole moment (field-independent basis, Debye):
    X=             -0.0249    Y=              0.0178    Z=              0.0585  Tot=              0.0660
 Quadrupole moment (field-independent basis, Debye-Ang):
   XX=            -23.5737   YY=            -23.1082   ZZ=            -29.2507
   XY=              0.0130   XZ=              0.1624   YZ=             -0.0382

 1\1\GINC-NODE38\SP\RB2PLYPD3-FC\def2QZVP\C4H6\BOITTIER\26-Aug-2020\0\\
 #p B2PLYPD3/Def2QZVP\\butadiene\\0,1\C,0,-3.846835,0.211161,0.04172\C,
 0,-2.710887,-0.476752,0.018589\C,0,-1.381679,0.075201,-0.009337\C,0,-0
 .269917,-0.666402,0.049963\H,0,-4.814373,-0.277293,0.003935\H,0,-3.833
 278,1.298497,0.032736\H,0,-2.747999,-1.565681,0.008386\H,0,-1.279395,1
 .14874,-0.091275\H,0,-0.339103,-1.748683,0.099372\H,0,0.704114,-0.1748
 56,0.05101\\Version=ES64L-G09RevD.01\State=1-A\HF=-155.7007131\MP2=-15
 5.9264368\RMSD=5.473e-09\PG=C01 [X(C4H6)]\\@

 Normal termination of Gaussian 09 at Wed Aug 26 15:33:27 2020.
