 Gaussian 09, Revision D.01,
 Gaussian 09:  ES64L-G09RevD.01 24-Apr-2013

 --------------------
 #p B2PLYPD3/Def2QZVP
 --------------------

 ---------
 butadiene
 ---------
 Symbolic Z-matrix:
 Charge =  0 Multiplicity = 1

                         Standard orientation:
 ---------------------------------------------------------------------
 Center     Atomic      Atomic             Coordinates (Angstroms)
 Number     Number       Type             X           Y           Z
 ---------------------------------------------------------------------
      1          6           0       -1.825488    0.095318    0.024247
      2          6           0       -0.597515   -0.395159   -0.019682
      3          6           0        0.611797    0.426308   -0.034856
      4          6           0        1.823017   -0.120598    0.006839
      5          1           0       -2.714117   -0.517638   -0.054195
      6          1           0       -2.054505    1.186041    0.155402
      7          1           0       -0.473980   -1.441514   -0.079700
      8          1           0        0.533671    1.532565   -0.084304
      9          1           0        1.871410   -1.240759    0.151327
     10          1           0        2.766650    0.446095    0.052181
 ---------------------------------------------------------------------

 SCF Done:  E(RB2PLYPD3) =  -155.695023148     A.U. after   11 cycles
 E2(B2PLYPD3) =    -0.2259739637D+00 E(B2PLYPD3) =    -0.15592099711220D+03

 The electronic state is 1-A.
 Alpha  occ. eigenvalues --  -10.62811 -10.62251 -10.62074 -10.61671  -0.93082
 Alpha  occ. eigenvalues --   -0.84919  -0.69347  -0.63907  -0.54684  -0.53480
 Alpha  occ. eigenvalues --   -0.46882  -0.44359  -0.40988  -0.38186  -0.27892
 Alpha virt. eigenvalues --    0.02017   0.07034   0.07273   0.07940   0.09411
 Alpha virt. eigenvalues --    0.11598   0.12439   0.14430   0.15857   0.16314
 Alpha virt. eigenvalues --    0.18741   0.20256   0.21367   0.22556   0.23736

 Mulliken charges:
               1
     1  C   -0.168763
     2  C   -0.037028
     3  C   -0.031580
     4  C   -0.164780
     5  H    0.081324
     6  H    0.060269
     7  H    0.063807
     8  H    0.057221
     9  H    0.053206
    10  H    0.086324
 Sum of Mulliken charges =   0.00000

 Dipole moment (field-independent basis, Debye):
    X=             -0.0128    Y=              0.0198    Z=              0.0879  Tot=              0.0910
 Quadrupole moment (field-independent basis, Debye-Ang):
   XX=            -23.4867   YY=            -23.2167   ZZ=            -29.2644
   XY=              0.0962   XZ=              0.2934   YZ=              0.0625

 1\1\GINC-NODE21\SP\RB2PLYPD3-FC\def2QZVP\C4H6\BOITTIER\26-Aug-2020\0\\
 #p B2PLYPD3/Def2QZVP\\butadiene\\0,1\C,0,-3.832987,0.203981,0.041368\C
 ,0,-2.711913,-0.498151,0.01653\C,0,-1.375788,0.094331,-0.018271\C,0,-0
 .281106,-0.657788,0.044075\H,0,-4.816596,-0.243215,-0.022338\H,0,-3.86
 4133,1.321448,0.139482\H,0,-2.776566,-1.551108,-0.012182\H,0,-1.255963
 ,1.194886,-0.10057\H,0,-0.432518,-1.763913,0.221669\H,0,0.74835,-0.266
 86,0.076265\\Version=ES64L-G09RevD.01\State=1-A\HF=-155.6950231\MP2=-1
 55.9209971\RMSD=3.124e-09\PG=C01 [X(C4H6)]\\@

 Normal termination of Gaussian 09 at Wed Aug 26 22:17:52 2020.
