 Gaussian 09, Revision D.01,
 Gaussian 09:  ES64L-G09RevD.01 24-Apr-2013

 --------------------
 #p B2PLYPD3/Def2QZVP
 --------------------

 ---------
 butadiene
 ---------
 Symbolic Z-matrix:
 Charge =  0 Multiplicity = 1

                         Standard orientation:
 ---------------------------------------------------------------------
 Center     Atomic      Atomic             Coordinates (Angstroms)
 Number     Number       Type             X           Y           Z
 ---------------------------------------------------------------------
      1          6           0       -1.856630    0.105387    0.033771
      2          6           0       -0.612903   -0.371469   -0.055097
      3          6           0        0.637887    0.417646   -0.035616
      4          6           0        1.844061   -0.130144    0.051186
      5          1           0       -2.683737   -0.595886    0.126246
      6          1           0       -2.063289    1.156647    0.005123
      7          1           0       -0.503398   -1.413105   -0.088068
      8          1           0        0.548839    1.500214   -0.038988
      9          1           0        1.898393   -1.229127    0.015031
     10          1           0        2.728698    0.452731    0.015197
 ---------------------------------------------------------------------

 SCF Done:  E(RB2PLYPD3) =  -155.697952122     A.U. after   11 cycles
 E2(B2PLYPD3) =    -0.2253321966D+00 E(B2PLYPD3) =    -0.15592328431863D+03

 The electronic state is 1-A.
 Alpha  occ. eigenvalues --  -10.62614 -10.62245 -10.61427 -10.61393  -0.92765
 Alpha  occ. eigenvalues --   -0.85278  -0.69885  -0.64293  -0.54735  -0.54010
 Alpha  occ. eigenvalues --   -0.46875  -0.45706  -0.41169  -0.37780  -0.27955
 Alpha virt. eigenvalues --    0.01907   0.06984   0.07554   0.08081   0.09578
 Alpha virt. eigenvalues --    0.11712   0.12416   0.14603   0.15799   0.16242
 Alpha virt. eigenvalues --    0.18889   0.20093   0.21410   0.22721   0.24408

 Mulliken charges:
               1
     1  C   -0.179216
     2  C   -0.033155
     3  C   -0.036691
     4  C   -0.168903
     5  H    0.084203
     6  H    0.071454
     7  H    0.057990
     8  H    0.053735
     9  H    0.060219
    10  H    0.090364
 Sum of Mulliken charges =   0.00000

 Dipole moment (field-independent basis, Debye):
    X=              0.0282    Y=              0.0189    Z=             -0.0357  Tot=              0.0493
 Quadrupole moment (field-independent basis, Debye-Ang):
   XX=            -23.5391   YY=            -23.0632   ZZ=            -29.2238
   XY=              0.1288   XZ=             -0.3083   YZ=             -0.0442

 1\1\GINC-NODE04\SP\RB2PLYPD3-FC\def2QZVP\C4H6\BOITTIER\26-Aug-2020\0\\
 #p B2PLYPD3/Def2QZVP\\butadiene\\0,1\C,0,-3.864473,0.208233,0.056642\C
 ,0,-2.722158,-0.478761,-0.01618\C,0,-1.353998,0.083027,-0.025676\C,0,-
 0.259691,-0.661197,0.079608\H,0,-4.799392,-0.336246,0.174585\H,0,-3.88
 7086,1.277735,-0.009157\H,0,-2.794009,-1.524182,-0.012228\H,0,-1.25519
 4,1.163948,-0.067416\H,0,-0.395791,-1.753668,0.082456\H,0,0.711883,-0.
 241223,0.022277\\Version=ES64L-G09RevD.01\State=1-A\HF=-155.6979521\MP
 2=-155.9232843\RMSD=3.579e-09\PG=C01 [X(C4H6)]\\@

 Normal termination of Gaussian 09 at Wed Aug 26 09:26:31 2020.
