 Gaussian 09, Revision D.01,
 Gaussian 09:  ES64L-G09RevD.01 24-Apr-2013

 --------------------
 #p B2PLYPD3/Def2QZVP
 --------------------

 ---------
 butadiene
 ---------
 Symbolic Z-matrix:
 Charge =  0 Multiplicity = 1

                         Standard orientation:
 ---------------------------------------------------------------------
 Center     Atomic      Atomic             Coordinates (Angstroms)
 Number     Number       Type             X           Y           Z
 ---------------------------------------------------------------------
      1          6           0        1.831722   -0.125350   -0.099172
      2          6           0        0.584526    0.426089    0.097051
      3          6           0       -0.604664   -0.359419    0.023443
      4          6           0       -1.843983    0.082918   -0.044176
      5          1           0        2.815181    0.482521   -0.000779
      6          1           0        1.891561   -1.240951   -0.054952
      7          1           0        0.444546    1.566471    0.144826
      8          1           0       -0.314181   -1.407667    0.264794
      9          1           0       -2.091388    1.099794   -0.178785
     10          1           0       -2.551326   -0.645597   -0.037977
 ---------------------------------------------------------------------

 SCF Done:  E(RB2PLYPD3) =  -155.676606344     A.U. after   12 cycles
 E2(B2PLYPD3) =    -0.2278688318D+00 E(B2PLYPD3) =    -0.15590447517612D+03

 The electronic state is 1-A.
 Alpha  occ. eigenvalues --  -10.63576 -10.63434 -10.62331 -10.60460  -0.93348
 Alpha  occ. eigenvalues --   -0.84627  -0.70549  -0.63005  -0.54476  -0.53763
 Alpha  occ. eigenvalues --   -0.46388  -0.45488  -0.40777  -0.37726  -0.27553
 Alpha virt. eigenvalues --    0.00957   0.07028   0.07089   0.07936   0.09462
 Alpha virt. eigenvalues --    0.11605   0.12306   0.14747   0.15117   0.16332
 Alpha virt. eigenvalues --    0.18493   0.19209   0.21796   0.22339   0.24082

 Mulliken charges:
               1
     1  C   -0.165631
     2  C   -0.040287
     3  C   -0.004438
     4  C   -0.193468
     5  H    0.082427
     6  H    0.058277
     7  H    0.045110
     8  H    0.047860
     9  H    0.079193
    10  H    0.090957
 Sum of Mulliken charges =   0.00000

 Dipole moment (field-independent basis, Debye):
    X=             -0.0641    Y=              0.0312    Z=              0.1793  Tot=              0.1930
 Quadrupole moment (field-independent basis, Debye-Ang):
   XX=            -23.7277   YY=            -23.3442   ZZ=            -29.3219
   XY=             -0.3460   XZ=              0.3581   YZ=             -0.2797

 1\1\GINC-NODE07\SP\RB2PLYPD3-FC\def2QZVP\C4H6\BOITTIER\26-Aug-2020\0\\
 #p B2PLYPD3/Def2QZVP\\butadiene\\0,1\C,0,-3.831647,0.251719,-0.069766\
 C,0,-2.708697,-0.519797,0.134763\C,0,-1.393898,0.027656,0.044144\C,0,-
 0.259654,-0.640084,-0.017186\H,0,-4.910973,-0.159337,0.041894\H,0,-3.6
 81375,1.359414,-0.046701\H,0,-2.784399,-1.665146,0.20401\H,0,-1.481759
 ,1.116013,0.265986\H,0,-0.207675,-1.6876,-0.132828\H,0,0.571574,-0.056
 913,-0.026091\\Version=ES64L-G09RevD.01\State=1-A\HF=-155.6766063\MP2=
 -155.9044752\RMSD=5.697e-09\PG=C01 [X(C4H6)]\\@

 Normal termination of Gaussian 09 at Wed Aug 26 14:10:46 2020.
