 Gaussian 09, Revision D.01,
 Gaussian 09:  ES64L-G09RevD.01 24-Apr-2013

 --------------------
 #p B2PLYPD3/Def2QZVP
 --------------------

 ---------
 butadiene
 ---------
 Symbolic Z-matrix:
 Charge =  0 Multiplicity = 1

                         Standard orientation:
 ---------------------------------------------------------------------
 Center     Atomic      Atomic             Coordinates (Angstroms)
 Number     Number       Type             X           Y           Z
 ---------------------------------------------------------------------
      1          6           0        1.841334   -0.159454   -0.039575
      2          6           0        0.631477    0.417489    0.053511
      3          6           0       -0.627622   -0.323181    0.133585
      4          6           0       -1.861010    0.068706   -0.066013
      5          1           0        2.711286    0.462380   -0.174327
      6          1           0        1.980730   -1.186123   -0.049723
      7          1           0        0.502945    1.548576    0.004695
      8          1           0       -0.509922   -1.382001   -0.051247
      9          1           0       -1.974920    1.161111   -0.044066
     10          1           0       -2.615192   -0.625303   -0.174381
 ---------------------------------------------------------------------

 SCF Done:  E(RB2PLYPD3) =  -155.684549265     A.U. after   11 cycles
 E2(B2PLYPD3) =    -0.2258344000D+00 E(B2PLYPD3) =    -0.15591038366499D+03

 The electronic state is 1-A.
 Alpha  occ. eigenvalues --  -10.63555 -10.61711 -10.61408 -10.60881  -0.93093
 Alpha  occ. eigenvalues --   -0.85739  -0.70636  -0.63294  -0.55832  -0.53705
 Alpha  occ. eigenvalues --   -0.47930  -0.45049  -0.40104  -0.38047  -0.28132
 Alpha virt. eigenvalues --    0.01643   0.07074   0.07417   0.08054   0.09613
 Alpha virt. eigenvalues --    0.11722   0.12342   0.14734   0.15375   0.16347
 Alpha virt. eigenvalues --    0.18906   0.19259   0.21450   0.23701   0.24233

 Mulliken charges:
               1
     1  C   -0.174804
     2  C   -0.042074
     3  C   -0.003374
     4  C   -0.178912
     5  H    0.087171
     6  H    0.076994
     7  H    0.040229
     8  H    0.038051
     9  H    0.059529
    10  H    0.097191
 Sum of Mulliken charges =   0.00000

 Dipole moment (field-independent basis, Debye):
    X=              0.0465    Y=             -0.0743    Z=             -0.3257  Tot=              0.3373
 Quadrupole moment (field-independent basis, Debye-Ang):
   XX=            -23.5259   YY=            -23.3103   ZZ=            -29.0807
   XY=              0.1247   XZ=              0.0807   YZ=              0.1876

 1\1\GINC-NODE13\SP\RB2PLYPD3-FC\def2QZVP\C4H6\BOITTIER\26-Aug-2020\0\\
 #p B2PLYPD3/Def2QZVP\\butadiene\\0,1\C,0,-3.839877,0.257997,-0.036926\
 C,0,-2.747459,-0.513545,0.092029\C,0,-1.378506,0.001035,0.130889\C,0,-
 0.233314,-0.609629,-0.043135\H,0,-4.805454,-0.210378,-0.136616\H,0,-3.
 799477,1.290942,-0.107463\H,0,-2.81713,-1.650687,0.109801\H,0,-1.31263
 ,1.051694,-0.115875\H,0,-0.310098,-1.7021,0.042985\H,0,0.628714,-0.064
 333,-0.190589\\Version=ES64L-G09RevD.01\State=1-A\HF=-155.6845493\MP2=
 -155.9103837\RMSD=8.126e-09\PG=C01 [X(C4H6)]\\@

 Normal termination of Gaussian 09 at Wed Aug 26 11:22:42 2020.
