 Gaussian 09, Revision D.01,
 Gaussian 09:  ES64L-G09RevD.01 24-Apr-2013

 --------------------
 #p B2PLYPD3/Def2QZVP
 --------------------

 ---------
 butadiene
 ---------
 Symbolic Z-matrix:
 Charge =  0 Multiplicity = 1

                         Standard orientation:
 ---------------------------------------------------------------------
 Center     Atomic      Atomic             Coordinates (Angstroms)
 Number     Number       Type             X           Y           Z
 ---------------------------------------------------------------------
      1          6           0       -1.835435   -0.115731    0.013628
      2          6           0       -0.605040    0.422653   -0.029088
      3          6           0        0.603082   -0.403262   -0.003088
      4          6           0        1.848556    0.102525   -0.003682
      5          1           0       -2.715346    0.488831    0.026947
      6          1           0       -1.998590   -1.203300    0.014136
      7          1           0       -0.485909    1.517227    0.017269
      8          1           0        0.426856   -1.467400   -0.016167
      9          1           0        1.996993    1.168578    0.047540
     10          1           0        2.709014   -0.541048    0.043658
 ---------------------------------------------------------------------

 SCF Done:  E(RB2PLYPD3) =  -155.699780574     A.U. after   11 cycles
 E2(B2PLYPD3) =    -0.2261533794D+00 E(B2PLYPD3) =    -0.15592593395373D+03

 The electronic state is 1-A.
 Alpha  occ. eigenvalues --  -10.62936 -10.62666 -10.61705 -10.61489  -0.92700
 Alpha  occ. eigenvalues --   -0.84661  -0.70095  -0.64044  -0.54577  -0.53714
 Alpha  occ. eigenvalues --   -0.46565  -0.45697  -0.41288  -0.37900  -0.27549
 Alpha virt. eigenvalues --    0.01655   0.07043   0.07325   0.08115   0.09317
 Alpha virt. eigenvalues --    0.11677   0.12452   0.14647   0.15769   0.16228
 Alpha virt. eigenvalues --    0.18778   0.20284   0.21785   0.23097   0.23693

 Mulliken charges:
               1
     1  C   -0.175170
     2  C   -0.031459
     3  C   -0.031684
     4  C   -0.177631
     5  H    0.085783
     6  H    0.063102
     7  H    0.054932
     8  H    0.057411
     9  H    0.067565
    10  H    0.087152
 Sum of Mulliken charges =   0.00000

 Dipole moment (field-independent basis, Debye):
    X=             -0.0509    Y=             -0.0047    Z=              0.1029  Tot=              0.1149
 Quadrupole moment (field-independent basis, Debye-Ang):
   XX=            -23.5397   YY=            -23.0278   ZZ=            -29.3652
   XY=              0.1857   XZ=              0.0903   YZ=              0.0854

 1\1\GINC-NODE14\SP\RB2PLYPD3-FC\def2QZVP\C4H6\BOITTIER\26-Aug-2020\0\\
 #p B2PLYPD3/Def2QZVP\\butadiene\\0,1\C,0,-3.837178,0.232302,0.004264\C
 ,0,-2.724819,-0.519387,0.060603\C,0,-1.386938,0.072643,0.016506\C,0,-0
 .253973,-0.650707,0.029989\H,0,-4.812253,-0.202607,0.004205\H,0,-3.800
 204,1.331113,-0.021676\H,0,-2.806514,-1.618172,0.039813\H,0,-1.367025,
 1.151105,0.004682\H,0,-0.301688,-1.726885,0.0037\H,0,0.708851,-0.17531
 1,-0.031518\\Version=ES64L-G09RevD.01\State=1-A\HF=-155.6997806\MP2=-1
 55.925934\RMSD=2.701e-09\PG=C01 [X(C4H6)]\\@

 Normal termination of Gaussian 09 at Wed Aug 26 15:24:53 2020.
