 Gaussian 09, Revision D.01,
 Gaussian 09:  ES64L-G09RevD.01 24-Apr-2013

 --------------------
 #p B2PLYPD3/Def2QZVP
 --------------------

 ---------
 butadiene
 ---------
 Symbolic Z-matrix:
 Charge =  0 Multiplicity = 1

                         Standard orientation:
 ---------------------------------------------------------------------
 Center     Atomic      Atomic             Coordinates (Angstroms)
 Number     Number       Type             X           Y           Z
 ---------------------------------------------------------------------
      1          6           0       -1.810502   -0.133555    0.019996
      2          6           0       -0.604500    0.419563   -0.002623
      3          6           0        0.580838   -0.360443   -0.028947
      4          6           0        1.832357    0.085747    0.002622
      5          1           0       -2.702341    0.492946   -0.116897
      6          1           0       -1.956902   -1.232573    0.134231
      7          1           0       -0.513618    1.544216   -0.032043
      8          1           0        0.447459   -1.446681   -0.052857
      9          1           0        1.997931    1.117631    0.132847
     10          1           0        2.738316   -0.543405   -0.011572
 ---------------------------------------------------------------------

 SCF Done:  E(RB2PLYPD3) =  -155.694643452     A.U. after   11 cycles
 E2(B2PLYPD3) =    -0.2260993821D+00 E(B2PLYPD3) =    -0.15592074283452D+03

 The electronic state is 1-A.
 Alpha  occ. eigenvalues --  -10.62707 -10.62152 -10.62018 -10.61174  -0.93606
 Alpha  occ. eigenvalues --   -0.84983  -0.70140  -0.63564  -0.54564  -0.53959
 Alpha  occ. eigenvalues --   -0.46567  -0.44934  -0.41096  -0.38533  -0.27569
 Alpha virt. eigenvalues --    0.01583   0.07012   0.07234   0.07880   0.09837
 Alpha virt. eigenvalues --    0.11701   0.12402   0.14736   0.15899   0.16079
 Alpha virt. eigenvalues --    0.18719   0.20327   0.21501   0.22595   0.23724

 Mulliken charges:
               1
     1  C   -0.172275
     2  C   -0.029941
     3  C   -0.017460
     4  C   -0.177046
     5  H    0.084408
     6  H    0.067692
     7  H    0.050572
     8  H    0.047981
     9  H    0.060827
    10  H    0.085242
 Sum of Mulliken charges =   0.00000

 Dipole moment (field-independent basis, Debye):
    X=             -0.0543    Y=              0.0080    Z=              0.0395  Tot=              0.0676
 Quadrupole moment (field-independent basis, Debye-Ang):
   XX=            -23.5211   YY=            -23.2366   ZZ=            -29.1947
   XY=              0.0411   XZ=              0.3393   YZ=             -0.0697

 1\1\GINC-NODE27\SP\RB2PLYPD3-FC\def2QZVP\C4H6\BOITTIER\26-Aug-2020\0\\
 #p B2PLYPD3/Def2QZVP\\butadiene\\0,1\C,0,-3.808141,0.243167,0.001176\C
 ,0,-2.721532,-0.517403,0.04246\C,0,-1.414797,0.03628,0.03967\C,0,-0.26
 4536,-0.629302,0.022925\H,0,-4.797304,-0.206877,0.161294\H,0,-3.754781
 ,1.345862,-0.15225\H,0,-2.83475,-1.638252,0.112097\H,0,-1.349911,1.128
 911,0.024747\H,0,-0.288741,-1.678047,-0.070378\H,0,0.740113,-0.1739,0.
 013688\\Version=ES64L-G09RevD.01\State=1-A\HF=-155.6946435\MP2=-155.92
 07428\RMSD=4.584e-09\PG=C01 [X(C4H6)]\\@

 Normal termination of Gaussian 09 at Wed Aug 26 09:27:21 2020.
