 Gaussian 09, Revision D.01,
 Gaussian 09:  ES64L-G09RevD.01 24-Apr-2013

 --------------------
 #p B2PLYPD3/Def2QZVP
 --------------------

 ---------
 butadiene
 ---------
 Symbolic Z-matrix:
 Charge =  0 Multiplicity = 1

                         Standard orientation:
 ---------------------------------------------------------------------
 Center     Atomic      Atomic             Coordinates (Angstroms)
 Number     Number       Type             X           Y           Z
 ---------------------------------------------------------------------
      1          6           0       -1.807953   -0.134823   -0.064575
      2          6           0       -0.571931    0.467291    0.068312
      3          6           0        0.567459   -0.359202    0.020700
      4          6           0        1.832345    0.049278   -0.036775
      5          1           0       -2.684345    0.438719   -0.110036
      6          1           0       -2.020335   -1.203109    0.125485
      7          1           0       -0.394599    1.483113    0.001769
      8          1           0        0.340362   -1.394505    0.117569
      9          1           0        1.973333    1.172097    0.074250
     10          1           0        2.666067   -0.631577   -0.135005
 ---------------------------------------------------------------------

 SCF Done:  E(RB2PLYPD3) =  -155.682956225     A.U. after   11 cycles
 E2(B2PLYPD3) =    -0.2272646946D+00 E(B2PLYPD3) =    -0.15591022091986D+03

 The electronic state is 1-A.
 Alpha  occ. eigenvalues --  -10.62569 -10.62272 -10.61766 -10.61465  -0.93785
 Alpha  occ. eigenvalues --   -0.84160  -0.70963  -0.64825  -0.55088  -0.53088
 Alpha  occ. eigenvalues --   -0.47290  -0.44846  -0.41944  -0.38174  -0.26876
 Alpha virt. eigenvalues --    0.00857   0.07041   0.07260   0.08263   0.09307
 Alpha virt. eigenvalues --    0.11764   0.12430   0.14803   0.15576   0.16360
 Alpha virt. eigenvalues --    0.18398   0.19728   0.21921   0.23481   0.23949

 Mulliken charges:
               1
     1  C   -0.169901
     2  C   -0.048827
     3  C    0.001216
     4  C   -0.195197
     5  H    0.075899
     6  H    0.068731
     7  H    0.068261
     8  H    0.051834
     9  H    0.053832
    10  H    0.094152
 Sum of Mulliken charges =   0.00000

 Dipole moment (field-independent basis, Debye):
    X=             -0.1522    Y=             -0.0285    Z=              0.1311  Tot=              0.2029
 Quadrupole moment (field-independent basis, Debye-Ang):
   XX=            -23.7717   YY=            -23.1560   ZZ=            -29.2280
   XY=              0.2231   XZ=             -0.1188   YZ=             -0.1569

 1\1\GINC-NODE12\SP\RB2PLYPD3-FC\def2QZVP\C4H6\BOITTIER\26-Aug-2020\0\\
 #p B2PLYPD3/Def2QZVP\\butadiene\\0,1\C,0,-3.800092,0.274496,0.076852\C
 ,0,-2.705966,-0.561607,-0.031645\C,0,-1.426895,0.027421,-0.007348\C,0,
 -0.266055,-0.618222,0.068109\H,0,-4.771528,-0.114907,0.138143\H,0,-3.8
 00181,1.356792,-0.149199\H,0,-2.730366,-1.589724,0.069096\H,0,-1.44758
 3,1.083352,-0.13922\H,0,-0.347536,-1.749995,-0.005209\H,0,0.684933,-0.
 110535,0.146727\\Version=ES64L-G09RevD.01\State=1-A\HF=-155.6829562\MP
 2=-155.9102209\RMSD=9.235e-09\PG=C01 [X(C4H6)]\\@

 Normal termination of Gaussian 09 at Wed Aug 26 13:37:26 2020.
