 Gaussian 09, Revision D.01,
 Gaussian 09:  ES64L-G09RevD.01 24-Apr-2013

 --------------------
 #p B2PLYPD3/Def2QZVP
 --------------------

 ---------
 butadiene
 ---------
 Symbolic Z-matrix:
 Charge =  0 Multiplicity = 1

                         Standard orientation:
 ---------------------------------------------------------------------
 Center     Atomic      Atomic             Coordinates (Angstroms)
 Number     Number       Type             X           Y           Z
 ---------------------------------------------------------------------
      1          6           0        1.864060   -0.153565   -0.023523
      2          6           0        0.614480    0.476147   -0.005748
      3          6           0       -0.632093   -0.359128    0.080567
      4          6           0       -1.868857    0.061558   -0.079340
      5          1           0        2.810607    0.447697   -0.068484
      6          1           0        2.023911   -1.256623   -0.112020
      7          1           0        0.479302    1.585200    0.211975
      8          1           0       -0.463782   -1.501133    0.175327
      9          1           0       -2.082549    1.149366   -0.004308
     10          1           0       -2.633029   -0.574580   -0.034228
 ---------------------------------------------------------------------

 SCF Done:  E(RB2PLYPD3) =  -155.673839144     A.U. after   12 cycles
 E2(B2PLYPD3) =    -0.2282552278D+00 E(B2PLYPD3) =    -0.15590209437135D+03

 The electronic state is 1-A.
 Alpha  occ. eigenvalues --  -10.64875 -10.63712 -10.63358 -10.60494  -0.91805
 Alpha  occ. eigenvalues --   -0.84342  -0.69866  -0.62628  -0.54899  -0.52503
 Alpha  occ. eigenvalues --   -0.47091  -0.44559  -0.40725  -0.36837  -0.27753
 Alpha virt. eigenvalues --    0.01202   0.06852   0.07109   0.07816   0.08891
 Alpha virt. eigenvalues --    0.11279   0.12290   0.14360   0.15354   0.16492
 Alpha virt. eigenvalues --    0.18820   0.19513   0.22052   0.22343   0.23462

 Mulliken charges:
               1
     1  C   -0.172698
     2  C   -0.049672
     3  C   -0.024659
     4  C   -0.163492
     5  H    0.081109
     6  H    0.075248
     7  H    0.067272
     8  H    0.041489
     9  H    0.056096
    10  H    0.089309
 Sum of Mulliken charges =   0.00000

 Dipole moment (field-independent basis, Debye):
    X=              0.0569    Y=             -0.0385    Z=              0.2043  Tot=              0.2155
 Quadrupole moment (field-independent basis, Debye-Ang):
   XX=            -23.4402   YY=            -23.1508   ZZ=            -29.5887
   XY=             -0.3222   XZ=             -0.2912   YZ=              0.2865

 1\1\GINC-NODE38\SP\RB2PLYPD3-FC\def2QZVP\C4H6\BOITTIER\26-Aug-2020\0\\
 #p B2PLYPD3/Def2QZVP\\butadiene\\0,1\C,0,-3.860321,0.270603,-0.012153\
 C,0,-2.743606,-0.57073,0.046237\C,0,-1.367204,0.031304,0.092604\C,0,-0
 .226573,-0.61216,-0.037959\H,0,-4.899441,-0.153008,-0.028623\H,0,-3.82
 0538,1.377909,-0.161861\H,0,-2.808082,-1.672414,0.325184\H,0,-1.327842
 ,1.188442,0.123694\H,0,-0.210723,-1.714865,0.097729\H,0,0.639367,-0.12
 1627,-0.024138\\Version=ES64L-G09RevD.01\State=1-A\HF=-155.6738391\MP2
 =-155.9020944\RMSD=4.238e-09\PG=C01 [X(C4H6)]\\@

 Normal termination of Gaussian 09 at Wed Aug 26 15:15:14 2020.
