 Gaussian 09, Revision D.01,
 Gaussian 09:  ES64L-G09RevD.01 24-Apr-2013

 --------------------
 #p B2PLYPD3/Def2QZVP
 --------------------

 ---------
 butadiene
 ---------
 Symbolic Z-matrix:
 Charge =  0 Multiplicity = 1

                         Standard orientation:
 ---------------------------------------------------------------------
 Center     Atomic      Atomic             Coordinates (Angstroms)
 Number     Number       Type             X           Y           Z
 ---------------------------------------------------------------------
      1          6           0        1.799701   -0.135654   -0.012928
      2          6           0        0.606946    0.428063   -0.001571
      3          6           0       -0.569715   -0.369660   -0.016256
      4          6           0       -1.839391    0.081770   -0.003393
      5          1           0        2.630358    0.571320   -0.075812
      6          1           0        1.954395   -1.216267    0.254757
      7          1           0        0.450979    1.461855    0.011279
      8          1           0       -0.295565   -1.354377   -0.123590
      9          1           0       -2.019197    1.078033    0.125719
     10          1           0       -2.706214   -0.567678    0.012539
 ---------------------------------------------------------------------

 SCF Done:  E(RB2PLYPD3) =  -155.684646591     A.U. after   11 cycles
 E2(B2PLYPD3) =    -0.2256477256D+00 E(B2PLYPD3) =    -0.15591029431638D+03

 The electronic state is 1-A.
 Alpha  occ. eigenvalues --  -10.61870 -10.61491 -10.61413 -10.60912  -0.94074
 Alpha  occ. eigenvalues --   -0.84895  -0.70916  -0.65225  -0.54906  -0.53784
 Alpha  occ. eigenvalues --   -0.47121  -0.46262  -0.41267  -0.38349  -0.27377
 Alpha virt. eigenvalues --    0.01416   0.06985   0.07485   0.08276   0.09469
 Alpha virt. eigenvalues --    0.11990   0.12415   0.15055   0.15520   0.16224
 Alpha virt. eigenvalues --    0.18449   0.19959   0.21778   0.23501   0.23897

 Mulliken charges:
               1
     1  C   -0.178644
     2  C   -0.028853
     3  C   -0.022546
     4  C   -0.189169
     5  H    0.077493
     6  H    0.075680
     7  H    0.058004
     8  H    0.057908
     9  H    0.067102
    10  H    0.083025
 Sum of Mulliken charges =   0.00000

 Dipole moment (field-independent basis, Debye):
    X=              0.0573    Y=              0.0824    Z=              0.2034  Tot=              0.2268
 Quadrupole moment (field-independent basis, Debye-Ang):
   XX=            -23.9344   YY=            -23.1197   ZZ=            -28.9619
   XY=             -0.3069   XZ=              0.0328   YZ=             -0.1016

 1\1\GINC-NODE38\SP\RB2PLYPD3-FC\def2QZVP\C4H6\BOITTIER\26-Aug-2020\0\\
 #p B2PLYPD3/Def2QZVP\\butadiene\\0,1\C,0,-3.793438,0.258242,0.00916\C,
 0,-2.728619,-0.520251,0.035221\C,0,-1.422494,0.040285,0.00444\C,0,-0.2
 60924,-0.642469,0.029595\H,0,-4.742853,-0.280313,-0.03909\H,0,-3.74050
 6,1.354369,0.252091\H,0,-2.770712,-1.564336,0.071697\H,0,-1.505978,1.0
 56391,-0.12558\H,0,-0.272209,-1.651597,0.181493\H,0,0.713014,-0.168279
 ,0.032266\\Version=ES64L-G09RevD.01\State=1-A\HF=-155.6846466\MP2=-155
 .9102943\RMSD=6.581e-09\PG=C01 [X(C4H6)]\\@

 Normal termination of Gaussian 09 at Wed Aug 26 15:23:30 2020.
