 Gaussian 09, Revision D.01,
 Gaussian 09:  ES64L-G09RevD.01 24-Apr-2013

 --------------------
 #p B2PLYPD3/Def2QZVP
 --------------------

 ---------
 butadiene
 ---------
 Symbolic Z-matrix:
 Charge =  0 Multiplicity = 1

                         Standard orientation:
 ---------------------------------------------------------------------
 Center     Atomic      Atomic             Coordinates (Angstroms)
 Number     Number       Type             X           Y           Z
 ---------------------------------------------------------------------
      1          6           0       -1.832748   -0.111249   -0.006315
      2          6           0       -0.599338    0.396522   -0.000531
      3          6           0        0.603671   -0.399498   -0.004088
      4          6           0        1.828500    0.108315    0.005091
      5          1           0       -2.676357    0.522329    0.007838
      6          1           0       -2.035972   -1.170733   -0.006493
      7          1           0       -0.499671    1.475722    0.046438
      8          1           0        0.506912   -1.461104    0.034866
      9          1           0        1.984092    1.177449   -0.041249
     10          1           0        2.720485   -0.508203   -0.006347
 ---------------------------------------------------------------------

 SCF Done:  E(RB2PLYPD3) =  -155.701024872     A.U. after   11 cycles
 E2(B2PLYPD3) =    -0.2251508971D+00 E(B2PLYPD3) =    -0.15592617576861D+03

 The electronic state is 1-A.
 Alpha  occ. eigenvalues --  -10.62385 -10.62044 -10.61298 -10.61086  -0.93273
 Alpha  occ. eigenvalues --   -0.85150  -0.70338  -0.64337  -0.54818  -0.54349
 Alpha  occ. eigenvalues --   -0.46679  -0.45536  -0.41394  -0.38296  -0.27698
 Alpha virt. eigenvalues --    0.01829   0.07044   0.07509   0.08067   0.09727
 Alpha virt. eigenvalues --    0.11686   0.12507   0.14796   0.15887   0.16286
 Alpha virt. eigenvalues --    0.18803   0.20502   0.21767   0.22733   0.23930

 Mulliken charges:
               1
     1  C   -0.176622
     2  C   -0.031708
     3  C   -0.029466
     4  C   -0.172244
     5  H    0.084505
     6  H    0.065906
     7  H    0.055240
     8  H    0.058545
     9  H    0.062479
    10  H    0.083367
 Sum of Mulliken charges =   0.00000

 Dipole moment (field-independent basis, Debye):
    X=             -0.0069    Y=             -0.0116    Z=              0.0262  Tot=              0.0295
 Quadrupole moment (field-independent basis, Debye-Ang):
   XX=            -23.3974   YY=            -23.0829   ZZ=            -29.1551
   XY=              0.0789   XZ=             -0.1210   YZ=             -0.0202

 1\1\GINC-NODE17\SP\RB2PLYPD3-FC\def2QZVP\C4H6\BOITTIER\26-Aug-2020\0\\
 #p B2PLYPD3/Def2QZVP\\butadiene\\0,1\C,0,-3.835031,0.223718,0.021598\C
 ,0,-2.713169,-0.497677,0.03498\C,0,-1.386534,0.068558,0.017357\C,0,-0.
 27313,-0.651439,0.027322\H,0,-4.77893,-0.247816,0.024631\H,0,-3.844255
 ,1.301969,-0.011511\H,0,-2.80949,-1.57812,0.021637\H,0,-1.290758,1.128
 526,-0.054631\H,0,-0.312368,-1.729168,0.107091\H,0,0.715277,-0.205468,
 0.022239\\Version=ES64L-G09RevD.01\State=1-A\HF=-155.7010249\MP2=-155.
 9261758\RMSD=4.169e-09\PG=C01 [X(C4H6)]\\@

 Normal termination of Gaussian 09 at Wed Aug 26 22:03:43 2020.
