 Gaussian 09, Revision D.01,
 Gaussian 09:  ES64L-G09RevD.01 24-Apr-2013

 --------------------
 #p B2PLYPD3/Def2QZVP
 --------------------

 ---------
 butadiene
 ---------
 Symbolic Z-matrix:
 Charge =  0 Multiplicity = 1

                         Standard orientation:
 ---------------------------------------------------------------------
 Center     Atomic      Atomic             Coordinates (Angstroms)
 Number     Number       Type             X           Y           Z
 ---------------------------------------------------------------------
      1          6           0       -1.846722   -0.120818   -0.003331
      2          6           0       -0.600252    0.406558    0.016576
      3          6           0        0.608008   -0.383762    0.008100
      4          6           0        1.846446    0.097982   -0.018118
      5          1           0       -2.714809    0.516997   -0.047896
      6          1           0       -2.042776   -1.148833   -0.080851
      7          1           0       -0.480818    1.489292    0.073343
      8          1           0        0.447408   -1.466299    0.088063
      9          1           0        2.036102    1.160061   -0.052852
     10          1           0        2.710010   -0.550978    0.000829
 ---------------------------------------------------------------------

 SCF Done:  E(RB2PLYPD3) =  -155.699628772     A.U. after   11 cycles
 E2(B2PLYPD3) =    -0.2258527382D+00 E(B2PLYPD3) =    -0.15592548151041D+03

 The electronic state is 1-A.
 Alpha  occ. eigenvalues --  -10.62843 -10.62474 -10.61457 -10.61429  -0.92968
 Alpha  occ. eigenvalues --   -0.84840  -0.70678  -0.64050  -0.54684  -0.54048
 Alpha  occ. eigenvalues --   -0.46739  -0.45872  -0.41131  -0.38061  -0.27557
 Alpha virt. eigenvalues --    0.01441   0.07007   0.07471   0.08037   0.09652
 Alpha virt. eigenvalues --    0.11655   0.12469   0.14873   0.15859   0.16083
 Alpha virt. eigenvalues --    0.18827   0.20521   0.21774   0.22842   0.23562

 Mulliken charges:
               1
     1  C   -0.177003
     2  C   -0.034061
     3  C   -0.025053
     4  C   -0.176898
     5  H    0.082282
     6  H    0.069801
     7  H    0.055632
     8  H    0.052547
     9  H    0.065531
    10  H    0.087221
 Sum of Mulliken charges =   0.00000

 Dipole moment (field-independent basis, Debye):
    X=             -0.0076    Y=             -0.0060    Z=             -0.0114  Tot=              0.0150
 Quadrupole moment (field-independent basis, Debye-Ang):
   XX=            -23.3298   YY=            -23.1678   ZZ=            -29.2570
   XY=              0.2802   XZ=              0.2318   YZ=             -0.0124

 1\1\GINC-NODE35\SP\RB2PLYPD3-FC\def2QZVP\C4H6\BOITTIER\26-Aug-2020\0\\
 #p B2PLYPD3/Def2QZVP\\butadiene\\0,1\C,0,-3.847038,0.239025,0.024252\C
 ,0,-2.717105,-0.506257,0.020283\C,0,-1.385449,0.051446,0.005114\C,0,-0
 .254886,-0.646163,0.045878\H,0,-4.816212,-0.228972,0.087883\H,0,-3.852
 844,1.287384,0.070854\H,0,-2.796465,-1.593876,-0.003939\H,0,-1.347343,
 1.142306,-0.10733\H,0,-0.26095,-1.723526,0.112502\H,0,0.712001,-0.1656
 32,0.007518\\Version=ES64L-G09RevD.01\State=1-A\HF=-155.6996288\MP2=-1
 55.9254815\RMSD=5.564e-09\PG=C01 [X(C4H6)]\\@

 Normal termination of Gaussian 09 at Wed Aug 26 18:04:55 2020.
