 Gaussian 09, Revision D.01,
 Gaussian 09:  ES64L-G09RevD.01 24-Apr-2013

 --------------------
 #p B2PLYPD3/Def2QZVP
 --------------------

 ---------
 butadiene
 ---------
 Symbolic Z-matrix:
 Charge =  0 Multiplicity = 1

                         Standard orientation:
 ---------------------------------------------------------------------
 Center     Atomic      Atomic             Coordinates (Angstroms)
 Number     Number       Type             X           Y           Z
 ---------------------------------------------------------------------
      1          6           0        1.820419    0.069364   -0.065439
      2          6           0        0.583084   -0.370513    0.065312
      3          6           0       -0.576201    0.424633    0.140845
      4          6           0       -1.792976   -0.105659   -0.095931
      5          1           0        2.719641   -0.580377   -0.157876
      6          1           0        1.995355    1.187516   -0.036445
      7          1           0        0.270721   -1.444894    0.102287
      8          1           0       -0.530140    1.532296   -0.035589
      9          1           0       -1.966602   -1.204941    0.022587
     10          1           0       -2.694932    0.403442   -0.163688
 ---------------------------------------------------------------------

 SCF Done:  E(RB2PLYPD3) =  -155.681880451     A.U. after   12 cycles
 E2(B2PLYPD3) =    -0.2274576671D+00 E(B2PLYPD3) =    -0.15590933811852D+03

 The electronic state is 1-A.
 Alpha  occ. eigenvalues --  -10.62805 -10.62496 -10.62158 -10.61839  -0.93896
 Alpha  occ. eigenvalues --   -0.84686  -0.70650  -0.63313  -0.55317  -0.52796
 Alpha  occ. eigenvalues --   -0.47060  -0.43977  -0.40540  -0.38931  -0.27534
 Alpha virt. eigenvalues --    0.01206   0.07071   0.07137   0.07995   0.09327
 Alpha virt. eigenvalues --    0.11670   0.12457   0.14602   0.15309   0.16510
 Alpha virt. eigenvalues --    0.18659   0.19130   0.22468   0.23214   0.23332

 Mulliken charges:
               1
     1  C   -0.175052
     2  C   -0.018319
     3  C   -0.023770
     4  C   -0.158629
     5  H    0.089728
     6  H    0.061632
     7  H    0.044522
     8  H    0.052785
     9  H    0.045450
    10  H    0.081651
 Sum of Mulliken charges =   0.00000

 Dipole moment (field-independent basis, Debye):
    X=             -0.1829    Y=              0.0037    Z=             -0.1057  Tot=              0.2113
 Quadrupole moment (field-independent basis, Debye-Ang):
   XX=            -23.2356   YY=            -23.6161   ZZ=            -29.2212
   XY=              0.1943   XZ=              0.0364   YZ=             -0.2532

 1\1\GINC-NODE16\SP\RB2PLYPD3-FC\def2QZVP\C4H6\BOITTIER\26-Aug-2020\0\\
 #p B2PLYPD3/Def2QZVP\\butadiene\\0,1\C,0,-3.821908,0.200722,0.092027\C
 ,0,-2.691977,-0.47022,-0.029127\C,0,-1.40213,0.086775,-0.118326\C,0,-0
 .30875,-0.662116,0.129655\H,0,-4.828627,-0.263047,0.195677\H,0,-3.7796
 7,1.330946,0.041875\H,0,-2.591119,-1.585024,-0.045606\H,0,-1.234886,1.
 185862,0.037247\H,0,-0.349037,-1.776319,0.031967\H,0,0.674142,-0.33390
 3,0.188813\\Version=ES64L-G09RevD.01\State=1-A\HF=-155.6818805\MP2=-15
 5.9093381\RMSD=3.053e-09\PG=C01 [X(C4H6)]\\@

 Normal termination of Gaussian 09 at Wed Aug 26 15:58:42 2020.
