 Gaussian 09, Revision D.01,
 Gaussian 09:  ES64L-G09RevD.01 24-Apr-2013

 --------------------
 #p B2PLYPD3/Def2QZVP
 --------------------

 ---------
 butadiene
 ---------
 Symbolic Z-matrix:
 Charge =  0 Multiplicity = 1

                         Standard orientation:
 ---------------------------------------------------------------------
 Center     Atomic      Atomic             Coordinates (Angstroms)
 Number     Number       Type             X           Y           Z
 ---------------------------------------------------------------------
      1          6           0        1.836854    0.113919    0.075132
      2          6           0        0.635907   -0.393758   -0.072836
      3          6           0       -0.613582    0.360408   -0.072796
      4          6           0       -1.833820   -0.119800    0.018791
      5          1           0        2.724301   -0.492283   -0.009011
      6          1           0        1.959188    1.282626   -0.000911
      7          1           0        0.650181   -1.497765    0.096088
      8          1           0       -0.589938    1.443685   -0.030438
      9          1           0       -2.262750   -1.105930    0.012813
     10          1           0       -2.633136    0.605054    0.241721
 ---------------------------------------------------------------------

 SCF Done:  E(RB2PLYPD3) =  -155.680700564     A.U. after   11 cycles
 E2(B2PLYPD3) =    -0.2261121094D+00 E(B2PLYPD3) =    -0.15590681267333D+03

 The electronic state is 1-A.
 Alpha  occ. eigenvalues --  -10.62704 -10.62628 -10.62060 -10.61472  -0.93177
 Alpha  occ. eigenvalues --   -0.85775  -0.69785  -0.63187  -0.55229  -0.53550
 Alpha  occ. eigenvalues --   -0.47128  -0.43617  -0.40049  -0.38356  -0.28335
 Alpha virt. eigenvalues --    0.01830   0.06903   0.07443   0.07684   0.09614
 Alpha virt. eigenvalues --    0.11244   0.12527   0.14589   0.15331   0.16792
 Alpha virt. eigenvalues --    0.18686   0.19022   0.21370   0.22945   0.24426

 Mulliken charges:
               1
     1  C   -0.154793
     2  C   -0.040009
     3  C   -0.026906
     4  C   -0.161651
     5  H    0.086215
     6  H    0.045254
     7  H    0.057401
     8  H    0.059865
     9  H    0.072898
    10  H    0.061727
 Sum of Mulliken charges =   0.00000

 Dipole moment (field-independent basis, Debye):
    X=             -0.0800    Y=             -0.0858    Z=              0.1460  Tot=              0.1873
 Quadrupole moment (field-independent basis, Debye-Ang):
   XX=            -23.3532   YY=            -23.3933   ZZ=            -29.1400
   XY=             -0.0999   XZ=             -0.6259   YZ=             -0.0281

 1\1\GINC-NODE02\SP\RB2PLYPD3-FC\def2QZVP\C4H6\BOITTIER\26-Aug-2020\0\\
 #p B2PLYPD3/Def2QZVP\\butadiene\\0,1\C,0,-3.838896,0.214927,-0.052918\
 C,0,-2.74196,-0.487662,0.105217\C,0,-1.381396,0.039729,0.078524\C,0,-0
 .262823,-0.645842,-0.003665\H,0,-4.816639,-0.226771,0.052171\H,0,-3.75
 7657,1.388903,-0.010437\H,0,-2.947444,-1.577003,-0.031471\H,0,-1.21867
 4,1.109273,0.004766\H,0,-0.009921,-1.690552,0.029372\H,0,0.647311,-0.0
 7602,-0.2506\\Version=ES64L-G09RevD.01\State=1-A\HF=-155.6807006\MP2=-
 155.9068127\RMSD=6.517e-09\PG=C01 [X(C4H6)]\\@

 Normal termination of Gaussian 09 at Wed Aug 26 15:23:22 2020.
