 Gaussian 09, Revision D.01,
 Gaussian 09:  ES64L-G09RevD.01 24-Apr-2013

 --------------------
 #p B2PLYPD3/Def2QZVP
 --------------------

 ---------
 butadiene
 ---------
 Symbolic Z-matrix:
 Charge =  0 Multiplicity = 1

                         Standard orientation:
 ---------------------------------------------------------------------
 Center     Atomic      Atomic             Coordinates (Angstroms)
 Number     Number       Type             X           Y           Z
 ---------------------------------------------------------------------
      1          6           0        1.851554    0.110402    0.014997
      2          6           0        0.603821   -0.408228   -0.035052
      3          6           0       -0.613162    0.393207   -0.010446
      4          6           0       -1.845318   -0.109085    0.016429
      5          1           0        2.759962   -0.497588    0.017116
      6          1           0        2.028187    1.180739    0.081403
      7          1           0        0.466368   -1.484385   -0.019479
      8          1           0       -0.483427    1.494388   -0.059869
      9          1           0       -2.041204   -1.151886    0.072506
     10          1           0       -2.711251    0.540955   -0.007248
 ---------------------------------------------------------------------

 SCF Done:  E(RB2PLYPD3) =  -155.699592186     A.U. after   11 cycles
 E2(B2PLYPD3) =    -0.2260796930D+00 E(B2PLYPD3) =    -0.15592567187905D+03

 The electronic state is 1-A.
 Alpha  occ. eigenvalues --  -10.62951 -10.62790 -10.62032 -10.61294  -0.92734
 Alpha  occ. eigenvalues --   -0.84730  -0.70270  -0.63954  -0.54519  -0.53846
 Alpha  occ. eigenvalues --   -0.46731  -0.45536  -0.40994  -0.37990  -0.27623
 Alpha virt. eigenvalues --    0.01538   0.06979   0.07417   0.08002   0.09533
 Alpha virt. eigenvalues --    0.11599   0.12452   0.14701   0.15816   0.16231
 Alpha virt. eigenvalues --    0.18864   0.20471   0.21809   0.22695   0.23502

 Mulliken charges:
               1
     1  C   -0.171400
     2  C   -0.039424
     3  C   -0.023559
     4  C   -0.176614
     5  H    0.084354
     6  H    0.064529
     7  H    0.057779
     8  H    0.052153
     9  H    0.067740
    10  H    0.084440
 Sum of Mulliken charges =   0.00000

 Dipole moment (field-independent basis, Debye):
    X=             -0.0077    Y=             -0.0157    Z=              0.0523  Tot=              0.0551
 Quadrupole moment (field-independent basis, Debye-Ang):
   XX=            -23.2739   YY=            -23.1807   ZZ=            -29.3409
   XY=              0.2653   XZ=              0.1305   YZ=             -0.0649

 1\1\GINC-NODE10\SP\RB2PLYPD3-FC\def2QZVP\C4H6\BOITTIER\26-Aug-2020\0\\
 #p B2PLYPD3/Def2QZVP\\butadiene\\0,1\C,0,-3.853791,0.227308,0.000652\C
 ,0,-2.719517,-0.505729,0.06696\C,0,-1.378344,0.063054,0.025822\C,0,-0.
 256592,-0.653031,0.014782\H,0,-4.856691,-0.207369,0.011122\H,0,-3.8352
 73,1.309973,-0.092754\H,0,-2.777767,-1.589115,0.07845\H,0,-1.307944,1.
 170504,0.047572\H,0,-0.251437,-1.715125,-0.014887\H,0,0.712121,-0.1688
 32,0.024705\\Version=ES64L-G09RevD.01\State=1-A\HF=-155.6995922\MP2=-1
 55.9256719\RMSD=5.754e-09\PG=C01 [X(C4H6)]\\@

 Normal termination of Gaussian 09 at Wed Aug 26 13:52:35 2020.
