 Gaussian 09, Revision D.01,
 Gaussian 09:  ES64L-G09RevD.01 24-Apr-2013

 --------------------
 #p B2PLYPD3/Def2QZVP
 --------------------

 ---------
 butadiene
 ---------
 Symbolic Z-matrix:
 Charge =  0 Multiplicity = 1

                         Standard orientation:
 ---------------------------------------------------------------------
 Center     Atomic      Atomic             Coordinates (Angstroms)
 Number     Number       Type             X           Y           Z
 ---------------------------------------------------------------------
      1          6           0        1.831101    0.116169    0.017724
      2          6           0        0.601598   -0.420362   -0.016338
      3          6           0       -0.594367    0.395138   -0.019535
      4          6           0       -1.843911   -0.100560    0.000194
      5          1           0        2.745967   -0.491545   -0.004923
      6          1           0        1.967957    1.188710   -0.019788
      7          1           0        0.485557   -1.475002    0.052460
      8          1           0       -0.418327    1.462298    0.023432
      9          1           0       -2.010704   -1.155853   -0.016123
     10          1           0       -2.736976    0.529085    0.072672
 ---------------------------------------------------------------------

 SCF Done:  E(RB2PLYPD3) =  -155.699641752     A.U. after   11 cycles
 E2(B2PLYPD3) =    -0.2260559485D+00 E(B2PLYPD3) =    -0.15592569770051D+03

 The electronic state is 1-A.
 Alpha  occ. eigenvalues --  -10.62614 -10.62386 -10.61804 -10.61634  -0.93056
 Alpha  occ. eigenvalues --   -0.84599  -0.70153  -0.64575  -0.54483  -0.53852
 Alpha  occ. eigenvalues --   -0.46654  -0.45588  -0.41434  -0.38088  -0.27473
 Alpha virt. eigenvalues --    0.01539   0.07007   0.07459   0.08086   0.09422
 Alpha virt. eigenvalues --    0.11687   0.12547   0.14660   0.15805   0.16186
 Alpha virt. eigenvalues --    0.18769   0.20259   0.21824   0.23162   0.23631

 Mulliken charges:
               1
     1  C   -0.173694
     2  C   -0.032493
     3  C   -0.029513
     4  C   -0.178554
     5  H    0.082448
     6  H    0.063570
     7  H    0.061192
     8  H    0.055929
     9  H    0.066277
    10  H    0.084837
 Sum of Mulliken charges =   0.00000

 Dipole moment (field-independent basis, Debye):
    X=              0.0312    Y=             -0.0229    Z=              0.0704  Tot=              0.0803
 Quadrupole moment (field-independent basis, Debye-Ang):
   XX=            -23.4372   YY=            -23.1494   ZZ=            -29.3044
   XY=              0.2073   XZ=             -0.2384   YZ=              0.0104

 1\1\GINC-NODE33\SP\RB2PLYPD3-FC\def2QZVP\C4H6\BOITTIER\26-Aug-2020\0\\
 #p B2PLYPD3/Def2QZVP\\butadiene\\0,1\C,0,-3.83202,0.232538,0.001468\C,
 0,-2.72034,-0.517404,0.051059\C,0,-1.396081,0.066803,0.030485\C,0,-0.2
 57561,-0.648186,0.02512\H,0,-4.841964,-0.197803,0.04182\H,0,-3.771467,
 1.312712,0.007783\H,0,-2.798275,-1.577092,0.012952\H,0,-1.375466,1.146
 511,-0.043486\H,0,-0.285254,-1.71531,0.072108\H,0,0.734666,-0.193748,-
 0.065679\\Version=ES64L-G09RevD.01\State=1-A\HF=-155.6996418\MP2=-155.
 9256977\RMSD=2.936e-09\PG=C01 [X(C4H6)]\\@

 Normal termination of Gaussian 09 at Wed Aug 26 11:45:47 2020.
