 Gaussian 09, Revision D.01,
 Gaussian 09:  ES64L-G09RevD.01 24-Apr-2013

 --------------------
 #p B2PLYPD3/Def2QZVP
 --------------------

 ---------
 butadiene
 ---------
 Symbolic Z-matrix:
 Charge =  0 Multiplicity = 1

                         Standard orientation:
 ---------------------------------------------------------------------
 Center     Atomic      Atomic             Coordinates (Angstroms)
 Number     Number       Type             X           Y           Z
 ---------------------------------------------------------------------
      1          6           0        1.844093   -0.107370    0.013797
      2          6           0        0.606215    0.387372   -0.018944
      3          6           0       -0.602468   -0.417117   -0.004182
      4          6           0       -1.844914    0.116871    0.017629
      5          1           0        2.681487    0.569379   -0.039300
      6          1           0        2.068658   -1.133494    0.077740
      7          1           0        0.484234    1.465326   -0.025651
      8          1           0       -0.487772   -1.479855   -0.067919
      9          1           0       -2.015829    1.195472    0.047494
     10          1           0       -2.748340   -0.495361   -0.042163
 ---------------------------------------------------------------------

 SCF Done:  E(RB2PLYPD3) =  -155.699688668     A.U. after   11 cycles
 E2(B2PLYPD3) =    -0.2258600719D+00 E(B2PLYPD3) =    -0.15592554874012D+03

 The electronic state is 1-A.
 Alpha  occ. eigenvalues --  -10.62698 -10.62459 -10.62029 -10.61077  -0.92862
 Alpha  occ. eigenvalues --   -0.84741  -0.70318  -0.64383  -0.54425  -0.54182
 Alpha  occ. eigenvalues --   -0.46526  -0.45800  -0.41335  -0.37971  -0.27515
 Alpha virt. eigenvalues --    0.01531   0.06981   0.07515   0.08042   0.09536
 Alpha virt. eigenvalues --    0.11652   0.12425   0.14809   0.15840   0.16223
 Alpha virt. eigenvalues --    0.18863   0.20465   0.21721   0.22704   0.23777

 Mulliken charges:
               1
     1  C   -0.178060
     2  C   -0.026037
     3  C   -0.041145
     4  C   -0.173164
     5  H    0.081849
     6  H    0.070320
     7  H    0.056362
     8  H    0.062027
     9  H    0.065028
    10  H    0.082819
 Sum of Mulliken charges =   0.00000

 Dipole moment (field-independent basis, Debye):
    X=              0.0007    Y=             -0.0157    Z=             -0.0561  Tot=              0.0583
 Quadrupole moment (field-independent basis, Debye-Ang):
   XX=            -23.4334   YY=            -23.0552   ZZ=            -29.2911
   XY=             -0.2592   XZ=              0.1251   YZ=              0.0251

 1\1\GINC-NODE37\SP\RB2PLYPD3-FC\def2QZVP\C4H6\BOITTIER\26-Aug-2020\0\\
 #p B2PLYPD3/Def2QZVP\\butadiene\\0,1\C,0,-3.846663,0.221642,0.032203\C
 ,0,-2.718486,-0.489103,0.016622\C,0,-1.384476,0.084175,0.006351\C,0,-0
 .258613,-0.664226,0.04657\H,0,-4.792629,-0.294274,0.000345\H,0,-3.8821
 66,1.272956,0.062629\H,0,-2.792946,-1.571027,0.044993\H,0,-1.305946,1.
 147568,-0.091926\H,0,-0.284876,-1.754442,0.111557\H,0,0.740105,-0.2272
 68,-0.03225\\Version=ES64L-G09RevD.01\State=1-A\HF=-155.6996887\MP2=-1
 55.9255487\RMSD=5.420e-09\PG=C01 [X(C4H6)]\\@

 Normal termination of Gaussian 09 at Wed Aug 26 21:42:11 2020.
