 Gaussian 09, Revision D.01,
 Gaussian 09:  ES64L-G09RevD.01 24-Apr-2013

 --------------------
 #p B2PLYPD3/Def2QZVP
 --------------------

 ---------
 butadiene
 ---------
 Symbolic Z-matrix:
 Charge =  0 Multiplicity = 1

                         Standard orientation:
 ---------------------------------------------------------------------
 Center     Atomic      Atomic             Coordinates (Angstroms)
 Number     Number       Type             X           Y           Z
 ---------------------------------------------------------------------
      1          6           0        1.818767    0.106203    0.028932
      2          6           0        0.594767   -0.396069   -0.020372
      3          6           0       -0.595171    0.408242   -0.012875
      4          6           0       -1.826073   -0.117281    0.014376
      5          1           0        2.693747   -0.541115   -0.050712
      6          1           0        1.962930    1.189738    0.020244
      7          1           0        0.477552   -1.477881   -0.077413
      8          1           0       -0.494019    1.525949    0.015585
      9          1           0       -1.944748   -1.212135    0.134316
     10          1           0       -2.649199    0.508873   -0.102389
 ---------------------------------------------------------------------

 SCF Done:  E(RB2PLYPD3) =  -155.696180844     A.U. after   11 cycles
 E2(B2PLYPD3) =    -0.2259788489D+00 E(B2PLYPD3) =    -0.15592215969266D+03

 The electronic state is 1-A.
 Alpha  occ. eigenvalues --  -10.62696 -10.62177 -10.61430 -10.61290  -0.93327
 Alpha  occ. eigenvalues --   -0.85042  -0.69991  -0.63540  -0.54662  -0.53990
 Alpha  occ. eigenvalues --   -0.46375  -0.45273  -0.41488  -0.38246  -0.27561
 Alpha virt. eigenvalues --    0.01744   0.07084   0.07199   0.08012   0.09620
 Alpha virt. eigenvalues --    0.11779   0.12365   0.14639   0.15687   0.16209
 Alpha virt. eigenvalues --    0.18675   0.20270   0.21448   0.22692   0.24251

 Mulliken charges:
               1
     1  C   -0.172868
     2  C   -0.024884
     3  C   -0.026942
     4  C   -0.183119
     5  H    0.083911
     6  H    0.064017
     7  H    0.052549
     8  H    0.048460
     9  H    0.066499
    10  H    0.092375
 Sum of Mulliken charges =   0.00000

 Dipole moment (field-independent basis, Debye):
    X=             -0.0054    Y=              0.0024    Z=             -0.0794  Tot=              0.0797
 Quadrupole moment (field-independent basis, Debye-Ang):
   XX=            -23.8617   YY=            -22.9867   ZZ=            -29.2294
   XY=             -0.0876   XZ=             -0.1158   YZ=             -0.0681

 1\1\GINC-NODE32\SP\RB2PLYPD3-FC\def2QZVP\C4H6\BOITTIER\26-Aug-2020\0\\
 #p B2PLYPD3/Def2QZVP\\butadiene\\0,1\C,0,-3.822875,0.217189,-0.006371\
 C,0,-2.709435,-0.496357,0.056773\C,0,-1.393912,0.079438,0.028777\C,0,-
 0.278203,-0.660202,0.016008\H,0,-4.799976,-0.259236,0.08979\H,0,-3.769
 065,1.308801,-0.026241\H,0,-2.789162,-1.579704,0.142291\H,0,-1.291787,
 1.195919,-0.029104\H,0,-0.359594,-1.761228,-0.075051\H,0,0.644904,-0.1
 90128,0.116716\\Version=ES64L-G09RevD.01\State=1-A\HF=-155.6961808\MP2
 =-155.9221597\RMSD=5.760e-09\PG=C01 [X(C4H6)]\\@

 Normal termination of Gaussian 09 at Wed Aug 26 10:10:34 2020.
