 Gaussian 09, Revision D.01,
 Gaussian 09:  ES64L-G09RevD.01 24-Apr-2013

 --------------------
 #p B2PLYPD3/Def2QZVP
 --------------------

 ---------
 butadiene
 ---------
 Symbolic Z-matrix:
 Charge =  0 Multiplicity = 1

                         Standard orientation:
 ---------------------------------------------------------------------
 Center     Atomic      Atomic             Coordinates (Angstroms)
 Number     Number       Type             X           Y           Z
 ---------------------------------------------------------------------
      1          6           0        1.833398   -0.100576    0.022770
      2          6           0        0.624213    0.425978   -0.087102
      3          6           0       -0.577710   -0.394834   -0.024195
      4          6           0       -1.837731    0.085052    0.041102
      5          1           0        2.800332    0.433748    0.122458
      6          1           0        1.928494   -1.206725   -0.010195
      7          1           0        0.318424    1.533717    0.180172
      8          1           0       -0.474893   -1.470641    0.042415
      9          1           0       -2.120127    1.149948   -0.087994
     10          1           0       -2.705248   -0.533768    0.037693
 ---------------------------------------------------------------------

 SCF Done:  E(RB2PLYPD3) =  -155.683385360     A.U. after   11 cycles
 E2(B2PLYPD3) =    -0.2273888900D+00 E(B2PLYPD3) =    -0.15591077424966D+03

 The electronic state is 1-A.
 Alpha  occ. eigenvalues --  -10.63642 -10.62844 -10.62520 -10.61703  -0.92932
 Alpha  occ. eigenvalues --   -0.84664  -0.70070  -0.63240  -0.55002  -0.52716
 Alpha  occ. eigenvalues --   -0.47090  -0.44394  -0.40371  -0.37925  -0.27815
 Alpha virt. eigenvalues --    0.01451   0.06983   0.07130   0.07953   0.08920
 Alpha virt. eigenvalues --    0.11529   0.12577   0.14478   0.14976   0.16473
 Alpha virt. eigenvalues --    0.18785   0.19665   0.21909   0.22511   0.24239

 Mulliken charges:
               1
     1  C   -0.159766
     2  C   -0.027832
     3  C   -0.028667
     4  C   -0.175220
     5  H    0.087081
     6  H    0.060643
     7  H    0.055078
     8  H    0.052748
     9  H    0.055104
    10  H    0.080832
 Sum of Mulliken charges =   0.00000

 Dipole moment (field-independent basis, Debye):
    X=              0.0790    Y=             -0.1167    Z=              0.1650  Tot=              0.2170
 Quadrupole moment (field-independent basis, Debye-Ang):
   XX=            -23.0132   YY=            -23.6623   ZZ=            -29.3465
   XY=             -0.4756   XZ=              0.5188   YZ=              0.1456

 1\1\GINC-NODE28\SP\RB2PLYPD3-FC\def2QZVP\C4H6\BOITTIER\26-Aug-2020\0\\
 #p B2PLYPD3/Def2QZVP\\butadiene\\0,1\C,0,-3.82851,0.22989,0.05259\C,0,
 -2.740583,-0.518145,-0.038612\C,0,-1.405519,0.064161,-0.009756\C,0,-0.
 257343,-0.640954,0.072173\H,0,-4.877576,-0.109176,0.174637\H,0,-3.7147
 27,1.332151,-0.023378\H,0,-2.645627,-1.652617,0.271205\H,0,-1.304122,1
 .141879,0.014972\H,0,-0.180868,-1.74406,-0.015712\H,0,0.710783,-0.1966
 26,0.043194\\Version=ES64L-G09RevD.01\State=1-A\HF=-155.6833854\MP2=-1
 55.9107742\RMSD=6.131e-09\PG=C01 [X(C4H6)]\\@

 Normal termination of Gaussian 09 at Wed Aug 26 12:52:23 2020.
