 Gaussian 09, Revision D.01,
 Gaussian 09:  ES64L-G09RevD.01 24-Apr-2013

 --------------------
 #p B2PLYPD3/Def2QZVP
 --------------------

 ---------
 butadiene
 ---------
 Symbolic Z-matrix:
 Charge =  0 Multiplicity = 1

                         Standard orientation:
 ---------------------------------------------------------------------
 Center     Atomic      Atomic             Coordinates (Angstroms)
 Number     Number       Type             X           Y           Z
 ---------------------------------------------------------------------
      1          6           0       -1.855965    0.085025    0.046573
      2          6           0       -0.610530   -0.380435   -0.070054
      3          6           0        0.633294    0.432627   -0.046370
      4          6           0        1.838935   -0.149146    0.091749
      5          1           0       -2.775089   -0.459318   -0.030880
      6          1           0       -2.063170    1.151676    0.216143
      7          1           0       -0.499002   -1.388746   -0.099514
      8          1           0        0.683169    1.557397   -0.182331
      9          1           0        1.875634   -1.227195    0.050036
     10          1           0        2.744053    0.437759   -0.084847
 ---------------------------------------------------------------------

 SCF Done:  E(RB2PLYPD3) =  -155.686145923     A.U. after   11 cycles
 E2(B2PLYPD3) =    -0.2263438864D+00 E(B2PLYPD3) =    -0.15591248980965D+03

 The electronic state is 1-A.
 Alpha  occ. eigenvalues --  -10.63537 -10.62425 -10.61649 -10.61595  -0.92594
 Alpha  occ. eigenvalues --   -0.85033  -0.69833  -0.64264  -0.54727  -0.54064
 Alpha  occ. eigenvalues --   -0.46680  -0.44822  -0.41282  -0.37408  -0.27937
 Alpha virt. eigenvalues --    0.01537   0.07027   0.07612   0.07769   0.09275
 Alpha virt. eigenvalues --    0.11599   0.12647   0.14324   0.15834   0.16454
 Alpha virt. eigenvalues --    0.19104   0.19895   0.21374   0.22429   0.23901

 Mulliken charges:
               1
     1  C   -0.161359
     2  C   -0.050387
     3  C   -0.033640
     4  C   -0.163216
     5  H    0.083692
     6  H    0.057559
     7  H    0.071613
     8  H    0.058349
     9  H    0.058744
    10  H    0.078646
 Sum of Mulliken charges =   0.00000

 Dipole moment (field-independent basis, Debye):
    X=             -0.0682    Y=             -0.0232    Z=             -0.2188  Tot=              0.2304
 Quadrupole moment (field-independent basis, Debye-Ang):
   XX=            -23.2726   YY=            -23.3087   ZZ=            -29.2585
   XY=              0.2008   XZ=             -0.6251   YZ=              0.0326

 1\1\GINC-NODE34\SP\RB2PLYPD3-FC\def2QZVP\C4H6\BOITTIER\26-Aug-2020\0\\
 #p B2PLYPD3/Def2QZVP\\butadiene\\0,1\C,0,-3.867241,0.185532,0.072483\C
 ,0,-2.719423,-0.487477,-0.032091\C,0,-1.356123,0.104135,-0.043863\C,0,
 -0.264479,-0.667589,0.110615\H,0,-4.865756,-0.198167,0.019178\H,0,-3.8
 89821,1.277237,0.203254\H,0,-2.779842,-1.500537,-0.024607\H,0,-1.11871
 1,1.198714,-0.221658\H,0,-0.41054,-1.737139,0.108759\H,0,0.724753,-0.2
 48706,-0.091471\\Version=ES64L-G09RevD.01\State=1-A\HF=-155.6861459\MP
 2=-155.9124898\RMSD=7.826e-09\PG=C01 [X(C4H6)]\\@

 Normal termination of Gaussian 09 at Wed Aug 26 14:23:33 2020.
