 Gaussian 09, Revision D.01,
 Gaussian 09:  ES64L-G09RevD.01 24-Apr-2013

 --------------------
 #p B2PLYPD3/Def2QZVP
 --------------------

 ---------
 butadiene
 ---------
 Symbolic Z-matrix:
 Charge =  0 Multiplicity = 1

                         Standard orientation:
 ---------------------------------------------------------------------
 Center     Atomic      Atomic             Coordinates (Angstroms)
 Number     Number       Type             X           Y           Z
 ---------------------------------------------------------------------
      1          6           0        1.815990    0.068970   -0.087525
      2          6           0        0.576422   -0.362556    0.018962
      3          6           0       -0.574019    0.468665    0.054680
      4          6           0       -1.834910   -0.129292   -0.055877
      5          1           0        2.552352   -0.683531    0.137801
      6          1           0        2.076727    1.107379   -0.103051
      7          1           0        0.425162   -1.391104    0.311379
      8          1           0       -0.335935    1.509080    0.215156
      9          1           0       -1.916104   -1.233557   -0.155498
     10          1           0       -2.703105    0.417012    0.012776
 ---------------------------------------------------------------------

 SCF Done:  E(RB2PLYPD3) =  -155.682194957     A.U. after   12 cycles
 E2(B2PLYPD3) =    -0.2272130126D+00 E(B2PLYPD3) =    -0.15590940796999D+03

 The electronic state is 1-A.
 Alpha  occ. eigenvalues --  -10.63178 -10.62421 -10.61469 -10.60685  -0.93485
 Alpha  occ. eigenvalues --   -0.84300  -0.71025  -0.64141  -0.54577  -0.53849
 Alpha  occ. eigenvalues --   -0.46603  -0.46394  -0.41683  -0.37215  -0.27160
 Alpha virt. eigenvalues --    0.00921   0.07125   0.07262   0.07976   0.09429
 Alpha virt. eigenvalues --    0.11743   0.12394   0.14994   0.15439   0.16062
 Alpha virt. eigenvalues --    0.18815   0.19905   0.21419   0.22357   0.24236

 Mulliken charges:
               1
     1  C   -0.185738
     2  C    0.003773
     3  C   -0.061180
     4  C   -0.175670
     5  H    0.074745
     6  H    0.063496
     7  H    0.057255
     8  H    0.060963
     9  H    0.070443
    10  H    0.091914
 Sum of Mulliken charges =   0.00000

 Dipole moment (field-independent basis, Debye):
    X=             -0.0887    Y=              0.0483    Z=              0.4332  Tot=              0.4448
 Quadrupole moment (field-independent basis, Debye-Ang):
   XX=            -24.1171   YY=            -23.0538   ZZ=            -29.1370
   XY=              0.5354   XZ=              0.5417   YZ=             -0.1080

 1\1\GINC-NODE10\SP\RB2PLYPD3-FC\def2QZVP\C4H6\BOITTIER\26-Aug-2020\0\\
 #p B2PLYPD3/Def2QZVP\\butadiene\\0,1\C,0,-3.823188,0.203786,0.089114\C
 ,0,-2.690972,-0.463213,0.003764\C,0,-1.401012,0.127406,-0.049994\C,0,-
 0.280267,-0.700142,0.086814\H,0,-4.691581,-0.398157,-0.11781\H,0,-3.87
 733,1.273022,0.07125\H,0,-2.742219,-1.510174,-0.256127\H,0,-1.432486,1
 .188722,-0.243692\H,0,-0.415075,-1.795512,0.220636\H,0,0.677506,-0.335
 132,0.007041\\Version=ES64L-G09RevD.01\State=1-A\HF=-155.682195\MP2=-1
 55.909408\RMSD=5.323e-09\PG=C01 [X(C4H6)]\\@

 Normal termination of Gaussian 09 at Wed Aug 26 14:41:02 2020.
