 Gaussian 09, Revision D.01,
 Gaussian 09:  ES64L-G09RevD.01 24-Apr-2013

 --------------------
 #p B2PLYPD3/Def2QZVP
 --------------------

 ---------
 butadiene
 ---------
 Symbolic Z-matrix:
 Charge =  0 Multiplicity = 1

                         Standard orientation:
 ---------------------------------------------------------------------
 Center     Atomic      Atomic             Coordinates (Angstroms)
 Number     Number       Type             X           Y           Z
 ---------------------------------------------------------------------
      1          6           0       -1.838506   -0.125972    0.011349
      2          6           0       -0.587615    0.436473   -0.027390
      3          6           0        0.595222   -0.376787   -0.031332
      4          6           0        1.842262    0.072961    0.031562
      5          1           0       -2.779048    0.436618    0.074182
      6          1           0       -1.978186   -1.189410    0.124964
      7          1           0       -0.443451    1.530939   -0.107163
      8          1           0        0.429277   -1.436469   -0.115956
      9          1           0        1.984127    1.138386    0.103227
     10          1           0        2.719101   -0.520111    0.015609
 ---------------------------------------------------------------------

 SCF Done:  E(RB2PLYPD3) =  -155.696223645     A.U. after   11 cycles
 E2(B2PLYPD3) =    -0.2265287805D+00 E(B2PLYPD3) =    -0.15592275242599D+03

 The electronic state is 1-A.
 Alpha  occ. eigenvalues --  -10.63435 -10.62354 -10.62139 -10.61043  -0.93116
 Alpha  occ. eigenvalues --   -0.84457  -0.70622  -0.64210  -0.55142  -0.53448
 Alpha  occ. eigenvalues --   -0.47029  -0.45127  -0.41441  -0.38087  -0.27329
 Alpha virt. eigenvalues --    0.01222   0.07057   0.07396   0.08061   0.09485
 Alpha virt. eigenvalues --    0.11587   0.12697   0.14602   0.15870   0.16282
 Alpha virt. eigenvalues --    0.18800   0.20454   0.21882   0.22770   0.23339

 Mulliken charges:
               1
     1  C   -0.172785
     2  C   -0.039599
     3  C   -0.016192
     4  C   -0.177663
     5  H    0.081739
     6  H    0.065456
     7  H    0.057872
     8  H    0.054106
     9  H    0.056280
    10  H    0.090785
 Sum of Mulliken charges =   0.00000

 Dipole moment (field-independent basis, Debye):
    X=             -0.0099    Y=             -0.0280    Z=              0.0508  Tot=              0.0589
 Quadrupole moment (field-independent basis, Debye-Ang):
   XX=            -23.2020   YY=            -23.3258   ZZ=            -29.2934
   XY=              0.2130   XZ=             -0.2485   YZ=             -0.0176

 1\1\GINC-NODE26\SP\RB2PLYPD3-FC\def2QZVP\C4H6\BOITTIER\26-Aug-2020\0\\
 #p B2PLYPD3/Def2QZVP\\butadiene\\0,1\C,0,-3.836878,0.24766,0.000786\C,
 0,-2.711077,-0.534106,0.063927\C,0,-1.398537,0.04672,0.044106\C,0,-0.2
 56003,-0.627193,0.001735\H,0,-4.865205,-0.133689,-0.046044\H,0,-3.7783
 35,1.313986,-0.150343\H,0,-2.771024,-1.632918,0.182333\H,0,-1.36598,1.
 121129,0.091123\H,0,-0.313253,-1.70235,-0.032224\H,0,0.715211,-0.20579
 6,0.000406\\Version=ES64L-G09RevD.01\State=1-A\HF=-155.6962236\MP2=-15
 5.9227524\RMSD=6.673e-09\PG=C01 [X(C4H6)]\\@

 Normal termination of Gaussian 09 at Wed Aug 26 09:09:24 2020.
