 Gaussian 09, Revision D.01,
 Gaussian 09:  ES64L-G09RevD.01 24-Apr-2013

 --------------------
 #p B2PLYPD3/Def2QZVP
 --------------------

 ---------
 butadiene
 ---------
 Symbolic Z-matrix:
 Charge =  0 Multiplicity = 1

                         Standard orientation:
 ---------------------------------------------------------------------
 Center     Atomic      Atomic             Coordinates (Angstroms)
 Number     Number       Type             X           Y           Z
 ---------------------------------------------------------------------
      1          6           0       -1.823362    0.099920   -0.014147
      2          6           0       -0.585650   -0.403382    0.013428
      3          6           0        0.606983    0.423586    0.038716
      4          6           0        1.824051   -0.117347   -0.034089
      5          1           0       -2.667261   -0.529638   -0.012039
      6          1           0       -2.045982    1.165179   -0.170242
      7          1           0       -0.491783   -1.477493    0.107698
      8          1           0        0.413274    1.494881    0.164694
      9          1           0        1.963623   -1.159773   -0.047976
     10          1           0        2.695994    0.490182   -0.065585
 ---------------------------------------------------------------------

 SCF Done:  E(RB2PLYPD3) =  -155.697707838     A.U. after   11 cycles
 E2(B2PLYPD3) =    -0.2255155526D+00 E(B2PLYPD3) =    -0.15592322339013D+03

 The electronic state is 1-A.
 Alpha  occ. eigenvalues --  -10.62638 -10.62316 -10.61148 -10.60996  -0.93111
 Alpha  occ. eigenvalues --   -0.84953  -0.70423  -0.64187  -0.54901  -0.54078
 Alpha  occ. eigenvalues --   -0.46842  -0.45704  -0.41387  -0.37928  -0.27581
 Alpha virt. eigenvalues --    0.01832   0.07137   0.07395   0.08101   0.09347
 Alpha virt. eigenvalues --    0.11706   0.12529   0.14865   0.15777   0.16192
 Alpha virt. eigenvalues --    0.18710   0.20412   0.21913   0.22606   0.23997

 Mulliken charges:
               1
     1  C   -0.180091
     2  C   -0.028080
     3  C   -0.035565
     4  C   -0.175324
     5  H    0.081481
     6  H    0.061818
     7  H    0.057443
     8  H    0.062200
     9  H    0.071435
    10  H    0.084682
 Sum of Mulliken charges =   0.00000

 Dipole moment (field-independent basis, Debye):
    X=              0.0270    Y=             -0.0334    Z=              0.0071  Tot=              0.0435
 Quadrupole moment (field-independent basis, Debye-Ang):
   XX=            -23.5615   YY=            -23.0435   ZZ=            -29.1428
   XY=             -0.2822   XZ=              0.0953   YZ=             -0.1124

 1\1\GINC-NODE26\SP\RB2PLYPD3-FC\def2QZVP\C4H6\BOITTIER\26-Aug-2020\0\\
 #p B2PLYPD3/Def2QZVP\\butadiene\\0,1\C,0,-3.828393,0.219359,0.001891\C
 ,0,-2.704775,-0.502531,0.050462\C,0,-1.379909,0.090445,0.051267\C,0,-0
 .28385,-0.668018,0.000736\H,0,-4.773991,-0.243157,0.022825\H,0,-3.8510
 52,1.301458,-0.191115\H,0,-2.81049,-1.571664,0.18158\H,0,-1.372129,1.1
 82746,0.140053\H,0,-0.339147,-1.718151,0.022822\H,0,0.685147,-0.233317
 ,-0.048731\\Version=ES64L-G09RevD.01\State=1-A\HF=-155.6977078\MP2=-15
 5.9232234\RMSD=5.901e-09\PG=C01 [X(C4H6)]\\@

 Normal termination of Gaussian 09 at Wed Aug 26 10:13:07 2020.
