 Gaussian 09, Revision D.01,
 Gaussian 09:  ES64L-G09RevD.01 24-Apr-2013

 --------------------
 #p B2PLYPD3/Def2QZVP
 --------------------

 ---------
 butadiene
 ---------
 Symbolic Z-matrix:
 Charge =  0 Multiplicity = 1

                         Standard orientation:
 ---------------------------------------------------------------------
 Center     Atomic      Atomic             Coordinates (Angstroms)
 Number     Number       Type             X           Y           Z
 ---------------------------------------------------------------------
      1          6           0       -1.835304    0.111792    0.010133
      2          6           0       -0.610139   -0.414528   -0.013733
      3          6           0        0.597210    0.396064   -0.020215
      4          6           0        1.838628   -0.107493   -0.003812
      5          1           0       -2.725835   -0.495528    0.015939
      6          1           0       -1.949054    1.184669    0.027337
      7          1           0       -0.438787   -1.467094    0.010721
      8          1           0        0.449262    1.481010   -0.000293
      9          1           0        2.012201   -1.152692    0.037698
     10          1           0        2.709838    0.534629    0.074362
 ---------------------------------------------------------------------

 SCF Done:  E(RB2PLYPD3) =  -155.700634618     A.U. after   11 cycles
 E2(B2PLYPD3) =    -0.2256124642D+00 E(B2PLYPD3) =    -0.15592624708234D+03

 The electronic state is 1-A.
 Alpha  occ. eigenvalues --  -10.62612 -10.62313 -10.61477 -10.61325  -0.93054
 Alpha  occ. eigenvalues --   -0.84882  -0.70274  -0.64376  -0.54726  -0.53896
 Alpha  occ. eigenvalues --   -0.46812  -0.45875  -0.41198  -0.38106  -0.27640
 Alpha virt. eigenvalues --    0.01721   0.07015   0.07435   0.08141   0.09527
 Alpha virt. eigenvalues --    0.11733   0.12535   0.14745   0.15884   0.16081
 Alpha virt. eigenvalues --    0.18757   0.20496   0.21733   0.23057   0.23829

 Mulliken charges:
               1
     1  C   -0.174569
     2  C   -0.033045
     3  C   -0.024082
     4  C   -0.179853
     5  H    0.087780
     6  H    0.065650
     7  H    0.057218
     8  H    0.051059
     9  H    0.065733
    10  H    0.084110
 Sum of Mulliken charges =   0.00000

 Dipole moment (field-independent basis, Debye):
    X=             -0.0250    Y=             -0.0274    Z=              0.1309  Tot=              0.1361
 Quadrupole moment (field-independent basis, Debye-Ang):
   XX=            -23.4881   YY=            -23.1144   ZZ=            -29.2421
   XY=             -0.1999   XZ=              0.2090   YZ=              0.0174

 1\1\GINC-NODE26\SP\RB2PLYPD3-FC\def2QZVP\C4H6\BOITTIER\26-Aug-2020\0\\
 #p B2PLYPD3/Def2QZVP\\butadiene\\0,1\C,0,-3.835215,0.229377,0.028494\C
 ,0,-2.725866,-0.510849,0.023874\C,0,-1.391542,0.066843,-0.001514\C,0,-
 0.262011,-0.652801,0.033527\H,0,-4.821111,-0.205968,0.048513\H,0,-3.75
 247,1.305139,0.014734\H,0,-2.748208,-1.575897,0.078896\H,0,-1.340234,1
 .160748,-0.013019\H,0,-0.280802,-1.710522,0.105395\H,0,0.711344,-0.177
 336,0.096395\\Version=ES64L-G09RevD.01\State=1-A\HF=-155.7006346\MP2=-
 155.9262471\RMSD=2.331e-09\PG=C01 [X(C4H6)]\\@

 Normal termination of Gaussian 09 at Wed Aug 26 22:12:44 2020.
