 Gaussian 09, Revision D.01,
 Gaussian 09:  ES64L-G09RevD.01 24-Apr-2013

 --------------------
 #p B2PLYPD3/Def2QZVP
 --------------------

 ---------
 butadiene
 ---------
 Symbolic Z-matrix:
 Charge =  0 Multiplicity = 1

                         Standard orientation:
 ---------------------------------------------------------------------
 Center     Atomic      Atomic             Coordinates (Angstroms)
 Number     Number       Type             X           Y           Z
 ---------------------------------------------------------------------
      1          6           0        1.810583   -0.141354    0.097285
      2          6           0        0.594758    0.463447   -0.111096
      3          6           0       -0.568516   -0.363830   -0.048454
      4          6           0       -1.836330    0.064215    0.046208
      5          1           0        2.654313    0.540188    0.179225
      6          1           0        2.007540   -1.248188   -0.128763
      7          1           0        0.422690    1.509152   -0.046949
      8          1           0       -0.378711   -1.466857   -0.124695
      9          1           0       -2.083741    1.145833    0.018197
     10          1           0       -2.625060   -0.614989    0.199330
 ---------------------------------------------------------------------

 SCF Done:  E(RB2PLYPD3) =  -155.683775137     A.U. after   12 cycles
 E2(B2PLYPD3) =    -0.2279825643D+00 E(B2PLYPD3) =    -0.15591175770102D+03

 The electronic state is 1-A.
 Alpha  occ. eigenvalues --  -10.63029 -10.62899 -10.62557 -10.61279  -0.93135
 Alpha  occ. eigenvalues --   -0.84127  -0.70248  -0.63803  -0.54359  -0.53157
 Alpha  occ. eigenvalues --   -0.46742  -0.44700  -0.41577  -0.37933  -0.26986
 Alpha virt. eigenvalues --    0.00954   0.06948   0.07152   0.08092   0.09009
 Alpha virt. eigenvalues --    0.11663   0.12205   0.14817   0.15583   0.16333
 Alpha virt. eigenvalues --    0.18562   0.19533   0.21405   0.22941   0.24298

 Mulliken charges:
               1
     1  C   -0.166414
     2  C   -0.051268
     3  C   -0.005008
     4  C   -0.192398
     5  H    0.075180
     6  H    0.076800
     7  H    0.069429
     8  H    0.045118
     9  H    0.059189
    10  H    0.089372
 Sum of Mulliken charges =   0.00000

 Dipole moment (field-independent basis, Debye):
    X=              0.0904    Y=              0.0510    Z=             -0.0335  Tot=              0.1091
 Quadrupole moment (field-independent basis, Debye-Ang):
   XX=            -24.1547   YY=            -22.9268   ZZ=            -29.3726
   XY=             -0.3335   XZ=             -0.3182   YZ=              0.2620

 1\1\GINC-NODE18\SP\RB2PLYPD3-FC\def2QZVP\C4H6\BOITTIER\26-Aug-2020\0\\
 #p B2PLYPD3/Def2QZVP\\butadiene\\0,1\C,0,-3.800517,0.276919,0.108578\C
 ,0,-2.723937,-0.55739,-0.071264\C,0,-1.42325,0.032697,-0.032155\C,0,-0
 .261194,-0.627223,0.084757\H,0,-4.759377,-0.226376,0.21044\H,0,-3.7814
 28,1.391995,-0.158277\H,0,-2.75596,-1.61363,0.031459\H,0,-1.397635,1.1
 4812,-0.149126\H,0,-0.226329,-1.736514,0.097087\H,0,0.643617,-0.107096
 ,0.217587\\Version=ES64L-G09RevD.01\State=1-A\HF=-155.6837751\MP2=-155
 .9117577\RMSD=4.199e-09\PG=C01 [X(C4H6)]\\@

 Normal termination of Gaussian 09 at Wed Aug 26 15:27:43 2020.
