 Gaussian 09, Revision D.01,
 Gaussian 09:  ES64L-G09RevD.01 24-Apr-2013

 --------------------
 #p B2PLYPD3/Def2QZVP
 --------------------

 ---------
 butadiene
 ---------
 Symbolic Z-matrix:
 Charge =  0 Multiplicity = 1

                         Standard orientation:
 ---------------------------------------------------------------------
 Center     Atomic      Atomic             Coordinates (Angstroms)
 Number     Number       Type             X           Y           Z
 ---------------------------------------------------------------------
      1          6           0       -1.827508    0.118202    0.010804
      2          6           0       -0.600613   -0.414816   -0.019738
      3          6           0        0.593514    0.387323   -0.031144
      4          6           0        1.829383   -0.104846    0.012301
      5          1           0       -2.743242   -0.505452    0.036980
      6          1           0       -1.940878    1.214215    0.055895
      7          1           0       -0.511257   -1.488192    0.010867
      8          1           0        0.475294    1.476742   -0.033505
      9          1           0        2.061565   -1.158071    0.007516
     10          1           0        2.689864    0.545578    0.088905
 ---------------------------------------------------------------------

 SCF Done:  E(RB2PLYPD3) =  -155.699529018     A.U. after   11 cycles
 E2(B2PLYPD3) =    -0.2259327390D+00 E(B2PLYPD3) =    -0.15592546175662D+03

 The electronic state is 1-A.
 Alpha  occ. eigenvalues --  -10.62506 -10.62367 -10.61997 -10.61330  -0.93223
 Alpha  occ. eigenvalues --   -0.84817  -0.69937  -0.64075  -0.54556  -0.53912
 Alpha  occ. eigenvalues --   -0.46370  -0.45214  -0.41328  -0.38337  -0.27571
 Alpha virt. eigenvalues --    0.01718   0.06990   0.07386   0.07953   0.09637
 Alpha virt. eigenvalues --    0.11666   0.12415   0.14675   0.15873   0.16211
 Alpha virt. eigenvalues --    0.18746   0.20446   0.21588   0.22643   0.23873

 Mulliken charges:
               1
     1  C   -0.171902
     2  C   -0.032892
     3  C   -0.025955
     4  C   -0.175470
     5  H    0.084214
     6  H    0.062525
     7  H    0.058709
     8  H    0.053601
     9  H    0.066179
    10  H    0.080991
 Sum of Mulliken charges =   0.00000

 Dipole moment (field-independent basis, Debye):
    X=              0.0111    Y=             -0.0350    Z=              0.1157  Tot=              0.1214
 Quadrupole moment (field-independent basis, Debye-Ang):
   XX=            -23.5599   YY=            -23.0752   ZZ=            -29.2822
   XY=             -0.0697   XZ=              0.0425   YZ=              0.0478

 1\1\GINC-NODE29\SP\RB2PLYPD3-FC\def2QZVP\C4H6\BOITTIER\26-Aug-2020\0\\
 #p B2PLYPD3/Def2QZVP\\butadiene\\0,1\C,0,-3.82745,0.231952,0.03191\C,0
 ,-2.716689,-0.513917,0.017717\C,0,-1.397667,0.059481,-0.012145\C,0,-0.
 270522,-0.645917,0.046579\H,0,-4.840449,-0.215695,0.072455\H,0,-3.7414
 69,1.331256,0.048246\H,0,-2.82201,-1.584674,0.076413\H,0,-1.317772,1.1
 51944,-0.043083\H,0,-0.231819,-1.723499,0.069661\H,0,0.693226,-0.15932
 9,0.107971\\Version=ES64L-G09RevD.01\State=1-A\HF=-155.699529\MP2=-155
 .9254618\RMSD=3.948e-09\PG=C01 [X(C4H6)]\\@

 Normal termination of Gaussian 09 at Wed Aug 26 19:16:53 2020.
