 Gaussian 09, Revision D.01,
 Gaussian 09:  ES64L-G09RevD.01 24-Apr-2013

 --------------------
 #p B2PLYPD3/Def2QZVP
 --------------------

 ---------
 butadiene
 ---------
 Symbolic Z-matrix:
 Charge =  0 Multiplicity = 1

                         Standard orientation:
 ---------------------------------------------------------------------
 Center     Atomic      Atomic             Coordinates (Angstroms)
 Number     Number       Type             X           Y           Z
 ---------------------------------------------------------------------
      1          6           0        1.848484    0.109137    0.018108
      2          6           0        0.610513   -0.397200   -0.007702
      3          6           0       -0.611109    0.414702   -0.017539
      4          6           0       -1.836124   -0.115450    0.010151
      5          1           0        2.685319   -0.559999   -0.033624
      6          1           0        2.053276    1.164219    0.024526
      7          1           0        0.465412   -1.462270   -0.047013
      8          1           0       -0.494384    1.500309   -0.004064
      9          1           0       -1.993348   -1.194869    0.065459
     10          1           0       -2.786855    0.485478   -0.023392
 ---------------------------------------------------------------------

 SCF Done:  E(RB2PLYPD3) =  -155.699193977     A.U. after   11 cycles
 E2(B2PLYPD3) =    -0.2259047906D+00 E(B2PLYPD3) =    -0.15592509876763D+03

 The electronic state is 1-A.
 Alpha  occ. eigenvalues --  -10.62776 -10.62608 -10.62111 -10.61367  -0.92750
 Alpha  occ. eigenvalues --   -0.84801  -0.69839  -0.64155  -0.54386  -0.53759
 Alpha  occ. eigenvalues --   -0.46714  -0.45512  -0.40920  -0.37954  -0.27754
 Alpha virt. eigenvalues --    0.01783   0.06961   0.07413   0.08016   0.09456
 Alpha virt. eigenvalues --    0.11630   0.12403   0.14621   0.15828   0.16171
 Alpha virt. eigenvalues --    0.18842   0.20502   0.21610   0.22723   0.23712

 Mulliken charges:
               1
     1  C   -0.176901
     2  C   -0.034479
     3  C   -0.033654
     4  C   -0.168266
     5  H    0.084331
     6  H    0.070223
     7  H    0.058636
     8  H    0.057895
     9  H    0.061985
    10  H    0.080231
 Sum of Mulliken charges =   0.00000

 Dipole moment (field-independent basis, Debye):
    X=             -0.0107    Y=             -0.0099    Z=             -0.0328  Tot=              0.0359
 Quadrupole moment (field-independent basis, Debye-Ang):
   XX=            -23.4550   YY=            -23.0893   ZZ=            -29.3382
   XY=              0.2497   XZ=             -0.1417   YZ=              0.0203

 1\1\GINC-NODE37\SP\RB2PLYPD3-FC\def2QZVP\C4H6\BOITTIER\26-Aug-2020\0\\
 #p B2PLYPD3/Def2QZVP\\butadiene\\0,1\C,0,-3.850261,0.221168,0.002643\C
 ,0,-2.722668,-0.497426,0.04474\C,0,-1.375528,0.0828,0.030773\C,0,-0.26
 5193,-0.658504,0.02011\H,0,-4.793001,-0.285635,0.074089\H,0,-3.863127,
 1.295188,-0.036007\H,0,-2.77016,-1.569603,0.116528\H,0,-1.296323,1.170
 875,-0.015795\H,0,-0.303771,-1.749804,-0.002232\H,0,0.777813,-0.236587
 ,0.036056\\Version=ES64L-G09RevD.01\State=1-A\HF=-155.699194\MP2=-155.
 9250988\RMSD=5.313e-09\PG=C01 [X(C4H6)]\\@

 Normal termination of Gaussian 09 at Wed Aug 26 18:49:55 2020.
