 Gaussian 09, Revision D.01,
 Gaussian 09:  ES64L-G09RevD.01 24-Apr-2013

 --------------------
 #p B2PLYPD3/Def2QZVP
 --------------------

 ---------
 butadiene
 ---------
 Symbolic Z-matrix:
 Charge =  0 Multiplicity = 1

                         Standard orientation:
 ---------------------------------------------------------------------
 Center     Atomic      Atomic             Coordinates (Angstroms)
 Number     Number       Type             X           Y           Z
 ---------------------------------------------------------------------
      1          6           0        1.848039    0.115222   -0.020007
      2          6           0        0.611453   -0.412357    0.020885
      3          6           0       -0.620741    0.387425    0.058395
      4          6           0       -1.845974   -0.104950   -0.031288
      5          1           0        2.733261   -0.525130   -0.048961
      6          1           0        2.042160    1.188445   -0.022518
      7          1           0        0.455430   -1.485730    0.015349
      8          1           0       -0.482531    1.492783   -0.043014
      9          1           0       -2.095155   -1.163785   -0.021836
     10          1           0       -2.609830    0.581372   -0.046934
 ---------------------------------------------------------------------

 SCF Done:  E(RB2PLYPD3) =  -155.695994108     A.U. after   11 cycles
 E2(B2PLYPD3) =    -0.2257625254D+00 E(B2PLYPD3) =    -0.15592175663332D+03

 The electronic state is 1-A.
 Alpha  occ. eigenvalues --  -10.62824 -10.62694 -10.61929 -10.60828  -0.92685
 Alpha  occ. eigenvalues --   -0.85091  -0.70297  -0.63580  -0.54730  -0.53822
 Alpha  occ. eigenvalues --   -0.46845  -0.45752  -0.40678  -0.37918  -0.27842
 Alpha virt. eigenvalues --    0.01784   0.07030   0.07343   0.08091   0.09491
 Alpha virt. eigenvalues --    0.11595   0.12329   0.14857   0.15590   0.16197
 Alpha virt. eigenvalues --    0.18860   0.20045   0.21958   0.22839   0.23895

 Mulliken charges:
               1
     1  C   -0.172691
     2  C   -0.039941
     3  C   -0.024595
     4  C   -0.176971
     5  H    0.083636
     6  H    0.068219
     7  H    0.057288
     8  H    0.048954
     9  H    0.069579
    10  H    0.086522
 Sum of Mulliken charges =   0.00000

 Dipole moment (field-independent basis, Debye):
    X=             -0.0341    Y=             -0.0128    Z=             -0.0943  Tot=              0.1011
 Quadrupole moment (field-independent basis, Debye-Ang):
   XX=            -23.4802   YY=            -23.0224   ZZ=            -29.2902
   XY=              0.3532   XZ=              0.0440   YZ=             -0.1002

 1\1\GINC-NODE35\SP\RB2PLYPD3-FC\def2QZVP\C4H6\BOITTIER\26-Aug-2020\0\\
 #p B2PLYPD3/Def2QZVP\\butadiene\\0,1\C,0,-3.848991,0.23572,0.04238\C,0
 ,-2.728827,-0.508323,0.014284\C,0,-1.371974,0.053527,-0.037046\C,0,-0.
 256337,-0.651227,0.064681\H,0,-4.835709,-0.232552,0.082581\H,0,-3.8450
 21,1.326181,0.023029\H,0,-2.770274,-1.591854,0.041615\H,0,-1.307002,1.
 167413,0.041937\H,0,-0.203563,-1.737679,0.076903\H,0,0.619463,-0.11482
 9,0.067933\\Version=ES64L-G09RevD.01\State=1-A\HF=-155.6959941\MP2=-15
 5.9217566\RMSD=6.422e-09\PG=C01 [X(C4H6)]\\@

 Normal termination of Gaussian 09 at Wed Aug 26 08:37:49 2020.
