 Gaussian 09, Revision D.01,
 Gaussian 09:  ES64L-G09RevD.01 24-Apr-2013

 --------------------
 #p B2PLYPD3/Def2QZVP
 --------------------

 ---------
 butadiene
 ---------
 Symbolic Z-matrix:
 Charge =  0 Multiplicity = 1

                         Standard orientation:
 ---------------------------------------------------------------------
 Center     Atomic      Atomic             Coordinates (Angstroms)
 Number     Number       Type             X           Y           Z
 ---------------------------------------------------------------------
      1          6           0        1.847602   -0.122610    0.019883
      2          6           0        0.618244    0.413187   -0.029219
      3          6           0       -0.607886   -0.389300   -0.012103
      4          6           0       -1.850043    0.105213    0.002379
      5          1           0        2.743047    0.495187   -0.009750
      6          1           0        1.957316   -1.189282    0.076585
      7          1           0        0.508327    1.509912   -0.028435
      8          1           0       -0.473539   -1.464092   -0.047364
      9          1           0       -2.070452    1.146543    0.114649
     10          1           0       -2.712199   -0.537206    0.008674
 ---------------------------------------------------------------------

 SCF Done:  E(RB2PLYPD3) =  -155.700141174     A.U. after   11 cycles
 E2(B2PLYPD3) =    -0.2258531887D+00 E(B2PLYPD3) =    -0.15592599436281D+03

 The electronic state is 1-A.
 Alpha  occ. eigenvalues --  -10.62917 -10.62718 -10.61657 -10.61340  -0.92681
 Alpha  occ. eigenvalues --   -0.84892  -0.70170  -0.64025  -0.54574  -0.53912
 Alpha  occ. eigenvalues --   -0.46711  -0.45693  -0.41104  -0.37897  -0.27700
 Alpha virt. eigenvalues --    0.01647   0.06998   0.07457   0.08024   0.09489
 Alpha virt. eigenvalues --    0.11637   0.12465   0.14716   0.15856   0.16189
 Alpha virt. eigenvalues --    0.18835   0.20414   0.21753   0.22723   0.23743

 Mulliken charges:
               1
     1  C   -0.174974
     2  C   -0.032203
     3  C   -0.033683
     4  C   -0.173448
     5  H    0.088280
     6  H    0.066454
     7  H    0.054735
     8  H    0.055727
     9  H    0.067054
    10  H    0.082058
 Sum of Mulliken charges =   0.00000

 Dipole moment (field-independent basis, Debye):
    X=              0.0072    Y=              0.0042    Z=              0.0851  Tot=              0.0855
 Quadrupole moment (field-independent basis, Debye-Ang):
   XX=            -23.3574   YY=            -23.1324   ZZ=            -29.3048
   XY=             -0.1402   XZ=             -0.1359   YZ=              0.0633

 1\1\GINC-NODE10\SP\RB2PLYPD3-FC\def2QZVP\C4H6\BOITTIER\26-Aug-2020\0\\
 #p B2PLYPD3/Def2QZVP\\butadiene\\0,1\C,0,-3.847593,0.234048,0.036753\C
 ,0,-2.732761,-0.512407,0.009076\C,0,-1.383802,0.060263,0.003561\C,0,-0
 .248881,-0.645759,0.038115\H,0,-4.838412,-0.215958,0.0247\H,0,-3.76641
 7,1.304562,0.058009\H,0,-2.818901,-1.610626,0.046263\H,0,-1.325689,1.1
 40102,-0.067438\H,0,-0.21615,-1.705398,0.185245\H,0,0.713473,-0.166404
 ,0.02593\\Version=ES64L-G09RevD.01\State=1-A\HF=-155.7001412\MP2=-155.
 9259944\RMSD=4.052e-09\PG=C01 [X(C4H6)]\\@

 Normal termination of Gaussian 09 at Wed Aug 26 09:31:41 2020.
