 Gaussian 09, Revision D.01,
 Gaussian 09:  ES64L-G09RevD.01 24-Apr-2013

 --------------------
 #p B2PLYPD3/Def2QZVP
 --------------------

 ---------
 butadiene
 ---------
 Symbolic Z-matrix:
 Charge =  0 Multiplicity = 1

                         Standard orientation:
 ---------------------------------------------------------------------
 Center     Atomic      Atomic             Coordinates (Angstroms)
 Number     Number       Type             X           Y           Z
 ---------------------------------------------------------------------
      1          6           0        1.833447    0.112763    0.023200
      2          6           0        0.601331   -0.413193   -0.018884
      3          6           0       -0.602026    0.396001   -0.026063
      4          6           0       -1.840037   -0.111436    0.007180
      5          1           0        2.710479   -0.496827   -0.000356
      6          1           0        1.985407    1.194122   -0.015781
      7          1           0        0.470831   -1.496216    0.020820
      8          1           0       -0.463730    1.467938    0.016363
      9          1           0       -2.025225   -1.149760    0.004751
     10          1           0       -2.634052    0.575936    0.061599
 ---------------------------------------------------------------------

 SCF Done:  E(RB2PLYPD3) =  -155.699600824     A.U. after   11 cycles
 E2(B2PLYPD3) =    -0.2256174494D+00 E(B2PLYPD3) =    -0.15592521827312D+03

 The electronic state is 1-A.
 Alpha  occ. eigenvalues --  -10.62578 -10.62356 -10.61509 -10.60855  -0.93007
 Alpha  occ. eigenvalues --   -0.84969  -0.70416  -0.64164  -0.54648  -0.54301
 Alpha  occ. eigenvalues --   -0.46389  -0.46136  -0.41433  -0.38063  -0.27537
 Alpha virt. eigenvalues --    0.01683   0.07058   0.07418   0.08133   0.09527
 Alpha virt. eigenvalues --    0.11759   0.12427   0.14866   0.15876   0.16082
 Alpha virt. eigenvalues --    0.18739   0.20375   0.21698   0.23063   0.24081

 Mulliken charges:
               1
     1  C   -0.174900
     2  C   -0.032890
     3  C   -0.025692
     4  C   -0.184031
     5  H    0.085880
     6  H    0.063088
     7  H    0.054317
     8  H    0.054151
     9  H    0.073261
    10  H    0.086817
 Sum of Mulliken charges =   0.00000

 Dipole moment (field-independent basis, Debye):
    X=              0.0089    Y=             -0.0076    Z=              0.0457  Tot=              0.0471
 Quadrupole moment (field-independent basis, Debye-Ang):
   XX=            -23.6605   YY=            -22.9395   ZZ=            -29.2403
   XY=              0.1738   XZ=             -0.2384   YZ=              0.0172

 1\1\GINC-NODE30\SP\RB2PLYPD3-FC\def2QZVP\C4H6\BOITTIER\26-Aug-2020\0\\
 #p B2PLYPD3/Def2QZVP\\butadiene\\0,1\C,0,-3.835086,0.230398,-0.003631\
 C,0,-2.718983,-0.509518,0.054246\C,0,-1.38849,0.067032,0.037125\C,0,-0
 .263634,-0.65798,0.019152\H,0,-4.808228,-0.208446,0.038219\H,0,-3.7876
 ,1.322026,0.002847\H,0,-2.787877,-1.598898,0.047096\H,0,-1.329727,1.14
 4509,-0.037485\H,0,-0.270392,-1.712134,0.052774\H,0,0.641857,-0.128492
 ,-0.055883\\Version=ES64L-G09RevD.01\State=1-A\HF=-155.6996008\MP2=-15
 5.9252183\RMSD=4.507e-09\PG=C01 [X(C4H6)]\\@

 Normal termination of Gaussian 09 at Wed Aug 26 19:06:14 2020.
