 Gaussian 09, Revision D.01,
 Gaussian 09:  ES64L-G09RevD.01 24-Apr-2013

 --------------------
 #p B2PLYPD3/Def2QZVP
 --------------------

 ---------
 butadiene
 ---------
 Symbolic Z-matrix:
 Charge =  0 Multiplicity = 1

                         Standard orientation:
 ---------------------------------------------------------------------
 Center     Atomic      Atomic             Coordinates (Angstroms)
 Number     Number       Type             X           Y           Z
 ---------------------------------------------------------------------
      1          6           0       -1.830484   -0.084451    0.060503
      2          6           0       -0.576306    0.368099   -0.112100
      3          6           0        0.623931   -0.444445   -0.095181
      4          6           0        1.814685    0.123777    0.085352
      5          1           0       -2.642635    0.518256    0.137570
      6          1           0       -1.970620   -1.160420    0.146295
      7          1           0       -0.481525    1.503750    0.042718
      8          1           0        0.356740   -1.452340   -0.087654
      9          1           0        1.760530    1.246227   -0.045166
     10          1           0        2.786553   -0.433356    0.174792
 ---------------------------------------------------------------------

 SCF Done:  E(RB2PLYPD3) =  -155.680091022     A.U. after   11 cycles
 E2(B2PLYPD3) =    -0.2270865305D+00 E(B2PLYPD3) =    -0.15590717755209D+03

 The electronic state is 1-A.
 Alpha  occ. eigenvalues --  -10.62938 -10.62753 -10.62341 -10.60880  -0.93388
 Alpha  occ. eigenvalues --   -0.84871  -0.70248  -0.63908  -0.55061  -0.53279
 Alpha  occ. eigenvalues --   -0.47535  -0.44248  -0.40948  -0.38184  -0.27624
 Alpha virt. eigenvalues --    0.01554   0.07025   0.07327   0.08075   0.09113
 Alpha virt. eigenvalues --    0.11731   0.12696   0.14264   0.15430   0.16165
 Alpha virt. eigenvalues --    0.18756   0.19184   0.21986   0.22546   0.24904

 Mulliken charges:
               1
     1  C   -0.185670
     2  C   -0.009252
     3  C   -0.039929
     4  C   -0.159215
     5  H    0.094700
     6  H    0.050747
     7  H    0.035627
     8  H    0.058302
     9  H    0.065509
    10  H    0.089180
 Sum of Mulliken charges =   0.00000

 Dipole moment (field-independent basis, Debye):
    X=              0.0116    Y=             -0.0945    Z=              0.2082  Tot=              0.2289
 Quadrupole moment (field-independent basis, Debye-Ang):
   XX=            -23.5620   YY=            -23.4568   ZZ=            -29.2411
   XY=             -0.2099   XZ=             -0.3222   YZ=             -0.0488

 1\1\GINC-NODE05\SP\RB2PLYPD3-FC\def2QZVP\C4H6\BOITTIER\26-Aug-2020\0\\
 #p B2PLYPD3/Def2QZVP\\butadiene\\0,1\C,0,-3.841931,0.194239,-0.053117\
 C,0,-2.690434,-0.473775,0.134948\C,0,-1.363028,0.107846,0.106773\C,0,-
 0.294498,-0.670023,-0.056098\H,0,-4.749614,-0.253228,-0.121439\H,0,-3.
 785094,1.275719,-0.162101\H,0,-2.802446,-1.610907,0.004411\H,0,-1.4435
 36,1.14704,0.076851\H,0,-0.55087,-1.761123,0.097643\H,0,0.762182,-0.29
 9817,-0.152523\\Version=ES64L-G09RevD.01\State=1-A\HF=-155.680091\MP2=
 -155.9071776\RMSD=7.224e-09\PG=C01 [X(C4H6)]\\@

 Normal termination of Gaussian 09 at Wed Aug 26 12:47:42 2020.
