 Gaussian 09, Revision D.01,
 Gaussian 09:  ES64L-G09RevD.01 24-Apr-2013

 --------------------
 #p B2PLYPD3/Def2QZVP
 --------------------

 ---------
 butadiene
 ---------
 Symbolic Z-matrix:
 Charge =  0 Multiplicity = 1

                         Standard orientation:
 ---------------------------------------------------------------------
 Center     Atomic      Atomic             Coordinates (Angstroms)
 Number     Number       Type             X           Y           Z
 ---------------------------------------------------------------------
      1          6           0       -1.833991    0.099383    0.003493
      2          6           0       -0.601880   -0.393778   -0.020717
      3          6           0        0.594943    0.418559   -0.010828
      4          6           0        1.837888   -0.112237   -0.002388
      5          1           0       -2.692759   -0.546405    0.081957
      6          1           0       -2.024478    1.172476   -0.017366
      7          1           0       -0.445990   -1.485473   -0.012167
      8          1           0        0.445996    1.494196    0.047006
      9          1           0        1.968729   -1.181484    0.053208
     10          1           0        2.766743    0.475127    0.029998
 ---------------------------------------------------------------------

 SCF Done:  E(RB2PLYPD3) =  -155.699499578     A.U. after   11 cycles
 E2(B2PLYPD3) =    -0.2261543592D+00 E(B2PLYPD3) =    -0.15592565393707D+03

 The electronic state is 1-A.
 Alpha  occ. eigenvalues --  -10.62827 -10.62545 -10.61953 -10.61433  -0.93036
 Alpha  occ. eigenvalues --   -0.84673  -0.70156  -0.63978  -0.54626  -0.53667
 Alpha  occ. eigenvalues --   -0.46702  -0.45396  -0.41167  -0.38165  -0.27539
 Alpha virt. eigenvalues --    0.01586   0.07016   0.07323   0.08051   0.09507
 Alpha virt. eigenvalues --    0.11655   0.12506   0.14634   0.15828   0.16201
 Alpha virt. eigenvalues --    0.18760   0.20435   0.21780   0.22855   0.23639

 Mulliken charges:
               1
     1  C   -0.176967
     2  C   -0.021880
     3  C   -0.033969
     4  C   -0.173436
     5  H    0.086175
     6  H    0.064788
     7  H    0.051052
     8  H    0.056625
     9  H    0.063540
    10  H    0.084072
 Sum of Mulliken charges =   0.00000

 Dipole moment (field-independent basis, Debye):
    X=             -0.0052    Y=             -0.0021    Z=              0.1460  Tot=              0.1461
 Quadrupole moment (field-independent basis, Debye-Ang):
   XX=            -23.4267   YY=            -23.1728   ZZ=            -29.3204
   XY=             -0.2299   XZ=              0.0125   YZ=             -0.0585

 1\1\GINC-NODE34\SP\RB2PLYPD3-FC\def2QZVP\C4H6\BOITTIER\26-Aug-2020\0\\
 #p B2PLYPD3/Def2QZVP\\butadiene\\0,1\C,0,-3.836865,0.217089,0.024796\C
 ,0,-2.715783,-0.493566,0.018956\C,0,-1.390587,0.086132,0.005534\C,0,-0
 .265612,-0.662451,0.033549\H,0,-4.798928,-0.257965,0.121947\H,0,-3.828
 028,1.305711,-0.030646\H,0,-2.76208,-1.594531,0.062613\H,0,-1.340152,1
 .172153,0.028753\H,0,-0.332258,-1.735285,0.123459\H,0,0.755086,-0.2541
 06,0.049203\\Version=ES64L-G09RevD.01\State=1-A\HF=-155.6994996\MP2=-1
 55.9256539\RMSD=5.398e-09\PG=C01 [X(C4H6)]\\@

 Normal termination of Gaussian 09 at Wed Aug 26 11:39:50 2020.
