 Gaussian 09, Revision D.01,
 Gaussian 09:  ES64L-G09RevD.01 24-Apr-2013

 --------------------
 #p B2PLYPD3/Def2QZVP
 --------------------

 ---------
 butadiene
 ---------
 Symbolic Z-matrix:
 Charge =  0 Multiplicity = 1

                         Standard orientation:
 ---------------------------------------------------------------------
 Center     Atomic      Atomic             Coordinates (Angstroms)
 Number     Number       Type             X           Y           Z
 ---------------------------------------------------------------------
      1          6           0       -1.842416   -0.151328    0.052225
      2          6           0       -0.622301    0.465951   -0.067944
      3          6           0        0.625640   -0.352456   -0.058393
      4          6           0        1.881309    0.080976    0.019071
      5          1           0       -2.764422    0.397933    0.323785
      6          1           0       -1.967805   -1.290242   -0.136730
      7          1           0       -0.581220    1.587171   -0.178415
      8          1           0        0.453544   -1.499621   -0.042134
      9          1           0        1.956140    1.162651    0.136950
     10          1           0        2.650369   -0.616755    0.226794
 ---------------------------------------------------------------------

 SCF Done:  E(RB2PLYPD3) =  -155.677095940     A.U. after   12 cycles
 E2(B2PLYPD3) =    -0.2284388430D+00 E(B2PLYPD3) =    -0.15590553478284D+03

 The electronic state is 1-A.
 Alpha  occ. eigenvalues --  -10.64360 -10.63573 -10.63529 -10.61140  -0.92021
 Alpha  occ. eigenvalues --   -0.84570  -0.69149  -0.62507  -0.54471  -0.52874
 Alpha  occ. eigenvalues --   -0.46551  -0.44469  -0.41084  -0.37032  -0.27507
 Alpha virt. eigenvalues --    0.01218   0.06804   0.07122   0.07826   0.08810
 Alpha virt. eigenvalues --    0.11493   0.12372   0.13957   0.15580   0.16199
 Alpha virt. eigenvalues --    0.18745   0.19937   0.21010   0.22354   0.23952

 Mulliken charges:
               1
     1  C   -0.172189
     2  C   -0.057437
     3  C   -0.006985
     4  C   -0.176297
     5  H    0.086441
     6  H    0.068956
     7  H    0.063721
     8  H    0.037013
     9  H    0.063137
    10  H    0.093639
 Sum of Mulliken charges =   0.00000

 Dipole moment (field-independent basis, Debye):
    X=             -0.2053    Y=              0.0180    Z=              0.2324  Tot=              0.3106
 Quadrupole moment (field-independent basis, Debye-Ang):
   XX=            -24.0494   YY=            -23.1591   ZZ=            -29.4526
   XY=             -0.2055   XZ=              0.3277   YZ=              0.1289

 1\1\GINC-NODE10\SP\RB2PLYPD3-FC\def2QZVP\C4H6\BOITTIER\26-Aug-2020\0\\
 #p B2PLYPD3/Def2QZVP\\butadiene\\0,1\C,0,-3.844777,0.254448,-0.036741\
 C,0,-2.748558,-0.559669,0.103516\C,0,-1.378284,0.030263,0.063957\C,0,-
 0.216755,-0.615772,0.000239\H,0,-4.849607,-0.136405,-0.287895\H,0,-3.7
 70533,1.403699,0.112464\H,0,-2.900651,-1.66671,0.253032\H,0,-1.350091,
 1.188678,0.007839\H,0,-0.330419,-1.697519,-0.079875\H,0,0.659597,-0.06
 8762,-0.232607\\Version=ES64L-G09RevD.01\State=1-A\HF=-155.6770959\MP2
 =-155.9055348\RMSD=2.987e-09\PG=C01 [X(C4H6)]\\@

 Normal termination of Gaussian 09 at Wed Aug 26 15:17:15 2020.
