 Gaussian 09, Revision D.01,
 Gaussian 09:  ES64L-G09RevD.01 24-Apr-2013

 --------------------
 #p B2PLYPD3/Def2QZVP
 --------------------

 ---------
 butadiene
 ---------
 Symbolic Z-matrix:
 Charge =  0 Multiplicity = 1

                         Standard orientation:
 ---------------------------------------------------------------------
 Center     Atomic      Atomic             Coordinates (Angstroms)
 Number     Number       Type             X           Y           Z
 ---------------------------------------------------------------------
      1          6           0        1.848666    0.103209   -0.013773
      2          6           0        0.611535   -0.387988    0.008755
      3          6           0       -0.612853    0.414102    0.015011
      4          6           0       -1.836698   -0.120127   -0.004891
      5          1           0        2.715985   -0.541861   -0.017547
      6          1           0        2.018494    1.161946   -0.040252
      7          1           0        0.475403   -1.452337    0.097936
      8          1           0       -0.545138    1.513580    0.037844
      9          1           0       -1.989252   -1.197110   -0.096714
     10          1           0       -2.739389    0.460610   -0.011876
 ---------------------------------------------------------------------

 SCF Done:  E(RB2PLYPD3) =  -155.700480357     A.U. after   11 cycles
 E2(B2PLYPD3) =    -0.2255688764D+00 E(B2PLYPD3) =    -0.15592604923332D+03

 The electronic state is 1-A.
 Alpha  occ. eigenvalues --  -10.62852 -10.62501 -10.61526 -10.61326  -0.92825
 Alpha  occ. eigenvalues --   -0.85038  -0.70069  -0.64030  -0.54668  -0.54021
 Alpha  occ. eigenvalues --   -0.46804  -0.45378  -0.41113  -0.37996  -0.27811
 Alpha virt. eigenvalues --    0.01818   0.07034   0.07459   0.08012   0.09537
 Alpha virt. eigenvalues --    0.11623   0.12503   0.14600   0.15784   0.16344
 Alpha virt. eigenvalues --    0.18867   0.20413   0.21668   0.22801   0.23700

 Mulliken charges:
               1
     1  C   -0.175712
     2  C   -0.032070
     3  C   -0.034183
     4  C   -0.170161
     5  H    0.086491
     6  H    0.067542
     7  H    0.059138
     8  H    0.053976
     9  H    0.060519
    10  H    0.084461
 Sum of Mulliken charges =   0.00000

 Dipole moment (field-independent basis, Debye):
    X=             -0.0316    Y=              0.0027    Z=             -0.0169  Tot=              0.0359
 Quadrupole moment (field-independent basis, Debye-Ang):
   XX=            -23.2965   YY=            -23.1613   ZZ=            -29.2549
   XY=              0.0584   XZ=              0.1311   YZ=             -0.0035

 1\1\GINC-NODE37\SP\RB2PLYPD3-FC\def2QZVP\C4H6\BOITTIER\26-Aug-2020\0\\
 #p B2PLYPD3/Def2QZVP\\butadiene\\0,1\C,0,-3.852462,0.212519,0.030529\C
 ,0,-2.721602,-0.489911,0.025951\C,0,-1.37481,0.082772,-0.000538\C,0,-0
 .264523,-0.658395,0.038527\H,0,-4.820071,-0.268822,0.050903\H,0,-3.832
 55,1.28492,0.025299\H,0,-2.775825,-1.563732,-0.031423\H,0,-1.247316,1.
 175764,-0.055974\H,0,-0.304369,-1.742203,0.162496\H,0,0.726565,-0.2462
 77,0.030903\\Version=ES64L-G09RevD.01\State=1-A\HF=-155.7004804\MP2=-1
 55.9260492\RMSD=2.168e-09\PG=C01 [X(C4H6)]\\@

 Normal termination of Gaussian 09 at Wed Aug 26 11:30:18 2020.
