 Gaussian 09, Revision D.01,
 Gaussian 09:  ES64L-G09RevD.01 24-Apr-2013

 --------------------
 #p B2PLYPD3/Def2QZVP
 --------------------

 ---------
 butadiene
 ---------
 Symbolic Z-matrix:
 Charge =  0 Multiplicity = 1

                         Standard orientation:
 ---------------------------------------------------------------------
 Center     Atomic      Atomic             Coordinates (Angstroms)
 Number     Number       Type             X           Y           Z
 ---------------------------------------------------------------------
      1          6           0       -1.799636   -0.151371    0.056012
      2          6           0       -0.597639    0.438354   -0.109199
      3          6           0        0.593580   -0.342524   -0.050087
      4          6           0        1.826250    0.073325    0.010288
      5          1           0       -2.757702    0.463261    0.204153
      6          1           0       -1.910720   -1.220578    0.004014
      7          1           0       -0.466290    1.501461    0.058351
      8          1           0        0.420563   -1.351777   -0.080617
      9          1           0        1.950704    1.105235    0.098951
     10          1           0        2.628115   -0.604307    0.273062
 ---------------------------------------------------------------------

 SCF Done:  E(RB2PLYPD3) =  -155.685167403     A.U. after   11 cycles
 E2(B2PLYPD3) =    -0.2257926689D+00 E(B2PLYPD3) =    -0.15591096007220D+03

 The electronic state is 1-A.
 Alpha  occ. eigenvalues --  -10.62757 -10.62522 -10.60832 -10.60149  -0.94072
 Alpha  occ. eigenvalues --   -0.85205  -0.70185  -0.65058  -0.54851  -0.53837
 Alpha  occ. eigenvalues --   -0.47005  -0.45316  -0.41144  -0.38712  -0.27723
 Alpha virt. eigenvalues --    0.01538   0.06972   0.07560   0.08062   0.09541
 Alpha virt. eigenvalues --    0.11825   0.12584   0.14842   0.15283   0.16416
 Alpha virt. eigenvalues --    0.18461   0.19293   0.21926   0.23059   0.24589

 Mulliken charges:
               1
     1  C   -0.172434
     2  C   -0.040287
     3  C   -0.004887
     4  C   -0.175891
     5  H    0.076810
     6  H    0.072544
     7  H    0.058029
     8  H    0.050615
     9  H    0.055022
    10  H    0.080478
 Sum of Mulliken charges =   0.00000

 Dipole moment (field-independent basis, Debye):
    X=             -0.2006    Y=             -0.0768    Z=              0.4015  Tot=              0.4554
 Quadrupole moment (field-independent basis, Debye-Ang):
   XX=            -23.9987   YY=            -23.2118   ZZ=            -28.9200
   XY=              0.0983   XZ=              0.2918   YZ=              0.2071

 1\1\GINC-NODE04\SP\RB2PLYPD3-FC\def2QZVP\C4H6\BOITTIER\26-Aug-2020\0\\
 #p B2PLYPD3/Def2QZVP\\butadiene\\0,1\C,0,-3.796619,0.260229,-0.044271\
 C,0,-2.72065,-0.533638,0.134424\C,0,-1.407899,0.016533,0.055278\C,0,-0
 .271409,-0.617366,0.00417\H,0,-4.851016,-0.173767,-0.176569\H,0,-3.711
 697,1.332781,-0.018411\H,0,-2.785138,-1.606638,-0.007119\H,0,-1.394867
 ,1.040864,0.061194\H,0,-0.336609,-1.656554,-0.059269\H,0,0.638667,-0.1
 02943,-0.275748\\Version=ES64L-G09RevD.01\State=1-A\HF=-155.6851674\MP
 2=-155.9109601\RMSD=7.574e-09\PG=C01 [X(C4H6)]\\@

 Normal termination of Gaussian 09 at Wed Aug 26 13:41:11 2020.
