 Gaussian 09, Revision D.01,
 Gaussian 09:  ES64L-G09RevD.01 24-Apr-2013

 --------------------
 #p B2PLYPD3/Def2QZVP
 --------------------

 ---------
 butadiene
 ---------
 Symbolic Z-matrix:
 Charge =  0 Multiplicity = 1

                         Standard orientation:
 ---------------------------------------------------------------------
 Center     Atomic      Atomic             Coordinates (Angstroms)
 Number     Number       Type             X           Y           Z
 ---------------------------------------------------------------------
      1          6           0        1.840140   -0.118242   -0.006167
      2          6           0        0.621407    0.400876   -0.020786
      3          6           0       -0.609598   -0.385440   -0.000104
      4          6           0       -1.855062    0.104892   -0.000085
      5          1           0        2.715285    0.523900    0.040865
      6          1           0        1.981043   -1.209104    0.043225
      7          1           0        0.510366    1.490538    0.045054
      8          1           0       -0.448700   -1.450360    0.001940
      9          1           0       -1.997433    1.160682    0.017010
     10          1           0       -2.741885   -0.528174    0.014762
 ---------------------------------------------------------------------

 SCF Done:  E(RB2PLYPD3) =  -155.700047666     A.U. after   11 cycles
 E2(B2PLYPD3) =    -0.2256497029D+00 E(B2PLYPD3) =    -0.15592569736885D+03

 The electronic state is 1-A.
 Alpha  occ. eigenvalues --  -10.62572 -10.62514 -10.61698 -10.61520  -0.92932
 Alpha  occ. eigenvalues --   -0.85066  -0.70066  -0.63922  -0.54531  -0.53897
 Alpha  occ. eigenvalues --   -0.46928  -0.45570  -0.40864  -0.38077  -0.27879
 Alpha virt. eigenvalues --    0.01766   0.06984   0.07418   0.08032   0.09681
 Alpha virt. eigenvalues --    0.11683   0.12427   0.14628   0.15753   0.16142
 Alpha virt. eigenvalues --    0.18821   0.20436   0.21549   0.22845   0.23806

 Mulliken charges:
               1
     1  C   -0.173679
     2  C   -0.026722
     3  C   -0.030519
     4  C   -0.177087
     5  H    0.087428
     6  H    0.063728
     7  H    0.049757
     8  H    0.052050
     9  H    0.066293
    10  H    0.088752
 Sum of Mulliken charges =   0.00000

 Dipole moment (field-independent basis, Debye):
    X=              0.0246    Y=              0.0125    Z=              0.1364  Tot=              0.1391
 Quadrupole moment (field-independent basis, Debye-Ang):
   XX=            -23.3999   YY=            -23.1947   ZZ=            -29.2730
   XY=             -0.0331   XZ=              0.1746   YZ=              0.0479

 1\1\GINC-NODE23\SP\RB2PLYPD3-FC\def2QZVP\C4H6\BOITTIER\26-Aug-2020\0\\
 #p B2PLYPD3/Def2QZVP\\butadiene\\0,1\C,0,-3.842567,0.226662,0.017005\C
 ,0,-2.734819,-0.499899,0.020208\C,0,-1.384162,0.056694,0.015381\C,0,-0
 .244939,-0.645797,0.032272\H,0,-4.81713,-0.248789,0.084896\H,0,-3.7882
 54,1.326277,0.030105\H,0,-2.81769,-1.589281,0.122222\H,0,-1.354368,1.1
 32772,-0.01799\H,0,-0.291252,-1.708993,0.084459\H,0,0.739849,-0.179311
 ,0.026532\\Version=ES64L-G09RevD.01\State=1-A\HF=-155.7000477\MP2=-155
 .9256974\RMSD=4.662e-09\PG=C01 [X(C4H6)]\\@

 Normal termination of Gaussian 09 at Wed Aug 26 22:03:18 2020.
