 Gaussian 09, Revision D.01,
 Gaussian 09:  ES64L-G09RevD.01 24-Apr-2013

 --------------------
 #p B2PLYPD3/Def2QZVP
 --------------------

 ---------
 butadiene
 ---------
 Symbolic Z-matrix:
 Charge =  0 Multiplicity = 1

                         Standard orientation:
 ---------------------------------------------------------------------
 Center     Atomic      Atomic             Coordinates (Angstroms)
 Number     Number       Type             X           Y           Z
 ---------------------------------------------------------------------
      1          6           0        1.832686    0.107869   -0.007695
      2          6           0        0.609975   -0.398100    0.014349
      3          6           0       -0.600817    0.408081   -0.006884
      4          6           0       -1.828821   -0.123752   -0.019329
      5          1           0        2.686778   -0.542791    0.014084
      6          1           0        1.980730    1.180384   -0.060430
      7          1           0        0.455043   -1.438736    0.044634
      8          1           0       -0.518431    1.499461    0.088695
      9          1           0       -1.980760   -1.185505   -0.021124
     10          1           0       -2.701498    0.522599    0.051497
 ---------------------------------------------------------------------

 SCF Done:  E(RB2PLYPD3) =  -155.700100952     A.U. after   11 cycles
 E2(B2PLYPD3) =    -0.2253524681D+00 E(B2PLYPD3) =    -0.15592545342030D+03

 The electronic state is 1-A.
 Alpha  occ. eigenvalues --  -10.62545 -10.61942 -10.61411 -10.61203  -0.93144
 Alpha  occ. eigenvalues --   -0.85070  -0.69982  -0.64325  -0.54590  -0.54138
 Alpha  occ. eigenvalues --   -0.46521  -0.45845  -0.41302  -0.38114  -0.27743
 Alpha virt. eigenvalues --    0.01927   0.07042   0.07453   0.08058   0.09573
 Alpha virt. eigenvalues --    0.11772   0.12392   0.14765   0.15770   0.16148
 Alpha virt. eigenvalues --    0.18723   0.20372   0.21543   0.22984   0.24128

 Mulliken charges:
               1
     1  C   -0.174817
     2  C   -0.034733
     3  C   -0.026555
     4  C   -0.180734
     5  H    0.086297
     6  H    0.068408
     7  H    0.058855
     8  H    0.053513
     9  H    0.066491
    10  H    0.083275
 Sum of Mulliken charges =   0.00000

 Dipole moment (field-independent basis, Debye):
    X=              0.0000    Y=             -0.0311    Z=              0.1101  Tot=              0.1144
 Quadrupole moment (field-independent basis, Debye-Ang):
   XX=            -23.7041   YY=            -22.9729   ZZ=            -29.1998
   XY=              0.0601   XZ=             -0.2434   YZ=              0.0423

 1\1\GINC-NODE02\SP\RB2PLYPD3-FC\def2QZVP\C4H6\BOITTIER\26-Aug-2020\0\\
 #p B2PLYPD3/Def2QZVP\\butadiene\\0,1\C,0,-3.834399,0.219272,0.026476\C
 ,0,-2.721842,-0.497457,0.021035\C,0,-1.38645,0.079684,0.015366\C,0,-0.
 273094,-0.662301,0.045251\H,0,-4.791064,-0.268682,0.026394\H,0,-3.7882
 31,1.30212,0.043662\H,0,-2.755404,-1.549455,0.025229\H,0,-1.273211,1.1
 6452,-0.116315\H,0,-0.313177,-1.733485,0.082208\H,0,0.700526,-0.184922
 ,-0.047081\\Version=ES64L-G09RevD.01\State=1-A\HF=-155.700101\MP2=-155
 .9254534\RMSD=4.368e-09\PG=C01 [X(C4H6)]\\@

 Normal termination of Gaussian 09 at Wed Aug 26 18:42:01 2020.
