 Gaussian 09, Revision D.01,
 Gaussian 09:  ES64L-G09RevD.01 24-Apr-2013

 --------------------
 #p B2PLYPD3/Def2QZVP
 --------------------

 ---------
 butadiene
 ---------
 Symbolic Z-matrix:
 Charge =  0 Multiplicity = 1

                         Standard orientation:
 ---------------------------------------------------------------------
 Center     Atomic      Atomic             Coordinates (Angstroms)
 Number     Number       Type             X           Y           Z
 ---------------------------------------------------------------------
      1          6           0       -1.857583    0.089171   -0.003928
      2          6           0       -0.601159   -0.374837   -0.041470
      3          6           0        0.604569    0.439229   -0.010954
      4          6           0        1.841621   -0.128768    0.005978
      5          1           0       -2.704322   -0.564111    0.092241
      6          1           0       -2.031926    1.132992    0.045582
      7          1           0       -0.469253   -1.470813    0.090222
      8          1           0        0.469088    1.499314    0.022578
      9          1           0        2.006043   -1.185569   -0.011616
     10          1           0        2.805676    0.439413    0.063240
 ---------------------------------------------------------------------

 SCF Done:  E(RB2PLYPD3) =  -155.695327135     A.U. after   11 cycles
 E2(B2PLYPD3) =    -0.2265812117D+00 E(B2PLYPD3) =    -0.15592190834699D+03

 The electronic state is 1-A.
 Alpha  occ. eigenvalues --  -10.63149 -10.62808 -10.62397 -10.61194  -0.92707
 Alpha  occ. eigenvalues --   -0.84517  -0.70354  -0.64254  -0.54593  -0.53715
 Alpha  occ. eigenvalues --   -0.47113  -0.45015  -0.41304  -0.37829  -0.27439
 Alpha virt. eigenvalues --    0.01311   0.06990   0.07445   0.07992   0.09307
 Alpha virt. eigenvalues --    0.11582   0.12577   0.14595   0.15699   0.16377
 Alpha virt. eigenvalues --    0.18869   0.20269   0.21919   0.22794   0.23716

 Mulliken charges:
               1
     1  C   -0.180590
     2  C   -0.016825
     3  C   -0.047997
     4  C   -0.165827
     5  H    0.087149
     6  H    0.062784
     7  H    0.051767
     8  H    0.063610
     9  H    0.068926
    10  H    0.077003
 Sum of Mulliken charges =   0.00000

 Dipole moment (field-independent basis, Debye):
    X=              0.0533    Y=              0.0012    Z=              0.2391  Tot=              0.2450
 Quadrupole moment (field-independent basis, Debye-Ang):
   XX=            -23.2916   YY=            -23.2210   ZZ=            -29.3673
   XY=             -0.3048   XZ=             -0.2742   YZ=             -0.0594

 1\1\GINC-NODE02\SP\RB2PLYPD3-FC\def2QZVP\C4H6\BOITTIER\26-Aug-2020\0\\
 #p B2PLYPD3/Def2QZVP\\butadiene\\0,1\C,0,-3.862428,0.205361,0.023953\C
 ,0,-2.710526,-0.478748,0.003196\C,0,-1.377612,0.104993,0.004002\C,0,-0
 .263151,-0.67589,0.041465\H,0,-4.812415,-0.280578,0.143874\H,0,-3.8453
 91,1.264599,0.035506\H,0,-2.777505,-1.57512,0.174625\H,0,-1.319524,1.1
 72635,-0.001007\H,0,-0.292075,-1.744956,0.06228\H,0,0.787903,-0.289283
 ,0.077957\\Version=ES64L-G09RevD.01\State=1-A\HF=-155.6953271\MP2=-155
 .9219083\RMSD=6.270e-09\PG=C01 [X(C4H6)]\\@

 Normal termination of Gaussian 09 at Wed Aug 26 09:26:00 2020.
