 Gaussian 09, Revision D.01,
 Gaussian 09:  ES64L-G09RevD.01 24-Apr-2013

 --------------------
 #p B2PLYPD3/Def2QZVP
 --------------------

 ---------
 butadiene
 ---------
 Symbolic Z-matrix:
 Charge =  0 Multiplicity = 1

                         Standard orientation:
 ---------------------------------------------------------------------
 Center     Atomic      Atomic             Coordinates (Angstroms)
 Number     Number       Type             X           Y           Z
 ---------------------------------------------------------------------
      1          6           0        1.829498    0.076965   -0.035309
      2          6           0        0.585226   -0.372654    0.029958
      3          6           0       -0.599501    0.417427    0.029807
      4          6           0       -1.815379   -0.126774   -0.036715
      5          1           0        2.712176   -0.512379   -0.000989
      6          1           0        2.039646    1.139454   -0.041628
      7          1           0        0.384699   -1.415029    0.034485
      8          1           0       -0.530727    1.538929    0.113604
      9          1           0       -1.915190   -1.197738    0.049663
     10          1           0       -2.689668    0.476973   -0.081585
 ---------------------------------------------------------------------

 SCF Done:  E(RB2PLYPD3) =  -155.696672530     A.U. after   11 cycles
 E2(B2PLYPD3) =    -0.2255141138D+00 E(B2PLYPD3) =    -0.15592218664355D+03

 The electronic state is 1-A.
 Alpha  occ. eigenvalues --  -10.62594 -10.61939 -10.61268 -10.61100  -0.93646
 Alpha  occ. eigenvalues --   -0.85100  -0.70741  -0.63995  -0.55417  -0.53874
 Alpha  occ. eigenvalues --   -0.47044  -0.45294  -0.41282  -0.38408  -0.27591
 Alpha virt. eigenvalues --    0.01639   0.07083   0.07373   0.08069   0.09809
 Alpha virt. eigenvalues --    0.11693   0.12640   0.14752   0.15730   0.16460
 Alpha virt. eigenvalues --    0.18757   0.20143   0.21992   0.23005   0.23735

 Mulliken charges:
               1
     1  C   -0.170375
     2  C   -0.028532
     3  C   -0.019117
     4  C   -0.180094
     5  H    0.085065
     6  H    0.058321
     7  H    0.054027
     8  H    0.048469
     9  H    0.064194
    10  H    0.088042
 Sum of Mulliken charges =   0.00000

 Dipole moment (field-independent basis, Debye):
    X=             -0.0385    Y=              0.0030    Z=              0.1126  Tot=              0.1191
 Quadrupole moment (field-independent basis, Debye-Ang):
   XX=            -23.2759   YY=            -23.2919   ZZ=            -29.1136
   XY=              0.0951   XZ=              0.0171   YZ=             -0.0606

 1\1\GINC-NODE36\SP\RB2PLYPD3-FC\def2QZVP\C4H6\BOITTIER\26-Aug-2020\0\\
 #p B2PLYPD3/Def2QZVP\\butadiene\\0,1\C,0,-3.83625,0.19884,0.052879\C,0
 ,-2.696094,-0.473695,0.004169\C,0,-1.38636,0.084742,-0.019313\C,0,-0.2
 90921,-0.671269,0.066708\H,0,-4.812342,-0.219002,0.036206\H,0,-3.84753
 3,1.2815,0.024524\H,0,-2.690564,-1.534768,0.033649\H,0,-1.248226,1.196
 503,-0.139416\H,0,-0.390002,-1.744541,0.015143\H,0,0.679618,-0.237397,
 0.093446\\Version=ES64L-G09RevD.01\State=1-A\HF=-155.6966725\MP2=-155.
 9221866\RMSD=5.877e-09\PG=C01 [X(C4H6)]\\@

 Normal termination of Gaussian 09 at Wed Aug 26 10:51:32 2020.
