 Gaussian 09, Revision D.01,
 Gaussian 09:  ES64L-G09RevD.01 24-Apr-2013

 --------------------
 #p B2PLYPD3/Def2QZVP
 --------------------

 ---------
 butadiene
 ---------
 Symbolic Z-matrix:
 Charge =  0 Multiplicity = 1

                         Standard orientation:
 ---------------------------------------------------------------------
 Center     Atomic      Atomic             Coordinates (Angstroms)
 Number     Number       Type             X           Y           Z
 ---------------------------------------------------------------------
      1          6           0        1.844673   -0.123533   -0.033975
      2          6           0        0.626456    0.415646    0.022485
      3          6           0       -0.601942   -0.392736    0.012737
      4          6           0       -1.848676    0.102169   -0.032186
      5          1           0        2.679078    0.527314   -0.022758
      6          1           0        1.998927   -1.181955    0.013797
      7          1           0        0.435296    1.519469    0.136133
      8          1           0       -0.496508   -1.477876    0.068504
      9          1           0       -2.080180    1.174079   -0.065664
     10          1           0       -2.659676   -0.570306    0.055623
 ---------------------------------------------------------------------

 SCF Done:  E(RB2PLYPD3) =  -155.696762093     A.U. after   11 cycles
 E2(B2PLYPD3) =    -0.2259233644D+00 E(B2PLYPD3) =    -0.15592268545764D+03

 The electronic state is 1-A.
 Alpha  occ. eigenvalues --  -10.63109 -10.62657 -10.61390 -10.61250  -0.92605
 Alpha  occ. eigenvalues --   -0.85024  -0.70216  -0.63517  -0.54492  -0.54015
 Alpha  occ. eigenvalues --   -0.46703  -0.45960  -0.40915  -0.37673  -0.27760
 Alpha virt. eigenvalues --    0.01748   0.07062   0.07263   0.08072   0.09480
 Alpha virt. eigenvalues --    0.11649   0.12335   0.14824   0.15682   0.16143
 Alpha virt. eigenvalues --    0.18809   0.20295   0.21694   0.22593   0.24036

 Mulliken charges:
               1
     1  C   -0.175332
     2  C   -0.035267
     3  C   -0.027090
     4  C   -0.180161
     5  H    0.087875
     6  H    0.074267
     7  H    0.053606
     8  H    0.051375
     9  H    0.064934
    10  H    0.085793
 Sum of Mulliken charges =   0.00000

 Dipole moment (field-independent basis, Debye):
    X=              0.0312    Y=             -0.0203    Z=              0.1919  Tot=              0.1955
 Quadrupole moment (field-independent basis, Debye-Ang):
   XX=            -23.6507   YY=            -22.9693   ZZ=            -29.3060
   XY=             -0.2820   XZ=             -0.0500   YZ=             -0.0744

 1\1\GINC-NODE22\SP\RB2PLYPD3-FC\def2QZVP\C4H6\BOITTIER\26-Aug-2020\0\\
 #p B2PLYPD3/Def2QZVP\\butadiene\\0,1\C,0,-3.841688,0.238867,-0.01198\C
 ,0,-2.740851,-0.509917,0.061743\C,0,-1.386585,0.062452,0.031867\C,0,-0
 .250017,-0.650766,0.00307\H,0,-4.779971,-0.249822,0.015733\H,0,-3.8018
 95,1.308645,0.006079\H,0,-2.752044,-1.626537,0.206372\H,0,-1.293921,1.
 149891,0.057268\H,0,-0.216227,-1.747376,-0.000179\H,0,0.669469,-0.1338
 43,0.073699\\Version=ES64L-G09RevD.01\State=1-A\HF=-155.6967621\MP2=-1
 55.9226855\RMSD=4.087e-09\PG=C01 [X(C4H6)]\\@

 Normal termination of Gaussian 09 at Wed Aug 26 10:44:18 2020.
