 Gaussian 09, Revision D.01,
 Gaussian 09:  ES64L-G09RevD.01 24-Apr-2013

 --------------------
 #p B2PLYPD3/Def2QZVP
 --------------------

 ---------
 butadiene
 ---------
 Symbolic Z-matrix:
 Charge =  0 Multiplicity = 1

                         Standard orientation:
 ---------------------------------------------------------------------
 Center     Atomic      Atomic             Coordinates (Angstroms)
 Number     Number       Type             X           Y           Z
 ---------------------------------------------------------------------
      1          6           0        1.836458    0.107520   -0.016099
      2          6           0        0.605629   -0.392781    0.008039
      3          6           0       -0.606495    0.385073    0.027108
      4          6           0       -1.845537   -0.113323   -0.028107
      5          1           0        2.737664   -0.499406    0.009998
      6          1           0        2.002111    1.179019   -0.080398
      7          1           0        0.521958   -1.475002    0.084168
      8          1           0       -0.476485    1.489054    0.074640
      9          1           0       -2.027311   -1.159413   -0.046301
     10          1           0       -2.698268    0.546815    0.012248
 ---------------------------------------------------------------------

 SCF Done:  E(RB2PLYPD3) =  -155.700085719     A.U. after   11 cycles
 E2(B2PLYPD3) =    -0.2256696500D+00 E(B2PLYPD3) =    -0.15592575536933D+03

 The electronic state is 1-A.
 Alpha  occ. eigenvalues --  -10.62775 -10.62367 -10.61531 -10.61341  -0.93125
 Alpha  occ. eigenvalues --   -0.85066  -0.70382  -0.63808  -0.54629  -0.54214
 Alpha  occ. eigenvalues --   -0.46750  -0.45429  -0.40996  -0.38243  -0.27733
 Alpha virt. eigenvalues --    0.01623   0.07009   0.07439   0.07949   0.09823
 Alpha virt. eigenvalues --    0.11634   0.12448   0.14750   0.15848   0.16219
 Alpha virt. eigenvalues --    0.18831   0.20437   0.21735   0.22475   0.23746

 Mulliken charges:
               1
     1  C   -0.172609
     2  C   -0.025209
     3  C   -0.030267
     4  C   -0.176376
     5  H    0.085251
     6  H    0.060515
     7  H    0.052693
     8  H    0.049244
     9  H    0.070046
    10  H    0.086712
 Sum of Mulliken charges =   0.00000

 Dipole moment (field-independent basis, Debye):
    X=              0.0205    Y=             -0.0216    Z=              0.0680  Tot=              0.0742
 Quadrupole moment (field-independent basis, Debye-Ang):
   XX=            -23.2983   YY=            -23.2153   ZZ=            -29.2295
   XY=              0.0895   XZ=             -0.0477   YZ=             -0.0573

 1\1\GINC-NODE17\SP\RB2PLYPD3-FC\def2QZVP\C4H6\BOITTIER\26-Aug-2020\0\\
 #p B2PLYPD3/Def2QZVP\\butadiene\\0,1\C,0,-3.840796,0.220144,0.034374\C
 ,0,-2.718967,-0.492051,0.024232\C,0,-1.387652,0.056489,-0.01278\C,0,-0
 .257143,-0.653329,0.056368\H,0,-4.835849,-0.21682,0.022344\H,0,-3.8125
 53,1.305268,0.071697\H,0,-2.829827,-1.573397,-0.024749\H,0,-1.318911,1
 .164437,-0.088021\H,0,-0.264724,-1.714289,0.100898\H,0,0.699482,-0.157
 027,0.000579\\Version=ES64L-G09RevD.01\State=1-A\HF=-155.7000857\MP2=-
 155.9257554\RMSD=5.268e-09\PG=C01 [X(C4H6)]\\@

 Normal termination of Gaussian 09 at Wed Aug 26 20:43:13 2020.
