 Gaussian 09, Revision D.01,
 Gaussian 09:  ES64L-G09RevD.01 24-Apr-2013

 --------------------
 #p B2PLYPD3/Def2QZVP
 --------------------

 ---------
 butadiene
 ---------
 Symbolic Z-matrix:
 Charge =  0 Multiplicity = 1

                         Standard orientation:
 ---------------------------------------------------------------------
 Center     Atomic      Atomic             Coordinates (Angstroms)
 Number     Number       Type             X           Y           Z
 ---------------------------------------------------------------------
      1          6           0        1.835242    0.109309    0.003442
      2          6           0        0.605855   -0.395871   -0.025546
      3          6           0       -0.606229    0.415882   -0.021393
      4          6           0       -1.834081   -0.114081    0.013662
      5          1           0        2.684483   -0.565406    0.078451
      6          1           0        2.021128    1.178271    0.028813
      7          1           0        0.471603   -1.456636    0.008639
      8          1           0       -0.503446    1.509878    0.009013
      9          1           0       -1.928955   -1.226809    0.009551
     10          1           0       -2.749534    0.469266    0.044537
 ---------------------------------------------------------------------

 SCF Done:  E(RB2PLYPD3) =  -155.699621510     A.U. after   11 cycles
 E2(B2PLYPD3) =    -0.2258957584D+00 E(B2PLYPD3) =    -0.15592551726802D+03

 The electronic state is 1-A.
 Alpha  occ. eigenvalues --  -10.62729 -10.62340 -10.61929 -10.61468  -0.92965
 Alpha  occ. eigenvalues --   -0.84873  -0.69699  -0.64004  -0.54430  -0.53854
 Alpha  occ. eigenvalues --   -0.46669  -0.45152  -0.41171  -0.38128  -0.27743
 Alpha virt. eigenvalues --    0.01872   0.07012   0.07334   0.08023   0.09510
 Alpha virt. eigenvalues --    0.11681   0.12399   0.14546   0.15888   0.16123
 Alpha virt. eigenvalues --    0.18729   0.20443   0.21377   0.22859   0.23988

 Mulliken charges:
               1
     1  C   -0.174924
     2  C   -0.029983
     3  C   -0.031397
     4  C   -0.172250
     5  H    0.083129
     6  H    0.069110
     7  H    0.057399
     8  H    0.053059
     9  H    0.057022
    10  H    0.088835
 Sum of Mulliken charges =   0.00000

 Dipole moment (field-independent basis, Debye):
    X=             -0.0108    Y=              0.0130    Z=              0.1318  Tot=              0.1329
 Quadrupole moment (field-independent basis, Debye-Ang):
   XX=            -23.6124   YY=            -23.0557   ZZ=            -29.3177
   XY=             -0.0054   XZ=              0.1419   YZ=             -0.0039

 1\1\GINC-NODE13\SP\RB2PLYPD3-FC\def2QZVP\C4H6\BOITTIER\26-Aug-2020\0\\
 #p B2PLYPD3/Def2QZVP\\butadiene\\0,1\C,0,-3.838654,0.218089,0.009488\C
 ,0,-2.718989,-0.497175,0.056241\C,0,-1.381596,0.085011,0.032808\C,0,-0
 .267998,-0.65616,0.016235\H,0,-4.794753,-0.296235,-0.049003\H,0,-3.831
 007,1.30192,-0.046453\H,0,-2.776108,-1.565415,0.05227\H,0,-1.287726,1.
 178505,-0.028628\H,0,-0.373048,-1.767409,0.05189\H,0,0.736733,-0.24649
 1,-0.028354\\Version=ES64L-G09RevD.01\State=1-A\HF=-155.6996215\MP2=-1
 55.9255173\RMSD=3.031e-09\PG=C01 [X(C4H6)]\\@

 Normal termination of Gaussian 09 at Wed Aug 26 22:06:49 2020.
