 Gaussian 09, Revision D.01,
 Gaussian 09:  ES64L-G09RevD.01 24-Apr-2013

 --------------------
 #p B2PLYPD3/Def2QZVP
 --------------------

 ---------
 butadiene
 ---------
 Symbolic Z-matrix:
 Charge =  0 Multiplicity = 1

                         Standard orientation:
 ---------------------------------------------------------------------
 Center     Atomic      Atomic             Coordinates (Angstroms)
 Number     Number       Type             X           Y           Z
 ---------------------------------------------------------------------
      1          6           0       -1.842619   -0.104383   -0.014620
      2          6           0       -0.597458    0.393062    0.020573
      3          6           0        0.607178   -0.412577    0.001500
      4          6           0        1.842949    0.110891    0.000384
      5          1           0       -2.705515    0.545932   -0.030308
      6          1           0       -2.080608   -1.148882   -0.025660
      7          1           0       -0.461671    1.470303    0.051859
      8          1           0        0.492067   -1.484705    0.061898
      9          1           0        1.984482    1.180091   -0.061450
     10          1           0        2.710948   -0.484703   -0.043362
 ---------------------------------------------------------------------

 SCF Done:  E(RB2PLYPD3) =  -155.700366700     A.U. after   11 cycles
 E2(B2PLYPD3) =    -0.2257219537D+00 E(B2PLYPD3) =    -0.15592608865333D+03

 The electronic state is 1-A.
 Alpha  occ. eigenvalues --  -10.62663 -10.62537 -10.61470 -10.61282  -0.92924
 Alpha  occ. eigenvalues --   -0.84829  -0.70560  -0.64273  -0.54966  -0.53889
 Alpha  occ. eigenvalues --   -0.46788  -0.45658  -0.41385  -0.38024  -0.27532
 Alpha virt. eigenvalues --    0.01549   0.07027   0.07483   0.08103   0.09532
 Alpha virt. eigenvalues --    0.11639   0.12532   0.14805   0.15865   0.16256
 Alpha virt. eigenvalues --    0.18850   0.20464   0.21913   0.22804   0.23644

 Mulliken charges:
               1
     1  C   -0.175466
     2  C   -0.031916
     3  C   -0.032292
     4  C   -0.174578
     5  H    0.081277
     6  H    0.067758
     7  H    0.056913
     8  H    0.058643
     9  H    0.062776
    10  H    0.086886
 Sum of Mulliken charges =   0.00000

 Dipole moment (field-independent basis, Debye):
    X=              0.0055    Y=             -0.0255    Z=             -0.0322  Tot=              0.0414
 Quadrupole moment (field-independent basis, Debye-Ang):
   XX=            -23.3179   YY=            -23.1159   ZZ=            -29.2550
   XY=              0.2322   XZ=             -0.0950   YZ=             -0.0604

 1\1\GINC-NODE33\SP\RB2PLYPD3-FC\def2QZVP\C4H6\BOITTIER\26-Aug-2020\0\\
 #p B2PLYPD3/Def2QZVP\\butadiene\\0,1\C,0,-3.846432,0.221923,0.031449\C
 ,0,-2.712577,-0.494509,0.016819\C,0,-1.381502,0.07888,0.011298\C,0,-0.
 261479,-0.660167,0.033829\H,0,-4.813102,-0.259753,0.067266\H,0,-3.8905
 47,1.292031,0.005758\H,0,-2.774985,-1.578912,0.023131\H,0,-1.300024,1.
 151341,-0.086411\H,0,-0.316437,-1.734504,0.132943\H,0,0.700478,-0.2311
 47,0.059315\\Version=ES64L-G09RevD.01\State=1-A\HF=-155.7003667\MP2=-1
 55.9260887\RMSD=2.875e-09\PG=C01 [X(C4H6)]\\@

 Normal termination of Gaussian 09 at Wed Aug 26 20:34:23 2020.
