 Gaussian 09, Revision D.01,
 Gaussian 09:  ES64L-G09RevD.01 24-Apr-2013

 --------------------
 #p B2PLYPD3/Def2QZVP
 --------------------

 ---------
 butadiene
 ---------
 Symbolic Z-matrix:
 Charge =  0 Multiplicity = 1

                         Standard orientation:
 ---------------------------------------------------------------------
 Center     Atomic      Atomic             Coordinates (Angstroms)
 Number     Number       Type             X           Y           Z
 ---------------------------------------------------------------------
      1          6           0       -1.841774    0.097282    0.049111
      2          6           0       -0.579573   -0.382755   -0.056539
      3          6           0        0.626768    0.430459   -0.085919
      4          6           0        1.837505   -0.126385    0.077767
      5          1           0       -2.776137   -0.552684    0.099986
      6          1           0       -1.966733    1.182861    0.072427
      7          1           0       -0.485705   -1.504706   -0.015716
      8          1           0        0.397079    1.548317   -0.118045
      9          1           0        1.835946   -1.236563   -0.134115
     10          1           0        2.737996    0.451169    0.188937
 ---------------------------------------------------------------------

 SCF Done:  E(RB2PLYPD3) =  -155.684579910     A.U. after   11 cycles
 E2(B2PLYPD3) =    -0.2281631350D+00 E(B2PLYPD3) =    -0.15591274304489D+03

 The electronic state is 1-A.
 Alpha  occ. eigenvalues --  -10.63645 -10.63213 -10.62424 -10.62403  -0.92778
 Alpha  occ. eigenvalues --   -0.84364  -0.69448  -0.62977  -0.54490  -0.52668
 Alpha  occ. eigenvalues --   -0.46354  -0.44713  -0.40998  -0.37833  -0.27439
 Alpha virt. eigenvalues --    0.01336   0.06926   0.07036   0.07881   0.09084
 Alpha virt. eigenvalues --    0.11605   0.12517   0.14174   0.15712   0.16063
 Alpha virt. eigenvalues --    0.18636   0.19610   0.21187   0.22622   0.24388

 Mulliken charges:
               1
     1  C   -0.180058
     2  C   -0.016848
     3  C   -0.031847
     4  C   -0.170282
     5  H    0.087679
     6  H    0.057868
     7  H    0.043474
     8  H    0.047249
     9  H    0.069669
    10  H    0.093095
 Sum of Mulliken charges =   0.00000

 Dipole moment (field-independent basis, Debye):
    X=              0.0556    Y=              0.0469    Z=             -0.0061  Tot=              0.0730
 Quadrupole moment (field-independent basis, Debye-Ang):
   XX=            -23.6621   YY=            -23.3590   ZZ=            -29.5204
   XY=              0.2117   XZ=             -0.1123   YZ=              0.2018

 1\1\GINC-NODE32\SP\RB2PLYPD3-FC\def2QZVP\C4H6\BOITTIER\26-Aug-2020\0\\
 #p B2PLYPD3/Def2QZVP\\butadiene\\0,1\C,0,-3.852758,0.207283,0.073233\C
 ,0,-2.696124,-0.491421,-0.020353\C,0,-1.364892,0.09403,-0.070404\C,0,-
 0.271288,-0.664414,0.107207\H,0,-4.887289,-0.265247,0.140618\H,0,-3.78
 3216,1.298056,0.069091\H,0,-2.802419,-1.610871,0.04883\H,0,-1.392952,1
 .233751,-0.130777\H,0,-0.470566,-1.761648,-0.076523\H,0,0.717814,-0.25
 3089,0.20365\\Version=ES64L-G09RevD.01\State=1-A\HF=-155.6845799\MP2=-
 155.912743\RMSD=7.911e-09\PG=C01 [X(C4H6)]\\@

 Normal termination of Gaussian 09 at Wed Aug 26 13:10:30 2020.
