 Gaussian 09, Revision D.01,
 Gaussian 09:  ES64L-G09RevD.01 24-Apr-2013

 --------------------
 #p B2PLYPD3/Def2QZVP
 --------------------

 ---------
 butadiene
 ---------
 Symbolic Z-matrix:
 Charge =  0 Multiplicity = 1

                         Standard orientation:
 ---------------------------------------------------------------------
 Center     Atomic      Atomic             Coordinates (Angstroms)
 Number     Number       Type             X           Y           Z
 ---------------------------------------------------------------------
      1          6           0       -1.826120    0.115891    0.021532
      2          6           0       -0.612960   -0.409788   -0.029393
      3          6           0        0.598895    0.386504   -0.009073
      4          6           0        1.835685   -0.107675    0.010347
      5          1           0       -2.704712   -0.498266    0.041769
      6          1           0       -1.932785    1.204914   -0.027329
      7          1           0       -0.494941   -1.486555   -0.000118
      8          1           0        0.459973    1.478084   -0.018141
      9          1           0        2.024025   -1.153430    0.001639
     10          1           0        2.675445    0.545661    0.041703
 ---------------------------------------------------------------------

 SCF Done:  E(RB2PLYPD3) =  -155.700824093     A.U. after   11 cycles
 E2(B2PLYPD3) =    -0.2252665837D+00 E(B2PLYPD3) =    -0.15592609067626D+03

 The electronic state is 1-A.
 Alpha  occ. eigenvalues --  -10.62501 -10.62205 -10.61350 -10.60983  -0.93197
 Alpha  occ. eigenvalues --   -0.85213  -0.70197  -0.63965  -0.54851  -0.54109
 Alpha  occ. eigenvalues --   -0.46706  -0.45680  -0.41139  -0.38280  -0.27797
 Alpha virt. eigenvalues --    0.01928   0.07048   0.07390   0.08092   0.09696
 Alpha virt. eigenvalues --    0.11741   0.12460   0.14773   0.15807   0.16186
 Alpha virt. eigenvalues --    0.18722   0.20371   0.21676   0.22904   0.24077

 Mulliken charges:
               1
     1  C   -0.173267
     2  C   -0.028808
     3  C   -0.024181
     4  C   -0.181362
     5  H    0.087982
     6  H    0.063220
     7  H    0.053228
     8  H    0.048343
     9  H    0.068077
    10  H    0.086767
 Sum of Mulliken charges =   0.00000

 Dipole moment (field-independent basis, Debye):
    X=             -0.0187    Y=             -0.0358    Z=              0.0074  Tot=              0.0411
 Quadrupole moment (field-independent basis, Debye-Ang):
   XX=            -23.5367   YY=            -23.0669   ZZ=            -29.1836
   XY=             -0.0492   XZ=              0.0322   YZ=             -0.0681

 1\1\GINC-NODE35\SP\RB2PLYPD3-FC\def2QZVP\C4H6\BOITTIER\26-Aug-2020\0\\
 #p B2PLYPD3/Def2QZVP\\butadiene\\0,1\C,0,-3.826801,0.228771,0.038964\C
 ,0,-2.72783,-0.507452,0.008509\C,0,-1.392715,0.05871,0.004741\C,0,-0.2
 64578,-0.648424,0.043584\H,0,-4.801233,-0.216751,0.077885\H,0,-3.73655
 5,1.316999,-0.046779\H,0,-2.804782,-1.586324,0.074291\H,0,-1.333592,1.
 156574,-0.041391\H,0,-0.266932,-1.710695,0.070519\H,0,0.678878,-0.1556
 84,0.054819\\Version=ES64L-G09RevD.01\State=1-A\HF=-155.7008241\MP2=-1
 55.9260907\RMSD=3.971e-09\PG=C01 [X(C4H6)]\\@

 Normal termination of Gaussian 09 at Wed Aug 26 15:20:35 2020.
