 Gaussian 09, Revision D.01,
 Gaussian 09:  ES64L-G09RevD.01 24-Apr-2013

 --------------------
 #p B2PLYPD3/Def2QZVP
 --------------------

 ---------
 butadiene
 ---------
 Symbolic Z-matrix:
 Charge =  0 Multiplicity = 1

                         Standard orientation:
 ---------------------------------------------------------------------
 Center     Atomic      Atomic             Coordinates (Angstroms)
 Number     Number       Type             X           Y           Z
 ---------------------------------------------------------------------
      1          6           0       -1.815584    0.124226    0.022202
      2          6           0       -0.602007   -0.422776   -0.015246
      3          6           0        0.596046    0.376317   -0.028904
      4          6           0        1.823877   -0.101020    0.024109
      5          1           0       -2.759327   -0.474381   -0.092361
      6          1           0       -1.967065    1.187853    0.120681
      7          1           0       -0.467243   -1.470394    0.005099
      8          1           0        0.493651    1.465017   -0.072504
      9          1           0        2.040129   -1.168161    0.036464
     10          1           0        2.645865    0.599583   -0.010341
 ---------------------------------------------------------------------

 SCF Done:  E(RB2PLYPD3) =  -155.697735970     A.U. after   11 cycles
 E2(B2PLYPD3) =    -0.2254286803D+00 E(B2PLYPD3) =    -0.15592316464984D+03

 The electronic state is 1-A.
 Alpha  occ. eigenvalues --  -10.62155 -10.62023 -10.61871 -10.61122  -0.93450
 Alpha  occ. eigenvalues --   -0.85066  -0.69908  -0.64276  -0.54533  -0.54052
 Alpha  occ. eigenvalues --   -0.46792  -0.45238  -0.41157  -0.38310  -0.27722
 Alpha virt. eigenvalues --    0.01879   0.06976   0.07439   0.07989   0.09709
 Alpha virt. eigenvalues --    0.11741   0.12363   0.14767   0.15761   0.16195
 Alpha virt. eigenvalues --    0.18750   0.20302   0.21698   0.22414   0.24193

 Mulliken charges:
               1
     1  C   -0.169133
     2  C   -0.039909
     3  C   -0.018569
     4  C   -0.180083
     5  H    0.077703
     6  H    0.067417
     7  H    0.064348
     8  H    0.049999
     9  H    0.065437
    10  H    0.082790
 Sum of Mulliken charges =   0.00000

 Dipole moment (field-independent basis, Debye):
    X=             -0.0220    Y=              0.0070    Z=             -0.0376  Tot=              0.0441
 Quadrupole moment (field-independent basis, Debye-Ang):
   XX=            -23.7130   YY=            -23.0361   ZZ=            -29.1634
   XY=             -0.1965   XZ=              0.0520   YZ=              0.0670

 1\1\GINC-NODE06\SP\RB2PLYPD3-FC\def2QZVP\C4H6\BOITTIER\26-Aug-2020\0\\
 #p B2PLYPD3/Def2QZVP\\butadiene\\0,1\C,0,-3.814863,0.238601,0.039186\C
 ,0,-2.720466,-0.519852,0.018539\C,0,-1.397585,0.048514,-0.013282\C,0,-
 0.276322,-0.641686,0.054725\H,0,-4.851675,-0.182022,-0.061828\H,0,-3.7
 71032,1.314264,0.109713\H,0,-2.777531,-1.573672,0.066345\H,0,-1.301308
 ,1.136261,-0.085331\H,0,-0.256802,-1.72966,0.095225\H,0,0.658825,-0.10
 2605,0.003869\\Version=ES64L-G09RevD.01\State=1-A\HF=-155.697736\MP2=-
 155.9231646\RMSD=5.886e-09\PG=C01 [X(C4H6)]\\@

 Normal termination of Gaussian 09 at Wed Aug 26 09:04:59 2020.
