 Gaussian 09, Revision D.01,
 Gaussian 09:  ES64L-G09RevD.01 24-Apr-2013

 --------------------
 #p B2PLYPD3/Def2QZVP
 --------------------

 ---------
 butadiene
 ---------
 Symbolic Z-matrix:
 Charge =  0 Multiplicity = 1

                         Standard orientation:
 ---------------------------------------------------------------------
 Center     Atomic      Atomic             Coordinates (Angstroms)
 Number     Number       Type             X           Y           Z
 ---------------------------------------------------------------------
      1          6           0        1.831665   -0.142989    0.022657
      2          6           0        0.594864    0.431355   -0.033003
      3          6           0       -0.585714   -0.386056   -0.075270
      4          6           0       -1.822665    0.082090   -0.002899
      5          1           0        2.699500    0.529641    0.111898
      6          1           0        1.867351   -1.178220    0.010190
      7          1           0        0.459507    1.439771    0.004629
      8          1           0       -0.448235   -1.425012    0.119275
      9          1           0       -1.901933    1.210293    0.109641
     10          1           0       -2.785090   -0.482871    0.175454
 ---------------------------------------------------------------------

 SCF Done:  E(RB2PLYPD3) =  -155.683353482     A.U. after   11 cycles
 E2(B2PLYPD3) =    -0.2267537884D+00 E(B2PLYPD3) =    -0.15591010727073D+03

 The electronic state is 1-A.
 Alpha  occ. eigenvalues --  -10.62366 -10.62096 -10.61926 -10.61699  -0.93579
 Alpha  occ. eigenvalues --   -0.84631  -0.69886  -0.65202  -0.54476  -0.53784
 Alpha  occ. eigenvalues --   -0.46692  -0.45600  -0.41370  -0.37992  -0.27394
 Alpha virt. eigenvalues --    0.01393   0.06995   0.07478   0.08030   0.09195
 Alpha virt. eigenvalues --    0.11703   0.12583   0.14475   0.15455   0.16248
 Alpha virt. eigenvalues --    0.18414   0.19923   0.21756   0.23660   0.23954

 Mulliken charges:
               1
     1  C   -0.184901
     2  C   -0.039425
     3  C   -0.018374
     4  C   -0.166489
     5  H    0.088420
     6  H    0.078224
     7  H    0.062190
     8  H    0.055107
     9  H    0.042094
    10  H    0.083154
 Sum of Mulliken charges =   0.00000

 Dipole moment (field-independent basis, Debye):
    X=              0.0191    Y=              0.0107    Z=              0.4088  Tot=              0.4093
 Quadrupole moment (field-independent basis, Debye-Ang):
   XX=            -23.8555   YY=            -23.2437   ZZ=            -29.2090
   XY=              0.2337   XZ=             -0.4885   YZ=             -0.0590

 1\1\GINC-NODE25\SP\RB2PLYPD3-FC\def2QZVP\C4H6\BOITTIER\26-Aug-2020\0\\
 #p B2PLYPD3/Def2QZVP\\butadiene\\0,1\C,0,-3.826573,0.252231,0.044028\C
 ,0,-2.712647,-0.535524,0.008588\C,0,-1.404613,0.055961,-0.045309\C,0,-
 0.271719,-0.624384,0.044843\H,0,-4.801058,-0.251785,0.143428\H,0,-3.67
 6117,1.276531,0.007911\H,0,-2.760281,-1.550719,0.069836\H,0,-1.353979,
 1.106989,0.124852\H,0,-0.396129,-1.7456,0.183364\H,0,0.77608,-0.236969
 ,0.215953\\Version=ES64L-G09RevD.01\State=1-A\HF=-155.6833535\MP2=-155
 .9101073\RMSD=7.452e-09\PG=C01 [X(C4H6)]\\@

 Normal termination of Gaussian 09 at Wed Aug 26 14:01:43 2020.
