 Gaussian 09, Revision D.01,
 Gaussian 09:  ES64L-G09RevD.01 24-Apr-2013

 --------------------
 #p B2PLYPD3/Def2QZVP
 --------------------

 ---------
 butadiene
 ---------
 Symbolic Z-matrix:
 Charge =  0 Multiplicity = 1

                         Standard orientation:
 ---------------------------------------------------------------------
 Center     Atomic      Atomic             Coordinates (Angstroms)
 Number     Number       Type             X           Y           Z
 ---------------------------------------------------------------------
      1          6           0        1.831463   -0.100435   -0.017108
      2          6           0        0.600815    0.393429    0.023751
      3          6           0       -0.605617   -0.423440    0.011724
      4          6           0       -1.838651    0.114955   -0.009969
      5          1           0        2.719136    0.549439   -0.051831
      6          1           0        2.008028   -1.166893    0.057587
      7          1           0        0.441422    1.479563   -0.000796
      8          1           0       -0.410097   -1.485571   -0.039309
      9          1           0       -1.938925    1.199637    0.000593
     10          1           0       -2.747624   -0.483231   -0.016624
 ---------------------------------------------------------------------

 SCF Done:  E(RB2PLYPD3) =  -155.699548508     A.U. after   11 cycles
 E2(B2PLYPD3) =    -0.2260651815D+00 E(B2PLYPD3) =    -0.15592561368924D+03

 The electronic state is 1-A.
 Alpha  occ. eigenvalues --  -10.62736 -10.62474 -10.61927 -10.61569  -0.92999
 Alpha  occ. eigenvalues --   -0.84723  -0.69937  -0.64056  -0.54526  -0.53532
 Alpha  occ. eigenvalues --   -0.46828  -0.45533  -0.40937  -0.38123  -0.27679
 Alpha virt. eigenvalues --    0.01748   0.07009   0.07311   0.08095   0.09432
 Alpha virt. eigenvalues --    0.11714   0.12471   0.14612   0.15803   0.16025
 Alpha virt. eigenvalues --    0.18710   0.20409   0.21578   0.23020   0.23811

 Mulliken charges:
               1
     1  C   -0.178490
     2  C   -0.019620
     3  C   -0.036021
     4  C   -0.174535
     5  H    0.084041
     6  H    0.064274
     7  H    0.050135
     8  H    0.056224
     9  H    0.065534
    10  H    0.088458
 Sum of Mulliken charges =   0.00000

 Dipole moment (field-independent basis, Debye):
    X=             -0.0041    Y=             -0.0121    Z=             -0.0161  Tot=              0.0205
 Quadrupole moment (field-independent basis, Debye-Ang):
   XX=            -23.5129   YY=            -23.1653   ZZ=            -29.3256
   XY=             -0.2099   XZ=              0.0265   YZ=             -0.0543

 1\1\GINC-NODE17\SP\RB2PLYPD3-FC\def2QZVP\C4H6\BOITTIER\26-Aug-2020\0\\
 #p B2PLYPD3/Def2QZVP\\butadiene\\0,1\C,0,-3.836444,0.215624,0.001241\C
 ,0,-2.716223,-0.492961,0.056716\C,0,-1.38122,0.089863,0.025403\C,0,-0.
 266967,-0.664535,0.019502\H,0,-4.827753,-0.26233,-0.018015\H,0,-3.8155
 47,1.297963,0.048075\H,0,-2.757427,-1.590223,0.060496\H,0,-1.380155,1.
 168172,-0.053365\H,0,-0.365922,-1.748697,0.058252\H,0,0.735737,-0.2423
 3,-0.001238\\Version=ES64L-G09RevD.01\State=1-A\HF=-155.6995485\MP2=-1
 55.9256137\RMSD=5.445e-09\PG=C01 [X(C4H6)]\\@

 Normal termination of Gaussian 09 at Wed Aug 26 08:44:33 2020.
