 Gaussian 09, Revision D.01,
 Gaussian 09:  ES64L-G09RevD.01 24-Apr-2013

 --------------------
 #p B2PLYPD3/Def2QZVP
 --------------------

 ---------
 butadiene
 ---------
 Symbolic Z-matrix:
 Charge =  0 Multiplicity = 1

                         Standard orientation:
 ---------------------------------------------------------------------
 Center     Atomic      Atomic             Coordinates (Angstroms)
 Number     Number       Type             X           Y           Z
 ---------------------------------------------------------------------
      1          6           0       -1.831519   -0.116355   -0.028825
      2          6           0       -0.591912    0.409757    0.014322
      3          6           0        0.599838   -0.397956    0.017842
      4          6           0        1.836477    0.100963   -0.018956
      5          1           0       -2.701057    0.518365    0.022040
      6          1           0       -1.998702   -1.166125   -0.025412
      7          1           0       -0.470456    1.501070    0.096883
      8          1           0        0.408410   -1.447808    0.053674
      9          1           0        2.006312    1.170813   -0.080955
     10          1           0        2.678186   -0.554767    0.027477
 ---------------------------------------------------------------------

 SCF Done:  E(RB2PLYPD3) =  -155.699880415     A.U. after   11 cycles
 E2(B2PLYPD3) =    -0.2258005915D+00 E(B2PLYPD3) =    -0.15592568100622D+03

 The electronic state is 1-A.
 Alpha  occ. eigenvalues --  -10.62631 -10.62153 -10.61392 -10.61373  -0.93177
 Alpha  occ. eigenvalues --   -0.84780  -0.70494  -0.64236  -0.54685  -0.54006
 Alpha  occ. eigenvalues --   -0.46543  -0.46057  -0.41393  -0.38115  -0.27463
 Alpha virt. eigenvalues --    0.01565   0.07051   0.07406   0.08109   0.09593
 Alpha virt. eigenvalues --    0.11757   0.12424   0.14869   0.15825   0.16087
 Alpha virt. eigenvalues --    0.18748   0.20486   0.21633   0.22993   0.23844

 Mulliken charges:
               1
     1  C   -0.182153
     2  C   -0.024793
     3  C   -0.030752
     4  C   -0.178851
     5  H    0.084092
     6  H    0.066635
     7  H    0.052538
     8  H    0.056360
     9  H    0.069196
    10  H    0.087727
 Sum of Mulliken charges =   0.00000

 Dipole moment (field-independent basis, Debye):
    X=             -0.0108    Y=             -0.0246    Z=              0.1057  Tot=              0.1091
 Quadrupole moment (field-independent basis, Debye-Ang):
   XX=            -23.6147   YY=            -23.0335   ZZ=            -29.2412
   XY=              0.2488   XZ=             -0.1310   YZ=             -0.0191

 1\1\GINC-NODE34\SP\RB2PLYPD3-FC\def2QZVP\C4H6\BOITTIER\26-Aug-2020\0\\
 #p B2PLYPD3/Def2QZVP\\butadiene\\0,1\C,0,-3.832382,0.237037,0.042473\C
 ,0,-2.710997,-0.50941,0.018124\C,0,-1.390872,0.064541,-0.004905\C,0,-0
 .26721,-0.652351,0.049871\H,0,-4.804071,-0.227859,0.007163\H,0,-3.8033
 48,1.299103,0.008535\H,0,-2.792827,-1.606333,-0.032826\H,0,-1.385727,1
 .130224,-0.071324\H,0,-0.297202,-1.732954,0.142953\H,0,0.68077,-0.1644
 77,-0.012761\\Version=ES64L-G09RevD.01\State=1-A\HF=-155.6998804\MP2=-
 155.925681\RMSD=5.028e-09\PG=C01 [X(C4H6)]\\@

 Normal termination of Gaussian 09 at Wed Aug 26 19:12:35 2020.
