 Gaussian 09, Revision D.01,
 Gaussian 09:  ES64L-G09RevD.01 24-Apr-2013

 --------------------
 #p B2PLYPD3/Def2QZVP
 --------------------

 ---------
 butadiene
 ---------
 Symbolic Z-matrix:
 Charge =  0 Multiplicity = 1

                         Standard orientation:
 ---------------------------------------------------------------------
 Center     Atomic      Atomic             Coordinates (Angstroms)
 Number     Number       Type             X           Y           Z
 ---------------------------------------------------------------------
      1          6           0       -1.834179   -0.126675   -0.017385
      2          6           0       -0.603789    0.402176    0.003634
      3          6           0        0.616976   -0.369430   -0.006886
      4          6           0        1.841681    0.101057    0.009767
      5          1           0       -2.725382    0.494297   -0.001136
      6          1           0       -1.962269   -1.176965    0.120304
      7          1           0       -0.563093    1.471730   -0.062836
      8          1           0        0.439893   -1.422149    0.004417
      9          1           0        2.010379    1.162460    0.115474
     10          1           0        2.676343   -0.572141   -0.111007
 ---------------------------------------------------------------------

 SCF Done:  E(RB2PLYPD3) =  -155.698185137     A.U. after   11 cycles
 E2(B2PLYPD3) =    -0.2251542962D+00 E(B2PLYPD3) =    -0.15592333943300D+03

 The electronic state is 1-A.
 Alpha  occ. eigenvalues --  -10.62219 -10.61884 -10.61383 -10.61148  -0.93385
 Alpha  occ. eigenvalues --   -0.85360  -0.70295  -0.64353  -0.54657  -0.54404
 Alpha  occ. eigenvalues --   -0.46799  -0.45758  -0.41188  -0.38253  -0.27824
 Alpha virt. eigenvalues --    0.01728   0.07010   0.07583   0.08047   0.09804
 Alpha virt. eigenvalues --    0.11765   0.12399   0.14864   0.15675   0.16336
 Alpha virt. eigenvalues --    0.18757   0.19820   0.21908   0.22935   0.24026

 Mulliken charges:
               1
     1  C   -0.175270
     2  C   -0.030055
     3  C   -0.027109
     4  C   -0.178323
     5  H    0.082200
     6  H    0.062107
     7  H    0.053517
     8  H    0.053746
     9  H    0.070070
    10  H    0.089117
 Sum of Mulliken charges =   0.00000

 Dipole moment (field-independent basis, Debye):
    X=             -0.0118    Y=              0.0063    Z=              0.0690  Tot=              0.0703
 Quadrupole moment (field-independent basis, Debye-Ang):
   XX=            -23.5143   YY=            -23.1837   ZZ=            -29.0758
   XY=             -0.0543   XZ=             -0.2947   YZ=             -0.0126

 1\1\GINC-NODE27\SP\RB2PLYPD3-FC\def2QZVP\C4H6\BOITTIER\26-Aug-2020\0\\
 #p B2PLYPD3/Def2QZVP\\butadiene\\0,1\C,0,-3.837303,0.234804,0.0297\C,0
 ,-2.719721,-0.503432,0.031253\C,0,-1.381837,0.040363,0.020871\C,0,-0.2
 59532,-0.639309,0.024816\H,0,-4.824211,-0.219206,0.030641\H,0,-3.77812
 8,1.285983,-0.143488\H,0,-2.86846,-1.560518,0.133558\H,0,-1.370205,1.1
 06826,-0.026279\H,0,-0.281182,-1.716762,-0.044721\H,0,0.681156,-0.1204
 31,0.126372\\Version=ES64L-G09RevD.01\State=1-A\HF=-155.6981851\MP2=-1
 55.9233394\RMSD=5.527e-09\PG=C01 [X(C4H6)]\\@

 Normal termination of Gaussian 09 at Wed Aug 26 08:39:36 2020.
