 Gaussian 09, Revision D.01,
 Gaussian 09:  ES64L-G09RevD.01 24-Apr-2013

 --------------------
 #p B2PLYPD3/Def2QZVP
 --------------------

 ---------
 butadiene
 ---------
 Symbolic Z-matrix:
 Charge =  0 Multiplicity = 1

                         Standard orientation:
 ---------------------------------------------------------------------
 Center     Atomic      Atomic             Coordinates (Angstroms)
 Number     Number       Type             X           Y           Z
 ---------------------------------------------------------------------
      1          6           0       -1.841983   -0.104003    0.026376
      2          6           0       -0.607087    0.389560   -0.022092
      3          6           0        0.606427   -0.410296   -0.031450
      4          6           0        1.843334    0.110827    0.019311
      5          1           0       -2.712388    0.537673    0.029494
      6          1           0       -2.038529   -1.136926   -0.006412
      7          1           0       -0.473400    1.452808   -0.015103
      8          1           0        0.458043   -1.473345   -0.022489
      9          1           0        2.003049    1.190889   -0.015761
     10          1           0        2.759077   -0.487621    0.077394
 ---------------------------------------------------------------------

 SCF Done:  E(RB2PLYPD3) =  -155.700140033     A.U. after   11 cycles
 E2(B2PLYPD3) =    -0.2255706114D+00 E(B2PLYPD3) =    -0.15592571064466D+03

 The electronic state is 1-A.
 Alpha  occ. eigenvalues --  -10.62623 -10.62296 -10.61982 -10.61095  -0.93004
 Alpha  occ. eigenvalues --   -0.84863  -0.70363  -0.64511  -0.54702  -0.53945
 Alpha  occ. eigenvalues --   -0.46984  -0.45617  -0.41117  -0.38099  -0.27665
 Alpha virt. eigenvalues --    0.01638   0.06977   0.07512   0.08116   0.09594
 Alpha virt. eigenvalues --    0.11654   0.12538   0.14724   0.15914   0.16187
 Alpha virt. eigenvalues --    0.18866   0.20468   0.21796   0.22954   0.23641

 Mulliken charges:
               1
     1  C   -0.176291
     2  C   -0.025164
     3  C   -0.038110
     4  C   -0.171392
     5  H    0.082460
     6  H    0.066134
     7  H    0.056300
     8  H    0.058381
     9  H    0.063338
    10  H    0.084344
 Sum of Mulliken charges =   0.00000

 Dipole moment (field-independent basis, Debye):
    X=              0.0020    Y=             -0.0100    Z=              0.0013  Tot=              0.0103
 Quadrupole moment (field-independent basis, Debye-Ang):
   XX=            -23.2508   YY=            -23.2030   ZZ=            -29.2414
   XY=              0.2538   XZ=              0.1428   YZ=             -0.0349

 1\1\GINC-NODE19\SP\RB2PLYPD3-FC\def2QZVP\C4H6\BOITTIER\26-Aug-2020\0\\
 #p B2PLYPD3/Def2QZVP\\butadiene\\0,1\C,0,-3.845541,0.218009,-0.00697\C
 ,0,-2.719928,-0.488937,0.057422\C,0,-1.38184,0.078333,0.043419\C,0,-0.
 259698,-0.659048,0.009466\H,0,-4.817562,-0.255584,0.008731\H,0,-3.8520
 69,1.269955,-0.005723\H,0,-2.780581,-1.55856,0.082834\H,0,-1.335753,1.
 149938,0.002059\H,0,-0.297591,-1.748642,0.077451\H,0,0.748815,-0.23798
 2,-0.066059\\Version=ES64L-G09RevD.01\State=1-A\HF=-155.70014\MP2=-155
 .9257106\RMSD=4.109e-09\PG=C01 [X(C4H6)]\\@

 Normal termination of Gaussian 09 at Wed Aug 26 21:47:58 2020.
