 Gaussian 09, Revision D.01,
 Gaussian 09:  ES64L-G09RevD.01 24-Apr-2013

 --------------------
 #p B2PLYPD3/Def2QZVP
 --------------------

 ---------
 butadiene
 ---------
 Symbolic Z-matrix:
 Charge =  0 Multiplicity = 1

                         Standard orientation:
 ---------------------------------------------------------------------
 Center     Atomic      Atomic             Coordinates (Angstroms)
 Number     Number       Type             X           Y           Z
 ---------------------------------------------------------------------
      1          6           0        1.882319   -0.125282    0.062041
      2          6           0        0.616532    0.433398   -0.093811
      3          6           0       -0.621736   -0.372478   -0.084739
      4          6           0       -1.881141    0.072582    0.037430
      5          1           0        2.716420    0.488208    0.207531
      6          1           0        2.061575   -1.231110    0.021538
      7          1           0        0.401998    1.534390   -0.133063
      8          1           0       -0.393471   -1.442530    0.019707
      9          1           0       -1.985748    1.188073    0.255325
     10          1           0       -2.776618   -0.586355    0.103433
 ---------------------------------------------------------------------

 SCF Done:  E(RB2PLYPD3) =  -155.682014078     A.U. after   11 cycles
 E2(B2PLYPD3) =    -0.2285767644D+00 E(B2PLYPD3) =    -0.15591059084275D+03

 The electronic state is 1-A.
 Alpha  occ. eigenvalues --  -10.64353 -10.63043 -10.62924 -10.62764  -0.91993
 Alpha  occ. eigenvalues --   -0.84016  -0.70290  -0.63058  -0.54496  -0.52378
 Alpha  occ. eigenvalues --   -0.47064  -0.45474  -0.40482  -0.37237  -0.27331
 Alpha virt. eigenvalues --    0.00733   0.06924   0.07087   0.08072   0.08984
 Alpha virt. eigenvalues --    0.11514   0.12300   0.14268   0.15358   0.16329
 Alpha virt. eigenvalues --    0.19018   0.19849   0.21096   0.22946   0.23188

 Mulliken charges:
               1
     1  C   -0.178728
     2  C   -0.048580
     3  C   -0.014828
     4  C   -0.174165
     5  H    0.093917
     6  H    0.072887
     7  H    0.051665
     8  H    0.049122
     9  H    0.054866
    10  H    0.093845
 Sum of Mulliken charges =   0.00000

 Dipole moment (field-independent basis, Debye):
    X=              0.1047    Y=             -0.0512    Z=              0.3174  Tot=              0.3381
 Quadrupole moment (field-independent basis, Debye-Ang):
   XX=            -23.4258   YY=            -23.4367   ZZ=            -29.5881
   XY=             -0.1508   XZ=             -0.1692   YZ=              0.1536

 1\1\GINC-NODE39\SP\RB2PLYPD3-FC\def2QZVP\C4H6\BOITTIER\26-Aug-2020\0\\
 #p B2PLYPD3/Def2QZVP\\butadiene\\0,1\C,0,-3.880131,0.253167,0.084845\C
 ,0,-2.737443,-0.530666,-0.051175\C,0,-1.373099,0.036194,-0.058869\C,0,
 -0.215689,-0.627305,0.079973\H,0,-4.81186,-0.194028,0.24346\H,0,-3.855
 02,1.371647,0.014143\H,0,-2.727072,-1.652967,-0.060193\H,0,-1.402535,1
 .132342,0.016093\H,0,-0.315767,-1.736909,0.327973\H,0,0.784897,-0.1409
 16,0.131796\\Version=ES64L-G09RevD.01\State=1-A\HF=-155.6820141\MP2=-1
 55.9105908\RMSD=8.872e-09\PG=C01 [X(C4H6)]\\@

 Normal termination of Gaussian 09 at Wed Aug 26 14:54:33 2020.
