 Gaussian 09, Revision D.01,
 Gaussian 09:  ES64L-G09RevD.01 24-Apr-2013

 --------------------
 #p B2PLYPD3/Def2QZVP
 --------------------

 ---------
 butadiene
 ---------
 Symbolic Z-matrix:
 Charge =  0 Multiplicity = 1

                         Standard orientation:
 ---------------------------------------------------------------------
 Center     Atomic      Atomic             Coordinates (Angstroms)
 Number     Number       Type             X           Y           Z
 ---------------------------------------------------------------------
      1          6           0        1.835503   -0.106609    0.036479
      2          6           0        0.590772    0.422198   -0.057542
      3          6           0       -0.603244   -0.425465   -0.023535
      4          6           0       -1.824010    0.103907    0.010099
      5          1           0        2.713986    0.485793    0.131316
      6          1           0        2.032677   -1.154947   -0.010755
      7          1           0        0.437237    1.480822   -0.049697
      8          1           0       -0.450594   -1.483872   -0.067358
      9          1           0       -1.964759    1.182951    0.058382
     10          1           0       -2.762671   -0.474930    0.145103
 ---------------------------------------------------------------------

 SCF Done:  E(RB2PLYPD3) =  -155.697148428     A.U. after   11 cycles
 E2(B2PLYPD3) =    -0.2260584390D+00 E(B2PLYPD3) =    -0.15592320686741D+03

 The electronic state is 1-A.
 Alpha  occ. eigenvalues --  -10.62855 -10.62510 -10.61758 -10.61431  -0.92867
 Alpha  occ. eigenvalues --   -0.84533  -0.70079  -0.64770  -0.54682  -0.53621
 Alpha  occ. eigenvalues --   -0.46906  -0.45477  -0.41343  -0.37876  -0.27473
 Alpha virt. eigenvalues --    0.01715   0.07024   0.07416   0.08172   0.09098
 Alpha virt. eigenvalues --    0.11632   0.12670   0.14577   0.15824   0.16372
 Alpha virt. eigenvalues --    0.18818   0.20295   0.22056   0.23264   0.23414

 Mulliken charges:
               1
     1  C   -0.176619
     2  C   -0.038888
     3  C   -0.031234
     4  C   -0.166879
     5  H    0.080877
     6  H    0.066312
     7  H    0.064364
     8  H    0.064748
     9  H    0.059175
    10  H    0.078145
 Sum of Mulliken charges =   0.00000

 Dipole moment (field-independent basis, Debye):
    X=              0.0271    Y=             -0.0089    Z=              0.1303  Tot=              0.1334
 Quadrupole moment (field-independent basis, Debye-Ang):
   XX=            -23.4524   YY=            -23.1096   ZZ=            -29.2736
   XY=             -0.3832   XZ=             -0.1529   YZ=              0.1200

 1\1\GINC-NODE35\SP\RB2PLYPD3-FC\def2QZVP\C4H6\BOITTIER\26-Aug-2020\0\\
 #p B2PLYPD3/Def2QZVP\\butadiene\\0,1\C,0,-3.836715,0.228613,0.054598\C
 ,0,-2.711035,-0.523569,-0.015385\C,0,-1.381186,0.090286,-0.008635\C,0,
 -0.278733,-0.653303,0.048885\H,0,-4.808973,-0.187879,0.168248\H,0,-3.8
 37541,1.292847,-0.032158\H,0,-2.75513,-1.591327,0.032238\H,0,-1.336383
 ,1.156333,-0.0922\H,0,-0.33902,-1.737262,0.13763\H,0,0.75095,-0.252697
 ,0.165631\\Version=ES64L-G09RevD.01\State=1-A\HF=-155.6971484\MP2=-155
 .9232069\RMSD=6.637e-09\PG=C01 [X(C4H6)]\\@

 Normal termination of Gaussian 09 at Wed Aug 26 09:56:26 2020.
