 Gaussian 09, Revision D.01,
 Gaussian 09:  ES64L-G09RevD.01 24-Apr-2013

 --------------------
 #p B2PLYPD3/Def2QZVP
 --------------------

 ---------
 butadiene
 ---------
 Symbolic Z-matrix:
 Charge =  0 Multiplicity = 1

                         Standard orientation:
 ---------------------------------------------------------------------
 Center     Atomic      Atomic             Coordinates (Angstroms)
 Number     Number       Type             X           Y           Z
 ---------------------------------------------------------------------
      1          6           0        1.840047   -0.113547   -0.005243
      2          6           0        0.612727    0.403212    0.015867
      3          6           0       -0.608404   -0.383166    0.006921
      4          6           0       -1.847650    0.104427   -0.018982
      5          1           0        2.769327    0.465211   -0.049212
      6          1           0        1.962190   -1.188351   -0.073158
      7          1           0        0.506040    1.497973    0.096213
      8          1           0       -0.480556   -1.441542    0.084865
      9          1           0       -2.046076    1.148054   -0.075149
     10          1           0       -2.691241   -0.546909    0.025065
 ---------------------------------------------------------------------

 SCF Done:  E(RB2PLYPD3) =  -155.700082793     A.U. after   11 cycles
 E2(B2PLYPD3) =    -0.2254446708D+00 E(B2PLYPD3) =    -0.15592552746356D+03

 The electronic state is 1-A.
 Alpha  occ. eigenvalues --  -10.62698 -10.62319 -10.61686 -10.61123  -0.93039
 Alpha  occ. eigenvalues --   -0.85106  -0.70336  -0.64120  -0.54766  -0.54079
 Alpha  occ. eigenvalues --   -0.47008  -0.45489  -0.41025  -0.38089  -0.27817
 Alpha virt. eigenvalues --    0.01713   0.07022   0.07509   0.08020   0.09694
 Alpha virt. eigenvalues --    0.11631   0.12539   0.14686   0.15815   0.16246
 Alpha virt. eigenvalues --    0.18858   0.20375   0.21765   0.22668   0.23727

 Mulliken charges:
               1
     1  C   -0.169540
     2  C   -0.031170
     3  C   -0.030579
     4  C   -0.177677
     5  H    0.086012
     6  H    0.059273
     7  H    0.052955
     8  H    0.056278
     9  H    0.068482
    10  H    0.085966
 Sum of Mulliken charges =   0.00000

 Dipole moment (field-independent basis, Debye):
    X=              0.0063    Y=             -0.0062    Z=              0.0156  Tot=              0.0179
 Quadrupole moment (field-independent basis, Debye-Ang):
   XX=            -23.2144   YY=            -23.2610   ZZ=            -29.1944
   XY=             -0.1013   XZ=             -0.2182   YZ=             -0.0389

 1\1\GINC-NODE33\SP\RB2PLYPD3-FC\def2QZVP\C4H6\BOITTIER\26-Aug-2020\0\\
 #p B2PLYPD3/Def2QZVP\\butadiene\\0,1\C,0,-3.842839,0.22467,0.010642\C,
 0,-2.72691,-0.501177,0.051242\C,0,-1.385442,0.054967,0.023005\C,0,-0.2
 52685,-0.645717,0.015786\H,0,-4.860299,-0.180719,-0.01921\H,0,-3.77207
 7,1.301551,-0.089634\H,0,-2.816406,-1.594569,0.164485\H,0,-1.322925,1.
 121061,0.068993\H,0,-0.243082,-1.7092,-0.008636\H,0,0.693355,-0.153703
 ,0.043268\\Version=ES64L-G09RevD.01\State=1-A\HF=-155.7000828\MP2=-155
 .9255275\RMSD=4.181e-09\PG=C01 [X(C4H6)]\\@

 Normal termination of Gaussian 09 at Wed Aug 26 11:51:47 2020.
