 Gaussian 09, Revision D.01,
 Gaussian 09:  ES64L-G09RevD.01 24-Apr-2013

 --------------------
 #p B2PLYPD3/Def2QZVP
 --------------------

 ---------
 butadiene
 ---------
 Symbolic Z-matrix:
 Charge =  0 Multiplicity = 1

                         Standard orientation:
 ---------------------------------------------------------------------
 Center     Atomic      Atomic             Coordinates (Angstroms)
 Number     Number       Type             X           Y           Z
 ---------------------------------------------------------------------
      1          6           0        1.815561    0.078453    0.031369
      2          6           0        0.558169   -0.359383   -0.075727
      3          6           0       -0.591657    0.454155   -0.099938
      4          6           0       -1.789056   -0.143381    0.057688
      5          1           0        2.585136   -0.557086    0.146241
      6          1           0        2.063130    1.132661    0.184999
      7          1           0        0.563209   -1.452544    0.020092
      8          1           0       -0.543264    1.500023   -0.053381
      9          1           0       -1.888234   -1.221241   -0.019607
     10          1           0       -2.738081    0.419125    0.241300
 ---------------------------------------------------------------------

 SCF Done:  E(RB2PLYPD3) =  -155.684432614     A.U. after   12 cycles
 E2(B2PLYPD3) =    -0.2263337725D+00 E(B2PLYPD3) =    -0.15591076638605D+03

 The electronic state is 1-A.
 Alpha  occ. eigenvalues --  -10.62304 -10.62168 -10.62111 -10.60197  -0.93843
 Alpha  occ. eigenvalues --   -0.84958  -0.70446  -0.64613  -0.54878  -0.54842
 Alpha  occ. eigenvalues --   -0.46564  -0.44283  -0.42142  -0.38539  -0.27068
 Alpha virt. eigenvalues --    0.01456   0.07098   0.07520   0.07947   0.09400
 Alpha virt. eigenvalues --    0.11653   0.12624   0.14703   0.15894   0.16725
 Alpha virt. eigenvalues --    0.18700   0.19702   0.21904   0.22529   0.24860

 Mulliken charges:
               1
     1  C   -0.177858
     2  C   -0.017253
     3  C   -0.041427
     4  C   -0.166608
     5  H    0.080582
     6  H    0.051122
     7  H    0.050276
     8  H    0.074990
     9  H    0.071802
    10  H    0.074375
 Sum of Mulliken charges =   0.00000

 Dipole moment (field-independent basis, Debye):
    X=             -0.1268    Y=             -0.0164    Z=              0.3515  Tot=              0.3740
 Quadrupole moment (field-independent basis, Debye-Ang):
   XX=            -23.8110   YY=            -23.0252   ZZ=            -29.0566
   XY=             -0.1635   XZ=              0.1791   YZ=              0.1452

 1\1\GINC-NODE20\SP\RB2PLYPD3-FC\def2QZVP\C4H6\BOITTIER\26-Aug-2020\0\\
 #p B2PLYPD3/Def2QZVP\\butadiene\\0,1\C,0,-3.824935,0.188928,-0.02541\C
 ,0,-2.668168,-0.467447,0.098159\C,0,-1.389407,0.123529,0.105052\C,0,-0
 .320998,-0.68603,-0.031972\H,0,-4.69749,-0.298755,-0.126225\H,0,-3.876
 58,1.266059,-0.208078\H,0,-2.872274,-1.543602,0.031539\H,0,-1.246608,1
 .15909,0.030405\H,0,-0.419653,-1.761453,0.074451\H,0,0.714384,-0.31084
 5,-0.226894\\Version=ES64L-G09RevD.01\State=1-A\HF=-155.6844326\MP2=-1
 55.9107664\RMSD=5.422e-09\PG=C01 [X(C4H6)]\\@

 Normal termination of Gaussian 09 at Wed Aug 26 15:45:16 2020.
