 Gaussian 09, Revision D.01,
 Gaussian 09:  ES64L-G09RevD.01 24-Apr-2013

 --------------------
 #p B2PLYPD3/Def2QZVP
 --------------------

 ---------
 butadiene
 ---------
 Symbolic Z-matrix:
 Charge =  0 Multiplicity = 1

                         Standard orientation:
 ---------------------------------------------------------------------
 Center     Atomic      Atomic             Coordinates (Angstroms)
 Number     Number       Type             X           Y           Z
 ---------------------------------------------------------------------
      1          6           0       -1.836897    0.111670   -0.021844
      2          6           0       -0.609755   -0.418654    0.027206
      3          6           0        0.602360    0.391743    0.004017
      4          6           0        1.837246   -0.104136   -0.007276
      5          1           0       -2.725678   -0.494439   -0.046370
      6          1           0       -1.925912    1.221792    0.056305
      7          1           0       -0.463371   -1.489337   -0.003228
      8          1           0        0.425080    1.482262    0.014015
      9          1           0        2.045128   -1.151932    0.017677
     10          1           0        2.687035    0.547910   -0.051015
 ---------------------------------------------------------------------

 SCF Done:  E(RB2PLYPD3) =  -155.699383508     A.U. after   11 cycles
 E2(B2PLYPD3) =    -0.2258497379D+00 E(B2PLYPD3) =    -0.15592523324557D+03

 The electronic state is 1-A.
 Alpha  occ. eigenvalues --  -10.62687 -10.62494 -10.61878 -10.61199  -0.92953
 Alpha  occ. eigenvalues --   -0.84905  -0.70082  -0.63898  -0.54851  -0.53568
 Alpha  occ. eigenvalues --   -0.46860  -0.45485  -0.41004  -0.38098  -0.27729
 Alpha virt. eigenvalues --    0.01797   0.07022   0.07311   0.08117   0.09502
 Alpha virt. eigenvalues --    0.11707   0.12434   0.14681   0.15780   0.16129
 Alpha virt. eigenvalues --    0.18732   0.20338   0.21596   0.22994   0.23888

 Mulliken charges:
               1
     1  C   -0.174126
     2  C   -0.032038
     3  C   -0.023281
     4  C   -0.179359
     5  H    0.089975
     6  H    0.061051
     7  H    0.054940
     8  H    0.049197
     9  H    0.068262
    10  H    0.085379
 Sum of Mulliken charges =   0.00000

 Dipole moment (field-independent basis, Debye):
    X=              0.0079    Y=             -0.0556    Z=              0.0123  Tot=              0.0574
 Quadrupole moment (field-independent basis, Debye-Ang):
   XX=            -23.5218   YY=            -23.1152   ZZ=            -29.2905
   XY=             -0.1458   XZ=             -0.0546   YZ=              0.0797

 1\1\GINC-NODE06\SP\RB2PLYPD3-FC\def2QZVP\C4H6\BOITTIER\26-Aug-2020\0\\
 #p B2PLYPD3/Def2QZVP\\butadiene\\0,1\C,0,-3.836972,0.229702,-0.002166\
 C,0,-2.726396,-0.513376,0.060942\C,0,-1.387343,0.062599,0.019771\C,0,-
 0.263091,-0.649454,0.021739\H,0,-4.821122,-0.205301,-0.013211\H,0,-3.7
 22647,1.339062,0.049326\H,0,-2.77699,-1.593254,0.056273\H,0,-1.363595,
 1.167104,0.0035\H,0,-0.248875,-1.716689,0.071965\H,0,0.690839,-0.16382
 8,-0.036604\\Version=ES64L-G09RevD.01\State=1-A\HF=-155.6993835\MP2=-1
 55.9252332\RMSD=3.667e-09\PG=C01 [X(C4H6)]\\@

 Normal termination of Gaussian 09 at Wed Aug 26 13:26:52 2020.
