 Gaussian 09, Revision D.01,
 Gaussian 09:  ES64L-G09RevD.01 24-Apr-2013

 --------------------
 #p B2PLYPD3/Def2QZVP
 --------------------

 ---------
 butadiene
 ---------
 Symbolic Z-matrix:
 Charge =  0 Multiplicity = 1

                         Standard orientation:
 ---------------------------------------------------------------------
 Center     Atomic      Atomic             Coordinates (Angstroms)
 Number     Number       Type             X           Y           Z
 ---------------------------------------------------------------------
      1          6           0       -1.835382   -0.123286    0.039750
      2          6           0       -0.618942    0.412342   -0.042470
      3          6           0        0.617662   -0.376355   -0.061939
      4          6           0        1.843427    0.106076    0.031768
      5          1           0       -2.739661    0.459529    0.107479
      6          1           0       -1.945958   -1.204844   -0.007236
      7          1           0       -0.500743    1.539756   -0.065936
      8          1           0        0.475464   -1.458215   -0.006730
      9          1           0        2.049651    1.174068    0.063302
     10          1           0        2.620659   -0.622961    0.106466
 ---------------------------------------------------------------------

 SCF Done:  E(RB2PLYPD3) =  -155.697588780     A.U. after   11 cycles
 E2(B2PLYPD3) =    -0.2256697560D+00 E(B2PLYPD3) =    -0.15592325853604D+03

 The electronic state is 1-A.
 Alpha  occ. eigenvalues --  -10.63055 -10.62393 -10.61541 -10.61209  -0.92873
 Alpha  occ. eigenvalues --   -0.85281  -0.69886  -0.63339  -0.54556  -0.53951
 Alpha  occ. eigenvalues --   -0.46678  -0.45593  -0.40608  -0.38102  -0.27988
 Alpha virt. eigenvalues --    0.01993   0.07024   0.07258   0.08022   0.09638
 Alpha virt. eigenvalues --    0.11665   0.12315   0.14676   0.15696   0.16157
 Alpha virt. eigenvalues --    0.18786   0.20180   0.21414   0.22836   0.24228

 Mulliken charges:
               1
     1  C   -0.172871
     2  C   -0.031023
     3  C   -0.023288
     4  C   -0.178051
     5  H    0.089097
     6  H    0.062505
     7  H    0.045244
     8  H    0.048505
     9  H    0.072931
    10  H    0.086950
 Sum of Mulliken charges =   0.00000

 Dipole moment (field-independent basis, Debye):
    X=             -0.0314    Y=             -0.0163    Z=              0.1101  Tot=              0.1156
 Quadrupole moment (field-independent basis, Debye-Ang):
   XX=            -23.6406   YY=            -23.0557   ZZ=            -29.2571
   XY=              0.0876   XZ=              0.1742   YZ=             -0.0136

 1\1\GINC-NODE19\SP\RB2PLYPD3-FC\def2QZVP\C4H6\BOITTIER\26-Aug-2020\0\\
 #p B2PLYPD3/Def2QZVP\\butadiene\\0,1\C,0,-3.837403,0.231574,-0.023724\
 C,0,-2.73452,-0.507803,0.07803\C,0,-1.377739,0.049594,0.069806\C,0,-0.
 257308,-0.645305,-0.00615\H,0,-4.830955,-0.183883,-0.070951\H,0,-3.754
 5,1.316591,-0.015418\H,0,-2.817618,-1.636792,0.141771\H,0,-1.326513,1.
 136911,-0.024041\H,0,-0.243582,-1.733375,0.000539\H,0,0.636242,-0.0685
 4,-0.106527\\Version=ES64L-G09RevD.01\State=1-A\HF=-155.6975888\MP2=-1
 55.9232585\RMSD=3.580e-09\PG=C01 [X(C4H6)]\\@

 Normal termination of Gaussian 09 at Wed Aug 26 22:15:46 2020.
