 Gaussian 09, Revision D.01,
 Gaussian 09:  ES64L-G09RevD.01 24-Apr-2013

 --------------------
 #p B2PLYPD3/Def2QZVP
 --------------------

 ---------
 butadiene
 ---------
 Symbolic Z-matrix:
 Charge =  0 Multiplicity = 1

                         Standard orientation:
 ---------------------------------------------------------------------
 Center     Atomic      Atomic             Coordinates (Angstroms)
 Number     Number       Type             X           Y           Z
 ---------------------------------------------------------------------
      1          6           0       -1.834385   -0.119434   -0.015506
      2          6           0       -0.606957    0.396557    0.015861
      3          6           0        0.610627   -0.393889    0.004339
      4          6           0        1.846415    0.113467   -0.014578
      5          1           0       -2.698646    0.553526    0.034297
      6          1           0       -2.024884   -1.179941   -0.036730
      7          1           0       -0.536630    1.476904    0.037599
      8          1           0        0.476115   -1.478210    0.017916
      9          1           0        2.001088    1.198892   -0.066625
     10          1           0        2.688752   -0.551376    0.072842
 ---------------------------------------------------------------------

 SCF Done:  E(RB2PLYPD3) =  -155.700167654     A.U. after   11 cycles
 E2(B2PLYPD3) =    -0.2257617357D+00 E(B2PLYPD3) =    -0.15592592938931D+03

 The electronic state is 1-A.
 Alpha  occ. eigenvalues --  -10.62574 -10.62358 -10.61622 -10.61515  -0.92979
 Alpha  occ. eigenvalues --   -0.85006  -0.69939  -0.63907  -0.54427  -0.54010
 Alpha  occ. eigenvalues --   -0.46375  -0.45654  -0.41198  -0.38101  -0.27710
 Alpha virt. eigenvalues --    0.01744   0.06985   0.07410   0.07967   0.09699
 Alpha virt. eigenvalues --    0.11717   0.12270   0.14744   0.15904   0.15993
 Alpha virt. eigenvalues --    0.18787   0.20546   0.21280   0.22603   0.24095

 Mulliken charges:
               1
     1  C   -0.175541
     2  C   -0.026835
     3  C   -0.032908
     4  C   -0.178044
     5  H    0.081221
     6  H    0.067630
     7  H    0.053616
     8  H    0.053120
     9  H    0.068771
    10  H    0.088969
 Sum of Mulliken charges =   0.00000

 Dipole moment (field-independent basis, Debye):
    X=             -0.0245    Y=             -0.0092    Z=              0.0652  Tot=              0.0703
 Quadrupole moment (field-independent basis, Debye-Ang):
   XX=            -23.7051   YY=            -22.9755   ZZ=            -29.2857
   XY=              0.0374   XZ=              0.0578   YZ=             -0.0490

 1\1\GINC-NODE32\SP\RB2PLYPD3-FC\def2QZVP\C4H6\BOITTIER\26-Aug-2020\0\\
 #p B2PLYPD3/Def2QZVP\\butadiene\\0,1\C,0,-3.838043,0.228058,0.032344\C
 ,0,-2.721673,-0.498135,0.019214\C,0,-1.383208,0.063844,0.007425\C,0,-0
 .25687,-0.653752,0.044292\H,0,-4.808117,-0.282216,0.002664\H,0,-3.8374
 29,1.305672,0.019577\H,0,-2.844075,-1.573972,0.031919\H,0,-1.323417,1.
 153857,-0.040799\H,0,-0.296855,-1.747213,0.131032\H,0,0.689616,-0.1519
 02,-0.062956\\Version=ES64L-G09RevD.01\State=1-A\HF=-155.7001677\MP2=-
 155.9259294\RMSD=2.707e-09\PG=C01 [X(C4H6)]\\@

 Normal termination of Gaussian 09 at Wed Aug 26 22:11:11 2020.
