 Gaussian 09, Revision D.01,
 Gaussian 09:  ES64L-G09RevD.01 24-Apr-2013

 --------------------
 #p B2PLYPD3/Def2QZVP
 --------------------

 ---------
 butadiene
 ---------
 Symbolic Z-matrix:
 Charge =  0 Multiplicity = 1

                         Standard orientation:
 ---------------------------------------------------------------------
 Center     Atomic      Atomic             Coordinates (Angstroms)
 Number     Number       Type             X           Y           Z
 ---------------------------------------------------------------------
      1          6           0       -1.852778   -0.092959   -0.001499
      2          6           0       -0.593912    0.379550   -0.034388
      3          6           0        0.612058   -0.423954   -0.005436
      4          6           0        1.849430    0.117293    0.013616
      5          1           0       -2.648277    0.547781    0.009030
      6          1           0       -2.149616   -1.123269    0.154341
      7          1           0       -0.458324    1.477055   -0.017176
      8          1           0        0.470458   -1.492640   -0.052242
      9          1           0        1.948522    1.207311    0.120790
     10          1           0        2.748454   -0.495818   -0.048499
 ---------------------------------------------------------------------

 SCF Done:  E(RB2PLYPD3) =  -155.695030443     A.U. after   11 cycles
 E2(B2PLYPD3) =    -0.2263054918D+00 E(B2PLYPD3) =    -0.15592133593457D+03

 The electronic state is 1-A.
 Alpha  occ. eigenvalues --  -10.62929 -10.62721 -10.62147 -10.60979  -0.92761
 Alpha  occ. eigenvalues --   -0.84721  -0.70708  -0.63934  -0.54980  -0.53604
 Alpha  occ. eigenvalues --   -0.46704  -0.45683  -0.41328  -0.37887  -0.27409
 Alpha virt. eigenvalues --    0.01287   0.07017   0.07412   0.08082   0.09459
 Alpha virt. eigenvalues --    0.11586   0.12450   0.14888   0.15817   0.16195
 Alpha virt. eigenvalues --    0.18850   0.20522   0.21655   0.22593   0.23847

 Mulliken charges:
               1
     1  C   -0.174900
     2  C   -0.027862
     3  C   -0.036026
     4  C   -0.174287
     5  H    0.083451
     6  H    0.062798
     7  H    0.049863
     8  H    0.061317
     9  H    0.066405
    10  H    0.089241
 Sum of Mulliken charges =   0.00000

 Dipole moment (field-independent basis, Debye):
    X=             -0.0092    Y=             -0.0201    Z=              0.1342  Tot=              0.1360
 Quadrupole moment (field-independent basis, Debye-Ang):
   XX=            -23.3107   YY=            -23.1761   ZZ=            -29.3016
   XY=              0.1997   XZ=             -0.3436   YZ=              0.0748

 1\1\GINC-NODE03\SP\RB2PLYPD3-FC\def2QZVP\C4H6\BOITTIER\26-Aug-2020\0\\
 #p B2PLYPD3/Def2QZVP\\butadiene\\0,1\C,0,-3.858858,0.213738,0.012991\C
 ,0,-2.707794,-0.480306,0.062444\C,0,-1.375087,0.087985,0.020537\C,0,-0
 .257725,-0.670898,0.019544\H,0,-4.758221,-0.27064,0.013558\H,0,-3.9619
 93,1.27704,-0.16781\H,0,-2.775439,-1.584185,0.07105\H,0,-1.318636,1.16
 5333,0.042151\H,0,-0.359854,-1.762843,-0.062125\H,0,0.738341,-0.231416
 ,0.071654\\Version=ES64L-G09RevD.01\State=1-A\HF=-155.6950304\MP2=-155
 .9213359\RMSD=6.379e-09\PG=C01 [X(C4H6)]\\@

 Normal termination of Gaussian 09 at Wed Aug 26 09:16:32 2020.
