 Gaussian 09, Revision D.01,
 Gaussian 09:  ES64L-G09RevD.01 24-Apr-2013

 --------------------
 #p B2PLYPD3/Def2QZVP
 --------------------

 ---------
 butadiene
 ---------
 Symbolic Z-matrix:
 Charge =  0 Multiplicity = 1

                         Standard orientation:
 ---------------------------------------------------------------------
 Center     Atomic      Atomic             Coordinates (Angstroms)
 Number     Number       Type             X           Y           Z
 ---------------------------------------------------------------------
      1          6           0        1.835277    0.114872    0.005946
      2          6           0        0.606549   -0.405884   -0.009157
      3          6           0       -0.601708    0.395421   -0.026351
      4          6           0       -1.824528   -0.116236    0.013431
      5          1           0        2.695538   -0.517986    0.009580
      6          1           0        1.947904    1.185168    0.089850
      7          1           0        0.460366   -1.458442   -0.057541
      8          1           0       -0.495069    1.475364   -0.028983
      9          1           0       -2.011122   -1.166551    0.083500
     10          1           0       -2.691153    0.553401    0.000381
 ---------------------------------------------------------------------

 SCF Done:  E(RB2PLYPD3) =  -155.700734982     A.U. after   11 cycles
 E2(B2PLYPD3) =    -0.2252771280D+00 E(B2PLYPD3) =    -0.15592601210972D+03

 The electronic state is 1-A.
 Alpha  occ. eigenvalues --  -10.62221 -10.62129 -10.61281 -10.61261  -0.93224
 Alpha  occ. eigenvalues --   -0.85094  -0.70094  -0.64382  -0.54738  -0.54059
 Alpha  occ. eigenvalues --   -0.46574  -0.45908  -0.41282  -0.38212  -0.27713
 Alpha virt. eigenvalues --    0.01892   0.07017   0.07473   0.08086   0.09632
 Alpha virt. eigenvalues --    0.11783   0.12401   0.14837   0.15788   0.16152
 Alpha virt. eigenvalues --    0.18700   0.20400   0.21620   0.22878   0.24102

 Mulliken charges:
               1
     1  C   -0.178649
     2  C   -0.034176
     3  C   -0.024322
     4  C   -0.178340
     5  H    0.088232
     6  H    0.067420
     7  H    0.057594
     8  H    0.052806
     9  H    0.068081
    10  H    0.081354
 Sum of Mulliken charges =   0.00000

 Dipole moment (field-independent basis, Debye):
    X=             -0.0127    Y=             -0.0276    Z=              0.0719  Tot=              0.0781
 Quadrupole moment (field-independent basis, Debye-Ang):
   XX=            -23.6920   YY=            -22.9906   ZZ=            -29.1765
   XY=              0.0671   XZ=              0.0059   YZ=              0.0488

 1\1\GINC-NODE03\SP\RB2PLYPD3-FC\def2QZVP\C4H6\BOITTIER\26-Aug-2020\0\\
 #p B2PLYPD3/Def2QZVP\\butadiene\\0,1\C,0,-3.835147,0.227519,0.009918\C
 ,0,-2.719544,-0.504194,0.044745\C,0,-1.387218,0.067755,0.037551\C,0,-0
 .27602,-0.655772,0.017209\H,0,-4.794877,-0.240712,0.025722\H,0,-3.7545
 44,1.297294,-0.109837\H,0,-2.764101,-1.563719,0.128473\H,0,-1.298643,1
 .148811,0.003974\H,0,-0.280902,-1.724259,-0.017447\H,0,0.696598,-0.152
 206,0.009602\\Version=ES64L-G09RevD.01\State=1-A\HF=-155.700735\MP2=-1
 55.9260121\RMSD=4.446e-09\PG=C01 [X(C4H6)]\\@

 Normal termination of Gaussian 09 at Wed Aug 26 18:34:52 2020.
