 Gaussian 09, Revision D.01,
 Gaussian 09:  ES64L-G09RevD.01 24-Apr-2013

 --------------------
 #p B2PLYPD3/Def2QZVP
 --------------------

 ---------
 butadiene
 ---------
 Symbolic Z-matrix:
 Charge =  0 Multiplicity = 1

                         Standard orientation:
 ---------------------------------------------------------------------
 Center     Atomic      Atomic             Coordinates (Angstroms)
 Number     Number       Type             X           Y           Z
 ---------------------------------------------------------------------
      1          6           0       -1.855596    0.087579    0.030017
      2          6           0       -0.588020   -0.393082   -0.027548
      3          6           0        0.606524    0.432141   -0.037715
      4          6           0        1.829039   -0.128372    0.012818
      5          1           0       -2.728182   -0.519653    0.085894
      6          1           0       -2.003912    1.140985   -0.012828
      7          1           0       -0.363302   -1.415710   -0.075945
      8          1           0        0.486654    1.510943   -0.030302
      9          1           0        1.929330   -1.214539    0.035301
     10          1           0        2.727732    0.508381    0.132442
 ---------------------------------------------------------------------

 SCF Done:  E(RB2PLYPD3) =  -155.696603238     A.U. after   11 cycles
 E2(B2PLYPD3) =    -0.2264048645D+00 E(B2PLYPD3) =    -0.15592300810295D+03

 The electronic state is 1-A.
 Alpha  occ. eigenvalues --  -10.62673 -10.62446 -10.62113 -10.61438  -0.92971
 Alpha  occ. eigenvalues --   -0.84428  -0.70324  -0.64659  -0.54505  -0.53732
 Alpha  occ. eigenvalues --   -0.46647  -0.45916  -0.41652  -0.37865  -0.27302
 Alpha virt. eigenvalues --    0.01414   0.07004   0.07435   0.08155   0.09280
 Alpha virt. eigenvalues --    0.11712   0.12577   0.14640   0.15843   0.16055
 Alpha virt. eigenvalues --    0.18703   0.20537   0.21503   0.23430   0.23663

 Mulliken charges:
               1
     1  C   -0.182762
     2  C   -0.033381
     3  C   -0.027297
     4  C   -0.177504
     5  H    0.088743
     6  H    0.065734
     7  H    0.058912
     8  H    0.057055
     9  H    0.066213
    10  H    0.084288
 Sum of Mulliken charges =   0.00000

 Dipole moment (field-independent basis, Debye):
    X=              0.0352    Y=              0.0139    Z=              0.0806  Tot=              0.0890
 Quadrupole moment (field-independent basis, Debye-Ang):
   XX=            -23.6038   YY=            -23.0939   ZZ=            -29.3331
   XY=             -0.1711   XZ=              0.2610   YZ=              0.0204

 1\1\GINC-NODE11\SP\RB2PLYPD3-FC\def2QZVP\C4H6\BOITTIER\26-Aug-2020\0\\
 #p B2PLYPD3/Def2QZVP\\butadiene\\0,1\C,0,-3.859687,0.211537,0.047529\C
 ,0,-2.701484,-0.494293,0.009191\C,0,-1.376199,0.097928,-0.021237\C,0,-
 0.276707,-0.674867,0.0507\H,0,-4.828499,-0.223953,0.118317\H,0,-3.8129
 49,1.272521,-0.027469\H,0,-2.667643,-1.541756,-0.007648\H,0,-1.296761,
 1.180186,-0.046655\H,0,-0.376687,-1.75988,0.106147\H,0,0.723483,-0.209
 842,0.154545\\Version=ES64L-G09RevD.01\State=1-A\HF=-155.6966032\MP2=-
 155.9230081\RMSD=4.207e-09\PG=C01 [X(C4H6)]\\@

 Normal termination of Gaussian 09 at Wed Aug 26 09:31:43 2020.
