 Gaussian 09, Revision D.01,
 Gaussian 09:  ES64L-G09RevD.01 24-Apr-2013

 --------------------
 #p B2PLYPD3/Def2QZVP
 --------------------

 ---------
 butadiene
 ---------
 Symbolic Z-matrix:
 Charge =  0 Multiplicity = 1

                         Standard orientation:
 ---------------------------------------------------------------------
 Center     Atomic      Atomic             Coordinates (Angstroms)
 Number     Number       Type             X           Y           Z
 ---------------------------------------------------------------------
      1          6           0        1.816756    0.065483    0.027763
      2          6           0        0.590360   -0.358703   -0.018931
      3          6           0       -0.567900    0.422449   -0.085926
      4          6           0       -1.809199   -0.115417    0.075803
      5          1           0        2.670995   -0.582246   -0.110758
      6          1           0        2.041342    1.128044    0.278827
      7          1           0        0.297491   -1.415986   -0.097322
      8          1           0       -0.483059    1.497583   -0.089305
      9          1           0       -2.010067   -1.128461    0.113434
     10          1           0       -2.696811    0.418198   -0.087133
 ---------------------------------------------------------------------

 SCF Done:  E(RB2PLYPD3) =  -155.684741760     A.U. after   12 cycles
 E2(B2PLYPD3) =    -0.2260052850D+00 E(B2PLYPD3) =    -0.15591074704510D+03

 The electronic state is 1-A.
 Alpha  occ. eigenvalues --  -10.62389 -10.61622 -10.61338 -10.61005  -0.94136
 Alpha  occ. eigenvalues --   -0.85032  -0.71534  -0.64239  -0.55558  -0.53685
 Alpha  occ. eigenvalues --   -0.47221  -0.45595  -0.41107  -0.38389  -0.27362
 Alpha virt. eigenvalues --    0.00997   0.07081   0.07432   0.08142   0.09810
 Alpha virt. eigenvalues --    0.11748   0.12580   0.15113   0.15711   0.16231
 Alpha virt. eigenvalues --    0.18987   0.19887   0.21247   0.23165   0.23664

 Mulliken charges:
               1
     1  C   -0.183754
     2  C   -0.009658
     3  C   -0.032943
     4  C   -0.166229
     5  H    0.087954
     6  H    0.065237
     7  H    0.049102
     8  H    0.058286
     9  H    0.057287
    10  H    0.074718
 Sum of Mulliken charges =   0.00000

 Dipole moment (field-independent basis, Debye):
    X=             -0.0637    Y=             -0.0295    Z=             -0.0639  Tot=              0.0949
 Quadrupole moment (field-independent basis, Debye-Ang):
   XX=            -23.2609   YY=            -23.5061   ZZ=            -28.9199
   XY=              0.5090   XZ=              0.2501   YZ=              0.2521

 1\1\GINC-NODE08\SP\RB2PLYPD3-FC\def2QZVP\C4H6\BOITTIER\26-Aug-2020\0\\
 #p B2PLYPD3/Def2QZVP\\butadiene\\0,1\C,0,-3.818969,0.197629,-0.014297\
 C,0,-2.697516,-0.453027,0.057465\C,0,-1.40989,0.091786,0.095556\C,0,-0
 .296535,-0.682472,-0.035764\H,0,-4.781782,-0.265988,0.148538\H,0,-3.83
 4866,1.27128,-0.31351\H,0,-2.614225,-1.542404,0.184292\H,0,-1.285332,1
 .162111,0.050684\H,0,-0.295377,-1.715888,-0.027279\H,0,0.678053,-0.323
 7,0.107801\\Version=ES64L-G09RevD.01\State=1-A\HF=-155.6847418\MP2=-15
 5.910747\RMSD=5.077e-09\PG=C01 [X(C4H6)]\\@

 Normal termination of Gaussian 09 at Wed Aug 26 13:36:06 2020.
