 Gaussian 09, Revision D.01,
 Gaussian 09:  ES64L-G09RevD.01 24-Apr-2013

 --------------------
 #p B2PLYPD3/Def2QZVP
 --------------------

 ---------
 butadiene
 ---------
 Symbolic Z-matrix:
 Charge =  0 Multiplicity = 1

                         Standard orientation:
 ---------------------------------------------------------------------
 Center     Atomic      Atomic             Coordinates (Angstroms)
 Number     Number       Type             X           Y           Z
 ---------------------------------------------------------------------
      1          6           0        1.843566   -0.117443    0.053020
      2          6           0        0.630703    0.414530   -0.054890
      3          6           0       -0.612169   -0.384151   -0.026618
      4          6           0       -1.866149    0.094744    0.022835
      5          1           0        2.709801    0.486304   -0.072073
      6          1           0        1.958521   -1.226354    0.117516
      7          1           0        0.520204    1.492080   -0.044500
      8          1           0       -0.405871   -1.422934   -0.109189
      9          1           0       -2.024100    1.153307    0.157496
     10          1           0       -2.734259   -0.528483   -0.015332
 ---------------------------------------------------------------------

 SCF Done:  E(RB2PLYPD3) =  -155.697040678     A.U. after   11 cycles
 E2(B2PLYPD3) =    -0.2257517699D+00 E(B2PLYPD3) =    -0.15592279244748D+03

 The electronic state is 1-A.
 Alpha  occ. eigenvalues --  -10.62607 -10.62551 -10.61689 -10.61562  -0.92695
 Alpha  occ. eigenvalues --   -0.85007  -0.70229  -0.64108  -0.54870  -0.53564
 Alpha  occ. eigenvalues --   -0.47273  -0.45699  -0.40862  -0.37691  -0.27898
 Alpha virt. eigenvalues --    0.01639   0.07027   0.07449   0.08168   0.09492
 Alpha virt. eigenvalues --    0.11687   0.12444   0.14601   0.15583   0.16293
 Alpha virt. eigenvalues --    0.18981   0.19865   0.21722   0.22691   0.23791

 Mulliken charges:
               1
     1  C   -0.168456
     2  C   -0.034934
     3  C   -0.033449
     4  C   -0.179671
     5  H    0.089376
     6  H    0.058797
     7  H    0.054968
     8  H    0.056584
     9  H    0.066531
    10  H    0.090254
 Sum of Mulliken charges =   0.00000

 Dipole moment (field-independent basis, Debye):
    X=              0.0332    Y=              0.0199    Z=             -0.0230  Tot=              0.0450
 Quadrupole moment (field-independent basis, Debye-Ang):
   XX=            -23.3589   YY=            -23.2457   ZZ=            -29.2379
   XY=             -0.0893   XZ=             -0.2379   YZ=              0.1080

 1\1\GINC-NODE16\SP\RB2PLYPD3-FC\def2QZVP\C4H6\BOITTIER\26-Aug-2020\0\\
 #p B2PLYPD3/Def2QZVP\\butadiene\\0,1\C,0,-3.845324,0.231083,0.065968\C
 ,0,-2.746722,-0.51165,-0.018283\C,0,-1.3815,0.053647,-0.012763\C,0,-0.
 232655,-0.638681,0.058569\H,0,-4.805439,-0.212922,-0.041558\H,0,-3.760
 968,1.344323,0.091238\H,0,-2.829721,-1.590629,0.030173\H,0,-1.399824,1
 .109014,-0.132399\H,0,-0.265316,-1.70307,0.230753\H,0,0.732422,-0.1815
 82,0.002264\\Version=ES64L-G09RevD.01\State=1-A\HF=-155.6970407\MP2=-1
 55.9227924\RMSD=5.295e-09\PG=C01 [X(C4H6)]\\@

 Normal termination of Gaussian 09 at Wed Aug 26 08:55:52 2020.
