 Gaussian 09, Revision D.01,
 Gaussian 09:  ES64L-G09RevD.01 24-Apr-2013

 --------------------
 #p B2PLYPD3/Def2QZVP
 --------------------

 ---------
 butadiene
 ---------
 Symbolic Z-matrix:
 Charge =  0 Multiplicity = 1

                         Standard orientation:
 ---------------------------------------------------------------------
 Center     Atomic      Atomic             Coordinates (Angstroms)
 Number     Number       Type             X           Y           Z
 ---------------------------------------------------------------------
      1          6           0       -1.817560    0.063658    0.035568
      2          6           0       -0.566587   -0.372891   -0.095192
      3          6           0        0.579710    0.432755   -0.108890
      4          6           0        1.791491   -0.125433    0.055031
      5          1           0       -2.718346   -0.487817    0.298298
      6          1           0       -2.113537    1.087490    0.100065
      7          1           0       -0.251201   -1.423474   -0.110535
      8          1           0        0.517143    1.470474    0.042589
      9          1           0        1.974378   -1.179374    0.160368
     10          1           0        2.669242    0.544165    0.190108
 ---------------------------------------------------------------------

 SCF Done:  E(RB2PLYPD3) =  -155.684572577     A.U. after   11 cycles
 E2(B2PLYPD3) =    -0.2266166148D+00 E(B2PLYPD3) =    -0.15591118919143D+03

 The electronic state is 1-A.
 Alpha  occ. eigenvalues --  -10.62466 -10.62005 -10.61792 -10.61355  -0.94140
 Alpha  occ. eigenvalues --   -0.84577  -0.70970  -0.64919  -0.55830  -0.53289
 Alpha  occ. eigenvalues --   -0.46577  -0.45208  -0.40890  -0.38814  -0.27219
 Alpha virt. eigenvalues --    0.01215   0.07011   0.07395   0.08097   0.09448
 Alpha virt. eigenvalues --    0.11668   0.12690   0.14920   0.15468   0.16536
 Alpha virt. eigenvalues --    0.18937   0.19577   0.22569   0.22672   0.23633

 Mulliken charges:
               1
     1  C   -0.165959
     2  C   -0.023075
     3  C   -0.022634
     4  C   -0.173903
     5  H    0.071873
     6  H    0.055795
     7  H    0.051784
     8  H    0.066362
     9  H    0.067347
    10  H    0.072409
 Sum of Mulliken charges =   0.00000

 Dipole moment (field-independent basis, Debye):
    X=              0.0945    Y=              0.0748    Z=              0.4723  Tot=              0.4875
 Quadrupole moment (field-independent basis, Debye-Ang):
   XX=            -23.5113   YY=            -23.4597   ZZ=            -28.9820
   XY=             -0.6966   XZ=             -0.1697   YZ=              0.0605

 1\1\GINC-NODE18\SP\RB2PLYPD3-FC\def2QZVP\C4H6\BOITTIER\26-Aug-2020\0\\
 #p B2PLYPD3/Def2QZVP\\butadiene\\0,1\C,0,-3.821042,0.20324,0.071283\C,
 0,-2.679871,-0.472434,-0.04619\C,0,-1.398703,0.0936,-0.084461\C,0,-0.3
 17904,-0.684893,0.096315\H,0,-4.810407,-0.154024,0.350722\H,0,-3.91152
 8,1.266582,0.1046\H,0,-2.575265,-1.564317,-0.029563\H,0,-1.257028,1.12
 7665,0.035364\H,0,-0.343189,-1.750645,0.233675\H,0,0.674256,-0.195462,
 0.210904\\Version=ES64L-G09RevD.01\State=1-A\HF=-155.6845726\MP2=-155.
 9111892\RMSD=8.047e-09\PG=C01 [X(C4H6)]\\@

 Normal termination of Gaussian 09 at Wed Aug 26 16:02:35 2020.
