 Gaussian 09, Revision D.01,
 Gaussian 09:  ES64L-G09RevD.01 24-Apr-2013

 --------------------
 #p B2PLYPD3/Def2QZVP
 --------------------

 ---------
 butadiene
 ---------
 Symbolic Z-matrix:
 Charge =  0 Multiplicity = 1

                         Standard orientation:
 ---------------------------------------------------------------------
 Center     Atomic      Atomic             Coordinates (Angstroms)
 Number     Number       Type             X           Y           Z
 ---------------------------------------------------------------------
      1          6           0        1.851025    0.109970   -0.004784
      2          6           0        0.617715   -0.409940   -0.031515
      3          6           0       -0.641560    0.353446   -0.115516
      4          6           0       -1.850919   -0.092608    0.048196
      5          1           0        2.831292   -0.393264    0.236993
      6          1           0        1.833822    1.254314    0.124109
      7          1           0        0.516997   -1.505975   -0.031386
      8          1           0       -0.428346    1.466375    0.043994
      9          1           0       -2.019734   -1.172179    0.069448
     10          1           0       -2.591605    0.585521    0.178554
 ---------------------------------------------------------------------

 SCF Done:  E(RB2PLYPD3) =  -155.678444062     A.U. after   11 cycles
 E2(B2PLYPD3) =    -0.2266841214D+00 E(B2PLYPD3) =    -0.15590512818318D+03

 The electronic state is 1-A.
 Alpha  occ. eigenvalues --  -10.63147 -10.62828 -10.62799 -10.60809  -0.93097
 Alpha  occ. eigenvalues --   -0.85617  -0.69791  -0.62853  -0.55326  -0.53396
 Alpha  occ. eigenvalues --   -0.47700  -0.43989  -0.39692  -0.38280  -0.28459
 Alpha virt. eigenvalues --    0.01702   0.06983   0.07183   0.07975   0.09443
 Alpha virt. eigenvalues --    0.11535   0.12533   0.14171   0.15352   0.16549
 Alpha virt. eigenvalues --    0.18903   0.19294   0.21579   0.22974   0.23321

 Mulliken charges:
               1
     1  C   -0.156196
     2  C   -0.032673
     3  C   -0.010993
     4  C   -0.173220
     5  H    0.088068
     6  H    0.040407
     7  H    0.044535
     8  H    0.033306
     9  H    0.070801
    10  H    0.095967
 Sum of Mulliken charges =   0.00000

 Dipole moment (field-independent basis, Debye):
    X=             -0.1427    Y=             -0.1033    Z=              0.4760  Tot=              0.5075
 Quadrupole moment (field-independent basis, Debye-Ang):
   XX=            -23.4180   YY=            -23.6567   ZZ=            -29.1554
   XY=             -0.1993   XZ=              0.2345   YZ=              0.2336

 1\1\GINC-NODE17\SP\RB2PLYPD3-FC\def2QZVP\C4H6\BOITTIER\26-Aug-2020\0\\
 #p B2PLYPD3/Def2QZVP\\butadiene\\0,1\C,0,-3.857559,0.220078,0.002136\C
 ,0,-2.73389,-0.504848,0.064783\C,0,-1.360203,0.030388,0.11055\C,0,-0.2
 48243,-0.628757,-0.021309\H,0,-4.911942,-0.117295,-0.214842\H,0,-3.641
 441,1.33444,-0.192603\H,0,-2.826158,-1.599775,0.12849\H,0,-1.376609,1.
 152352,-0.114042\H,0,-0.2707,-1.720616,0.020685\H,0,0.598788,-0.099115
 ,-0.187096\\Version=ES64L-G09RevD.01\State=1-A\HF=-155.6784441\MP2=-15
 5.9051282\RMSD=6.384e-09\PG=C01 [X(C4H6)]\\@

 Normal termination of Gaussian 09 at Wed Aug 26 11:50:32 2020.
