 Gaussian 09, Revision D.01,
 Gaussian 09:  ES64L-G09RevD.01 24-Apr-2013

 --------------------
 #p B2PLYPD3/Def2QZVP
 --------------------

 ---------
 butadiene
 ---------
 Symbolic Z-matrix:
 Charge =  0 Multiplicity = 1

                         Standard orientation:
 ---------------------------------------------------------------------
 Center     Atomic      Atomic             Coordinates (Angstroms)
 Number     Number       Type             X           Y           Z
 ---------------------------------------------------------------------
      1          6           0       -1.803586    0.083659    0.007289
      2          6           0       -0.578920   -0.388011   -0.054610
      3          6           0        0.590991    0.383162   -0.028320
      4          6           0        1.807231   -0.102422   -0.002197
      5          1           0       -2.717596   -0.390222    0.206218
      6          1           0       -1.957332    1.138743   -0.101474
      7          1           0       -0.467686   -1.457607    0.043590
      8          1           0        0.444999    1.489106    0.176623
      9          1           0        1.955892   -1.190895    0.085458
     10          1           0        2.647423    0.552544    0.056615
 ---------------------------------------------------------------------

 SCF Done:  E(RB2PLYPD3) =  -155.688743790     A.U. after   11 cycles
 E2(B2PLYPD3) =    -0.2252507056D+00 E(B2PLYPD3) =    -0.15591399449529D+03

 The electronic state is 1-A.
 Alpha  occ. eigenvalues --  -10.62135 -10.61689 -10.61173 -10.60683  -0.94286
 Alpha  occ. eigenvalues --   -0.85590  -0.70926  -0.63690  -0.55896  -0.53966
 Alpha  occ. eigenvalues --   -0.47446  -0.44763  -0.41000  -0.38562  -0.27766
 Alpha virt. eigenvalues --    0.01725   0.07137   0.07285   0.08039   0.09875
 Alpha virt. eigenvalues --    0.11728   0.12780   0.14680   0.15409   0.16732
 Alpha virt. eigenvalues --    0.18722   0.19672   0.22048   0.23287   0.23833

 Mulliken charges:
               1
     1  C   -0.169396
     2  C   -0.014858
     3  C   -0.022110
     4  C   -0.176214
     5  H    0.084262
     6  H    0.050655
     7  H    0.048218
     8  H    0.047180
     9  H    0.064101
    10  H    0.088162
 Sum of Mulliken charges =   0.00000

 Dipole moment (field-independent basis, Debye):
    X=             -0.0571    Y=              0.0064    Z=              0.3687  Tot=              0.3732
 Quadrupole moment (field-independent basis, Debye-Ang):
   XX=            -23.2356   YY=            -23.5491   ZZ=            -28.8500
   XY=             -0.1015   XZ=             -0.0756   YZ=             -0.1326

 1\1\GINC-NODE34\SP\RB2PLYPD3-FC\def2QZVP\C4H6\BOITTIER\26-Aug-2020\0\\
 #p B2PLYPD3/Def2QZVP\\butadiene\\0,1\C,0,-3.809881,0.207025,0.035409\C
 ,0,-2.695047,-0.486749,-0.008548\C,0,-1.40166,0.052911,-0.005696\C,0,-
 0.297315,-0.650054,0.038767\H,0,-4.795394,-0.081086,0.248261\H,0,-3.76
 4484,1.268098,-0.10858\H,0,-2.784963,-1.554483,0.125287\H,0,-1.337779,
 1.172806,0.162175\H,0,-0.354032,-1.743656,0.162758\H,0,0.650603,-0.161
 871,0.07737\\Version=ES64L-G09RevD.01\State=1-A\HF=-155.6887438\MP2=-1
 55.9139945\RMSD=3.516e-09\PG=C01 [X(C4H6)]\\@

 Normal termination of Gaussian 09 at Wed Aug 26 12:26:33 2020.
