 Gaussian 09, Revision D.01,
 Gaussian 09:  ES64L-G09RevD.01 24-Apr-2013

 --------------------
 #p B2PLYPD3/Def2QZVP
 --------------------

 ---------
 butadiene
 ---------
 Symbolic Z-matrix:
 Charge =  0 Multiplicity = 1

                         Standard orientation:
 ---------------------------------------------------------------------
 Center     Atomic      Atomic             Coordinates (Angstroms)
 Number     Number       Type             X           Y           Z
 ---------------------------------------------------------------------
      1          6           0       -1.858287   -0.105524   -0.035556
      2          6           0       -0.601801    0.390200    0.048832
      3          6           0        0.619016   -0.357504    0.030821
      4          6           0        1.847620    0.108140   -0.074919
      5          1           0       -2.772374    0.438243   -0.013400
      6          1           0       -2.029990   -1.168912   -0.131168
      7          1           0       -0.517893    1.546646    0.180828
      8          1           0        0.412767   -1.414155    0.076173
      9          1           0        2.237213    1.087420   -0.162532
     10          1           0        2.630988   -0.701113    0.235028
 ---------------------------------------------------------------------

 SCF Done:  E(RB2PLYPD3) =  -155.680436420     A.U. after   11 cycles
 E2(B2PLYPD3) =    -0.2269601559D+00 E(B2PLYPD3) =    -0.15590739657586D+03

 The electronic state is 1-A.
 Alpha  occ. eigenvalues --  -10.63466 -10.62511 -10.62145 -10.61868  -0.93152
 Alpha  occ. eigenvalues --   -0.84897  -0.70938  -0.63495  -0.54819  -0.53789
 Alpha  occ. eigenvalues --   -0.47826  -0.44286  -0.39793  -0.37972  -0.27747
 Alpha virt. eigenvalues --    0.00945   0.06802   0.07405   0.07760   0.09930
 Alpha virt. eigenvalues --    0.11274   0.12441   0.15040   0.15656   0.16114
 Alpha virt. eigenvalues --    0.19024   0.19661   0.21820   0.22285   0.23213

 Mulliken charges:
               1
     1  C   -0.170489
     2  C   -0.030643
     3  C   -0.022508
     4  C   -0.166724
     5  H    0.089905
     6  H    0.052521
     7  H    0.041246
     8  H    0.062659
     9  H    0.081676
    10  H    0.062357
 Sum of Mulliken charges =   0.00000

 Dipole moment (field-independent basis, Debye):
    X=             -0.1198    Y=              0.0123    Z=              0.1674  Tot=              0.2062
 Quadrupole moment (field-independent basis, Debye-Ang):
   XX=            -23.3335   YY=            -23.5215   ZZ=            -29.2022
   XY=              0.7329   XZ=              0.4769   YZ=             -0.1533

 1\1\GINC-NODE18\SP\RB2PLYPD3-FC\def2QZVP\C4H6\BOITTIER\26-Aug-2020\0\\
 #p B2PLYPD3/Def2QZVP\\butadiene\\0,1\C,0,-3.859782,0.233168,0.056256\C
 ,0,-2.715864,-0.486554,-0.014961\C,0,-1.378784,0.025233,-0.023383\C,0,
 -0.255269,-0.653945,0.094532\H,0,-4.858049,-0.134505,0.053384\H,0,-3.8
 33338,1.312459,0.118295\H,0,-2.845928,-1.64234,-0.110213\H,0,-1.388651
 ,1.099867,-0.101947\H,0,-0.050671,-1.684806,0.212481\H,0,0.660413,-0.0
 11749,-0.242712\\Version=ES64L-G09RevD.01\State=1-A\HF=-155.6804364\MP
 2=-155.9073966\RMSD=7.650e-09\PG=C01 [X(C4H6)]\\@

 Normal termination of Gaussian 09 at Wed Aug 26 11:59:10 2020.
