 Gaussian 09, Revision D.01,
 Gaussian 09:  ES64L-G09RevD.01 24-Apr-2013

 --------------------
 #p B2PLYPD3/Def2QZVP
 --------------------

 ---------
 butadiene
 ---------
 Symbolic Z-matrix:
 Charge =  0 Multiplicity = 1

                         Standard orientation:
 ---------------------------------------------------------------------
 Center     Atomic      Atomic             Coordinates (Angstroms)
 Number     Number       Type             X           Y           Z
 ---------------------------------------------------------------------
      1          6           0       -1.832597   -0.129533    0.018027
      2          6           0       -0.599731    0.414124   -0.023525
      3          6           0        0.600074   -0.377344   -0.028439
      4          6           0        1.834943    0.095915    0.018956
      5          1           0       -2.703716    0.493678    0.068919
      6          1           0       -2.005080   -1.182469    0.016395
      7          1           0       -0.509249    1.516177   -0.022233
      8          1           0        0.489366   -1.445239   -0.060057
      9          1           0        2.004565    1.151623   -0.013227
     10          1           0        2.707979   -0.552742    0.100092
 ---------------------------------------------------------------------

 SCF Done:  E(RB2PLYPD3) =  -155.699797416     A.U. after   11 cycles
 E2(B2PLYPD3) =    -0.2256238778D+00 E(B2PLYPD3) =    -0.15592542129362D+03

 The electronic state is 1-A.
 Alpha  occ. eigenvalues --  -10.62874 -10.62009 -10.61463 -10.61171  -0.93217
 Alpha  occ. eigenvalues --   -0.84979  -0.70374  -0.64141  -0.54603  -0.54322
 Alpha  occ. eigenvalues --   -0.46470  -0.45643  -0.41451  -0.38230  -0.27541
 Alpha virt. eigenvalues --    0.01637   0.07015   0.07463   0.08001   0.09729
 Alpha virt. eigenvalues --    0.11683   0.12474   0.14784   0.15904   0.16216
 Alpha virt. eigenvalues --    0.18787   0.20514   0.21678   0.22756   0.23873

 Mulliken charges:
               1
     1  C   -0.176771
     2  C   -0.035427
     3  C   -0.021380
     4  C   -0.176890
     5  H    0.083973
     6  H    0.069523
     7  H    0.053358
     8  H    0.054576
     9  H    0.063814
    10  H    0.085225
 Sum of Mulliken charges =   0.00000

 Dipole moment (field-independent basis, Debye):
    X=             -0.0323    Y=             -0.0192    Z=              0.0447  Tot=              0.0584
 Quadrupole moment (field-independent basis, Debye-Ang):
   XX=            -23.4597   YY=            -23.0835   ZZ=            -29.2124
   XY=              0.0845   XZ=              0.0138   YZ=             -0.0221

 1\1\GINC-NODE13\SP\RB2PLYPD3-FC\def2QZVP\C4H6\BOITTIER\26-Aug-2020\0\\
 #p B2PLYPD3/Def2QZVP\\butadiene\\0,1\C,0,-3.832018,0.240344,-0.002089\
 C,0,-2.716411,-0.513942,0.05891\C,0,-1.394159,0.049345,0.040583\C,0,-0
 .264323,-0.638901,0.010435\H,0,-4.800936,-0.217886,-0.034531\H,0,-3.81
 2963,1.306656,-0.034389\H,0,-2.824941,-1.613837,0.092978\H,0,-1.311527
 ,1.120242,0.037882\H,0,-0.286552,-1.706353,0.076616\H,0,0.710508,-0.16
 0184,-0.089893\\Version=ES64L-G09RevD.01\State=1-A\HF=-155.6997974\MP2
 =-155.9254213\RMSD=5.730e-09\PG=C01 [X(C4H6)]\\@

 Normal termination of Gaussian 09 at Wed Aug 26 16:15:05 2020.
