 Gaussian 09, Revision D.01,
 Gaussian 09:  ES64L-G09RevD.01 24-Apr-2013

 --------------------
 #p B2PLYPD3/Def2QZVP
 --------------------

 ---------
 butadiene
 ---------
 Symbolic Z-matrix:
 Charge =  0 Multiplicity = 1

                         Standard orientation:
 ---------------------------------------------------------------------
 Center     Atomic      Atomic             Coordinates (Angstroms)
 Number     Number       Type             X           Y           Z
 ---------------------------------------------------------------------
      1          6           0        1.824761    0.049983   -0.094653
      2          6           0        0.566692   -0.363165    0.046927
      3          6           0       -0.588822    0.445633    0.109221
      4          6           0       -1.806015   -0.134262   -0.068012
      5          1           0        2.778853   -0.450910   -0.094245
      6          1           0        1.964970    1.186259    0.055837
      7          1           0        0.452865   -1.420171    0.244741
      8          1           0       -0.509826    1.524081    0.054859
      9          1           0       -1.889891   -1.297824   -0.024503
     10          1           0       -2.776666    0.469426   -0.197588
 ---------------------------------------------------------------------

 SCF Done:  E(RB2PLYPD3) =  -155.675784473     A.U. after   12 cycles
 E2(B2PLYPD3) =    -0.2283302263D+00 E(B2PLYPD3) =    -0.15590411469891D+03

 The electronic state is 1-A.
 Alpha  occ. eigenvalues --  -10.63839 -10.62943 -10.62368 -10.61887  -0.93672
 Alpha  occ. eigenvalues --   -0.84185  -0.69523  -0.63945  -0.54861  -0.52933
 Alpha  occ. eigenvalues --   -0.46756  -0.43525  -0.41369  -0.37817  -0.27260
 Alpha virt. eigenvalues --    0.01112   0.06920   0.07079   0.07796   0.09237
 Alpha virt. eigenvalues --    0.11413   0.12618   0.14007   0.15444   0.16723
 Alpha virt. eigenvalues --    0.18656   0.19580   0.21260   0.23099   0.23410

 Mulliken charges:
               1
     1  C   -0.174326
     2  C   -0.012551
     3  C   -0.042711
     4  C   -0.156488
     5  H    0.088896
     6  H    0.033043
     7  H    0.055145
     8  H    0.066702
     9  H    0.061352
    10  H    0.080939
 Sum of Mulliken charges =   0.00000

 Dipole moment (field-independent basis, Debye):
    X=             -0.1255    Y=             -0.0252    Z=              0.1472  Tot=              0.1951
 Quadrupole moment (field-independent basis, Debye-Ang):
   XX=            -23.4158   YY=            -23.5710   ZZ=            -29.3822
   XY=             -0.3040   XZ=              0.6375   YZ=             -0.1750

 1\1\GINC-NODE31\SP\RB2PLYPD3-FC\def2QZVP\C4H6\BOITTIER\26-Aug-2020\0\\
 #p B2PLYPD3/Def2QZVP\\butadiene\\0,1\C,0,-3.837854,0.171709,0.104654\C
 ,0,-2.676631,-0.468743,-0.01724\C,0,-1.392361,0.112607,-0.094246\C,0,-
 0.302327,-0.67519,0.106876\H,0,-4.867591,-0.145743,0.111812\H,0,-3.767
 207,1.309719,-0.078027\H,0,-2.758202,-1.533884,-0.185082\H,0,-1.272421
 ,1.188376,-0.070162\H,0,-0.433086,-1.835186,0.096019\H,0,0.762352,-0.2
 56101,0.226108\\Version=ES64L-G09RevD.01\State=1-A\HF=-155.6757845\MP2
 =-155.9041147\RMSD=3.963e-09\PG=C01 [X(C4H6)]\\@

 Normal termination of Gaussian 09 at Wed Aug 26 15:11:42 2020.
