 Gaussian 09, Revision D.01,
 Gaussian 09:  ES64L-G09RevD.01 24-Apr-2013

 --------------------
 #p B2PLYPD3/Def2QZVP
 --------------------

 ---------
 butadiene
 ---------
 Symbolic Z-matrix:
 Charge =  0 Multiplicity = 1

                         Standard orientation:
 ---------------------------------------------------------------------
 Center     Atomic      Atomic             Coordinates (Angstroms)
 Number     Number       Type             X           Y           Z
 ---------------------------------------------------------------------
      1          6           0        1.850479    0.089057    0.054390
      2          6           0        0.605730   -0.355216   -0.077231
      3          6           0       -0.604245    0.433004   -0.042247
      4          6           0       -1.852243   -0.149849    0.037678
      5          1           0        2.706469   -0.647638    0.163021
      6          1           0        2.159675    1.076050   -0.151284
      7          1           0        0.501563   -1.449479   -0.025723
      8          1           0       -0.508943    1.564052    0.139067
      9          1           0       -2.180212   -1.143391    0.034157
     10          1           0       -2.676878    0.498424    0.005218
 ---------------------------------------------------------------------

 SCF Done:  E(RB2PLYPD3) =  -155.680489983     A.U. after   12 cycles
 E2(B2PLYPD3) =    -0.2273734511D+00 E(B2PLYPD3) =    -0.15590786343441D+03

 The electronic state is 1-A.
 Alpha  occ. eigenvalues --  -10.64220 -10.62555 -10.61675 -10.61592  -0.92614
 Alpha  occ. eigenvalues --   -0.84616  -0.71027  -0.63655  -0.54402  -0.53969
 Alpha  occ. eigenvalues --   -0.46216  -0.45455  -0.40839  -0.37802  -0.27236
 Alpha virt. eigenvalues --    0.00852   0.06929   0.07430   0.07798   0.09084
 Alpha virt. eigenvalues --    0.11424   0.12563   0.14848   0.15787   0.16257
 Alpha virt. eigenvalues --    0.18849   0.19672   0.22418   0.22857   0.23468

 Mulliken charges:
               1
     1  C   -0.171511
     2  C   -0.024936
     3  C   -0.046842
     4  C   -0.170936
     5  H    0.067966
     6  H    0.075164
     7  H    0.057537
     8  H    0.064284
     9  H    0.074668
    10  H    0.074604
 Sum of Mulliken charges =   0.00000

 Dipole moment (field-independent basis, Debye):
    X=             -0.0944    Y=             -0.0383    Z=              0.0326  Tot=              0.1070
 Quadrupole moment (field-independent basis, Debye-Ang):
   XX=            -23.2790   YY=            -23.2045   ZZ=            -29.3315
   XY=              0.5671   XZ=             -0.0690   YZ=             -0.1311

 1\1\GINC-NODE37\SP\RB2PLYPD3-FC\def2QZVP\C4H6\BOITTIER\26-Aug-2020\0\\
 #p B2PLYPD3/Def2QZVP\\butadiene\\0,1\C,0,-3.856343,0.206685,-0.03635\C
 ,0,-2.712752,-0.453982,0.10444\C,0,-1.379763,0.100427,0.056223\C,0,-0.
 258675,-0.700895,-0.011977\H,0,-4.832227,-0.363995,-0.132342\H,0,-3.98
 0512,1.236982,0.151076\H,0,-2.809319,-1.5497,0.072921\H,0,-1.268357,1.
 2265,-0.145702\H,0,-0.11673,-1.737271,0.009894\H,0,0.670121,-0.212825,
 0.009436\\Version=ES64L-G09RevD.01\State=1-A\HF=-155.68049\MP2=-155.90
 78634\RMSD=4.641e-09\PG=C01 [X(C4H6)]\\@

 Normal termination of Gaussian 09 at Wed Aug 26 15:23:41 2020.
