 Gaussian 09, Revision D.01,
 Gaussian 09:  ES64L-G09RevD.01 24-Apr-2013

 --------------------
 #p B2PLYPD3/Def2QZVP
 --------------------

 ---------
 butadiene
 ---------
 Symbolic Z-matrix:
 Charge =  0 Multiplicity = 1

                         Standard orientation:
 ---------------------------------------------------------------------
 Center     Atomic      Atomic             Coordinates (Angstroms)
 Number     Number       Type             X           Y           Z
 ---------------------------------------------------------------------
      1          6           0        1.816840    0.091285    0.023517
      2          6           0        0.584020   -0.394416   -0.077137
      3          6           0       -0.575700    0.392803   -0.011835
      4          6           0       -1.808259   -0.104500    0.038080
      5          1           0        2.639856   -0.522592    0.029610
      6          1           0        1.875273    1.236143    0.286301
      7          1           0        0.452888   -1.451746   -0.084347
      8          1           0       -0.376654    1.453209   -0.221266
      9          1           0       -2.014597   -1.206112    0.208432
     10          1           0       -2.678170    0.580063   -0.054484
 ---------------------------------------------------------------------

 SCF Done:  E(RB2PLYPD3) =  -155.683716740     A.U. after   11 cycles
 E2(B2PLYPD3) =    -0.2266571781D+00 E(B2PLYPD3) =    -0.15591037391821D+03

 The electronic state is 1-A.
 Alpha  occ. eigenvalues --  -10.62381 -10.62073 -10.61693 -10.61500  -0.94044
 Alpha  occ. eigenvalues --   -0.84816  -0.70321  -0.63647  -0.55274  -0.52963
 Alpha  occ. eigenvalues --   -0.47076  -0.44415  -0.41052  -0.38641  -0.27490
 Alpha virt. eigenvalues --    0.01445   0.07088   0.07126   0.07957   0.09562
 Alpha virt. eigenvalues --    0.11797   0.12155   0.14751   0.15156   0.16381
 Alpha virt. eigenvalues --    0.18415   0.19696   0.21206   0.22673   0.24043

 Mulliken charges:
               1
     1  C   -0.175465
     2  C   -0.023327
     3  C   -0.022144
     4  C   -0.184629
     5  H    0.094158
     6  H    0.052089
     7  H    0.049567
     8  H    0.058002
     9  H    0.068811
    10  H    0.082937
 Sum of Mulliken charges =   0.00000

 Dipole moment (field-independent basis, Debye):
    X=             -0.0333    Y=             -0.1346    Z=              0.0888  Tot=              0.1646
 Quadrupole moment (field-independent basis, Debye-Ang):
   XX=            -24.0165   YY=            -23.2657   ZZ=            -29.0840
   XY=             -0.1472   XZ=              0.4287   YZ=             -0.1782

 1\1\GINC-NODE27\SP\RB2PLYPD3-FC\def2QZVP\C4H6\BOITTIER\26-Aug-2020\0\\
 #p B2PLYPD3/Def2QZVP\\butadiene\\0,1\C,0,-3.816995,0.21796,-0.011554\C
 ,0,-2.69805,-0.489504,0.103938\C,0,-1.410582,0.063639,0.030541\C,0,-0.
 293837,-0.657936,-0.004306\H,0,-4.740997,-0.229765,-0.010913\H,0,-3.65
 806,1.348279,-0.294907\H,0,-2.76867,-1.552283,0.130575\H,0,-1.406428,1
 .146223,0.220111\H,0,-0.298664,-1.781636,-0.154034\H,0,0.689408,-0.148
 055,0.080493\\Version=ES64L-G09RevD.01\State=1-A\HF=-155.6837167\MP2=-
 155.9103739\RMSD=5.044e-09\PG=C01 [X(C4H6)]\\@

 Normal termination of Gaussian 09 at Wed Aug 26 15:01:10 2020.
