 Gaussian 09, Revision D.01,
 Gaussian 09:  ES64L-G09RevD.01 24-Apr-2013

 --------------------
 #p B2PLYPD3/Def2QZVP
 --------------------

 ---------
 butadiene
 ---------
 Symbolic Z-matrix:
 Charge =  0 Multiplicity = 1

                         Standard orientation:
 ---------------------------------------------------------------------
 Center     Atomic      Atomic             Coordinates (Angstroms)
 Number     Number       Type             X           Y           Z
 ---------------------------------------------------------------------
      1          6           0       -1.831698    0.107843   -0.007813
      2          6           0       -0.603833   -0.391271    0.006937
      3          6           0        0.613889    0.418790    0.016218
      4          6           0        1.835274   -0.121582   -0.016205
      5          1           0       -2.710092   -0.542327   -0.013060
      6          1           0       -2.014974    1.158010   -0.080651
      7          1           0       -0.514281   -1.462578    0.094194
      8          1           0        0.482480    1.498567    0.071225
      9          1           0        1.936551   -1.201225   -0.070242
     10          1           0        2.738522    0.466873    0.003713
 ---------------------------------------------------------------------

 SCF Done:  E(RB2PLYPD3) =  -155.700834269     A.U. after   11 cycles
 E2(B2PLYPD3) =    -0.2254412668D+00 E(B2PLYPD3) =    -0.15592627553540D+03

 The electronic state is 1-A.
 Alpha  occ. eigenvalues --  -10.62706 -10.62285 -10.61539 -10.61198  -0.92972
 Alpha  occ. eigenvalues --   -0.85051  -0.69864  -0.64214  -0.54562  -0.54076
 Alpha  occ. eigenvalues --   -0.46673  -0.45503  -0.41200  -0.38048  -0.27820
 Alpha virt. eigenvalues --    0.01958   0.07041   0.07450   0.08023   0.09507
 Alpha virt. eigenvalues --    0.11684   0.12497   0.14646   0.15810   0.16202
 Alpha virt. eigenvalues --    0.18771   0.20338   0.21672   0.22784   0.23998

 Mulliken charges:
               1
     1  C   -0.176403
     2  C   -0.025418
     3  C   -0.039628
     4  C   -0.171949
     5  H    0.081348
     6  H    0.065173
     7  H    0.056827
     8  H    0.057346
     9  H    0.065078
    10  H    0.087626
 Sum of Mulliken charges =   0.00000

 Dipole moment (field-independent basis, Debye):
    X=              0.0127    Y=              0.0101    Z=              0.0150  Tot=              0.0221
 Quadrupole moment (field-independent basis, Debye-Ang):
   XX=            -23.4758   YY=            -23.0904   ZZ=            -29.2264
   XY=             -0.0501   XZ=              0.0628   YZ=             -0.0299

 1\1\GINC-NODE30\SP\RB2PLYPD3-FC\def2QZVP\C4H6\BOITTIER\26-Aug-2020\0\\
 #p B2PLYPD3/Def2QZVP\\butadiene\\0,1\C,0,-3.837799,0.213689,0.010066\C
 ,0,-2.717504,-0.494009,0.043007\C,0,-1.375703,0.087832,0.030177\C,0,-0
 .269231,-0.660756,0.017222\H,0,-4.817334,-0.270743,0.022794\H,0,-3.832
 713,1.276977,-0.095473\H,0,-2.818529,-1.561077,0.163392\H,0,-1.313927,
 1.175001,0.05163\H,0,-0.360637,-1.742435,-0.003336\H,0,0.7239,-0.24098
 2,0.021114\\Version=ES64L-G09RevD.01\State=1-A\HF=-155.7008343\MP2=-15
 5.9262755\RMSD=4.814e-09\PG=C01 [X(C4H6)]\\@

 Normal termination of Gaussian 09 at Wed Aug 26 13:19:32 2020.
