 Gaussian 09, Revision D.01,
 Gaussian 09:  ES64L-G09RevD.01 24-Apr-2013

 --------------------
 #p B2PLYPD3/Def2QZVP
 --------------------

 ---------
 butadiene
 ---------
 Symbolic Z-matrix:
 Charge =  0 Multiplicity = 1

                         Standard orientation:
 ---------------------------------------------------------------------
 Center     Atomic      Atomic             Coordinates (Angstroms)
 Number     Number       Type             X           Y           Z
 ---------------------------------------------------------------------
      1          6           0        1.847647    0.096554    0.031193
      2          6           0        0.616566   -0.368046   -0.051841
      3          6           0       -0.610902    0.407568   -0.020183
      4          6           0       -1.842039   -0.119083    0.011489
      5          1           0        2.611102   -0.605008   -0.005822
      6          1           0        2.056314    1.170194    0.162616
      7          1           0        0.469150   -1.416004   -0.089583
      8          1           0       -0.481973    1.490461   -0.104997
      9          1           0       -1.945385   -1.243890    0.198471
     10          1           0       -2.776841    0.502290    0.015370
 ---------------------------------------------------------------------

 SCF Done:  E(RB2PLYPD3) =  -155.693055306     A.U. after   11 cycles
 E2(B2PLYPD3) =    -0.2259060208D+00 E(B2PLYPD3) =    -0.15591896132648D+03

 The electronic state is 1-A.
 Alpha  occ. eigenvalues --  -10.62780 -10.62623 -10.61864 -10.61013  -0.93141
 Alpha  occ. eigenvalues --   -0.85103  -0.69970  -0.63738  -0.54645  -0.53589
 Alpha  occ. eigenvalues --   -0.46897  -0.45329  -0.40689  -0.38160  -0.27910
 Alpha virt. eigenvalues --    0.01703   0.06964   0.07355   0.08002   0.09733
 Alpha virt. eigenvalues --    0.11671   0.12177   0.14685   0.15710   0.16125
 Alpha virt. eigenvalues --    0.18744   0.20172   0.21266   0.22331   0.24048

 Mulliken charges:
               1
     1  C   -0.178391
     2  C   -0.025290
     3  C   -0.034090
     4  C   -0.171183
     5  H    0.089804
     6  H    0.069335
     7  H    0.051621
     8  H    0.053300
     9  H    0.058468
    10  H    0.086426
 Sum of Mulliken charges =   0.00000

 Dipole moment (field-independent basis, Debye):
    X=              0.0271    Y=              0.0065    Z=              0.1195  Tot=              0.1227
 Quadrupole moment (field-independent basis, Debye-Ang):
   XX=            -23.6683   YY=            -23.1731   ZZ=            -29.2155
   XY=             -0.0693   XZ=             -0.0674   YZ=             -0.0744

 1\1\GINC-NODE38\SP\RB2PLYPD3-FC\def2QZVP\C4H6\BOITTIER\26-Aug-2020\0\\
 #p B2PLYPD3/Def2QZVP\\butadiene\\0,1\C,0,-3.8519,0.208197,-0.012568\C,
 0,-2.723569,-0.467468,0.080454\C,0,-1.37725,0.07534,0.035257\C,0,-0.26
 0243,-0.663537,0.014771\H,0,-4.728432,-0.344664,0.037025\H,0,-3.865494
 ,1.299175,-0.16455\H,0,-2.765874,-1.523993,0.138225\H,0,-1.310207,1.16
 5233,0.099374\H,0,-0.360203,-1.79201,-0.150725\H,0,0.770611,-0.219581,
 -0.000007\\Version=ES64L-G09RevD.01\State=1-A\HF=-155.6930553\MP2=-155
 .9189613\RMSD=5.425e-09\PG=C01 [X(C4H6)]\\@

 Normal termination of Gaussian 09 at Wed Aug 26 10:19:37 2020.
