 Gaussian 09, Revision D.01,
 Gaussian 09:  ES64L-G09RevD.01 24-Apr-2013

 --------------------
 #p B2PLYPD3/Def2QZVP
 --------------------

 ---------
 butadiene
 ---------
 Symbolic Z-matrix:
 Charge =  0 Multiplicity = 1

                         Standard orientation:
 ---------------------------------------------------------------------
 Center     Atomic      Atomic             Coordinates (Angstroms)
 Number     Number       Type             X           Y           Z
 ---------------------------------------------------------------------
      1          6           0        1.854428   -0.120976    0.070051
      2          6           0        0.603430    0.427735   -0.073101
      3          6           0       -0.596693   -0.366342   -0.064641
      4          6           0       -1.862403    0.089722    0.018094
      5          1           0        2.781307    0.399235   -0.059817
      6          1           0        2.103624   -1.125017    0.225052
      7          1           0        0.451723    1.512718   -0.088927
      8          1           0       -0.579266   -1.432072   -0.176640
      9          1           0       -2.188332    1.128169    0.284269
     10          1           0       -2.561626   -0.663863    0.113647
 ---------------------------------------------------------------------

 SCF Done:  E(RB2PLYPD3) =  -155.683059999     A.U. after   11 cycles
 E2(B2PLYPD3) =    -0.2270818888D+00 E(B2PLYPD3) =    -0.15591014188801D+03

 The electronic state is 1-A.
 Alpha  occ. eigenvalues --  -10.63599 -10.62449 -10.61873 -10.61333  -0.92736
 Alpha  occ. eigenvalues --   -0.84666  -0.71459  -0.64020  -0.55322  -0.53534
 Alpha  occ. eigenvalues --   -0.46745  -0.45275  -0.41469  -0.37679  -0.27179
 Alpha virt. eigenvalues --    0.00647   0.06999   0.07559   0.07978   0.09386
 Alpha virt. eigenvalues --    0.11300   0.12623   0.15098   0.15713   0.16560
 Alpha virt. eigenvalues --    0.19132   0.19384   0.21592   0.22637   0.24005

 Mulliken charges:
               1
     1  C   -0.163507
     2  C   -0.047062
     3  C   -0.029746
     4  C   -0.169140
     5  H    0.074941
     6  H    0.066545
     7  H    0.070833
     8  H    0.060117
     9  H    0.061725
    10  H    0.075295
 Sum of Mulliken charges =   0.00000

 Dipole moment (field-independent basis, Debye):
    X=              0.1206    Y=             -0.1068    Z=              0.1996  Tot=              0.2565
 Quadrupole moment (field-independent basis, Debye-Ang):
   XX=            -23.3769   YY=            -23.2062   ZZ=            -29.1973
   XY=             -0.4451   XZ=             -0.6066   YZ=              0.0324

 1\1\GINC-NODE32\SP\RB2PLYPD3-FC\def2QZVP\C4H6\BOITTIER\26-Aug-2020\0\\
 #p B2PLYPD3/Def2QZVP\\butadiene\\0,1\C,0,-3.852023,0.250789,0.083177\C
 ,0,-2.723603,-0.523324,-0.035102\C,0,-1.397568,0.035697,-0.042237\C,0,
 -0.237847,-0.643212,0.062602\H,0,-4.858833,-0.093293,-0.037365\H,0,-3.
 911835,1.287825,0.206475\H,0,-2.774698,-1.617644,-0.017533\H,0,-1.2179
 08,1.082433,-0.186091\H,0,-0.109443,-1.715326,0.361826\H,0,0.58832,-0.
 028935,0.140348\\Version=ES64L-G09RevD.01\State=1-A\HF=-155.68306\MP2=
 -155.9101419\RMSD=9.810e-09\PG=C01 [X(C4H6)]\\@

 Normal termination of Gaussian 09 at Wed Aug 26 14:06:27 2020.
