 Gaussian 09, Revision D.01,
 Gaussian 09:  ES64L-G09RevD.01 24-Apr-2013

 --------------------
 #p B2PLYPD3/Def2QZVP
 --------------------

 ---------
 butadiene
 ---------
 Symbolic Z-matrix:
 Charge =  0 Multiplicity = 1

                         Standard orientation:
 ---------------------------------------------------------------------
 Center     Atomic      Atomic             Coordinates (Angstroms)
 Number     Number       Type             X           Y           Z
 ---------------------------------------------------------------------
      1          6           0        1.845882   -0.113296    0.012980
      2          6           0        0.610644    0.404934   -0.024065
      3          6           0       -0.614831   -0.393250   -0.005412
      4          6           0       -1.842958    0.109338    0.003218
      5          1           0        2.756081    0.489885    0.028581
      6          1           0        1.995140   -1.209968   -0.009911
      7          1           0        0.505879    1.497948    0.026730
      8          1           0       -0.524289   -1.471014   -0.008312
      9          1           0       -2.014257    1.173792   -0.002001
     10          1           0       -2.710974   -0.527005    0.044590
 ---------------------------------------------------------------------

 SCF Done:  E(RB2PLYPD3) =  -155.700235372     A.U. after   11 cycles
 E2(B2PLYPD3) =    -0.2257782111D+00 E(B2PLYPD3) =    -0.15592601358265D+03

 The electronic state is 1-A.
 Alpha  occ. eigenvalues --  -10.62930 -10.62474 -10.62006 -10.61270  -0.92814
 Alpha  occ. eigenvalues --   -0.84977  -0.69878  -0.63899  -0.54551  -0.53907
 Alpha  occ. eigenvalues --   -0.46733  -0.45176  -0.41031  -0.38079  -0.27823
 Alpha virt. eigenvalues --    0.01800   0.07002   0.07412   0.07978   0.09588
 Alpha virt. eigenvalues --    0.11605   0.12442   0.14535   0.15802   0.16330
 Alpha virt. eigenvalues --    0.18846   0.20321   0.21645   0.22712   0.23786

 Mulliken charges:
               1
     1  C   -0.170029
     2  C   -0.036593
     3  C   -0.027720
     4  C   -0.173284
     5  H    0.086301
     6  H    0.061379
     7  H    0.054986
     8  H    0.054881
     9  H    0.064727
    10  H    0.085350
 Sum of Mulliken charges =   0.00000

 Dipole moment (field-independent basis, Debye):
    X=             -0.0059    Y=             -0.0022    Z=              0.0509  Tot=              0.0513
 Quadrupole moment (field-independent basis, Debye-Ang):
   XX=            -23.3255   YY=            -23.1577   ZZ=            -29.3140
   XY=             -0.0060   XZ=             -0.0307   YZ=              0.0533

 1\1\GINC-NODE20\SP\RB2PLYPD3-FC\def2QZVP\C4H6\BOITTIER\26-Aug-2020\0\\
 #p B2PLYPD3/Def2QZVP\\butadiene\\0,1\C,0,-3.84914,0.222648,0.031658\C,
 0,-2.724584,-0.505931,0.014559\C,0,-1.377664,0.064167,0.009072\C,0,-0.
 257179,-0.64625,0.037084\H,0,-4.851249,-0.209978,0.065518\H,0,-3.80308
 ,1.327087,-0.028218\H,0,-2.813691,-1.598007,0.102107\H,0,-1.277058,1.1
 40331,-0.030068\H,0,-0.275978,-1.723809,0.067834\H,0,0.709462,-0.17167
 4,0.058967\\Version=ES64L-G09RevD.01\State=1-A\HF=-155.7002354\MP2=-15
 5.9260136\RMSD=3.672e-09\PG=C01 [X(C4H6)]\\@

 Normal termination of Gaussian 09 at Wed Aug 26 18:34:31 2020.
