 Gaussian 09, Revision D.01,
 Gaussian 09:  ES64L-G09RevD.01 24-Apr-2013

 --------------------
 #p B2PLYPD3/Def2QZVP
 --------------------

 ---------
 butadiene
 ---------
 Symbolic Z-matrix:
 Charge =  0 Multiplicity = 1

                         Standard orientation:
 ---------------------------------------------------------------------
 Center     Atomic      Atomic             Coordinates (Angstroms)
 Number     Number       Type             X           Y           Z
 ---------------------------------------------------------------------
      1          6           0        1.828714   -0.137590    0.055868
      2          6           0        0.629100    0.409562   -0.072051
      3          6           0       -0.614901   -0.358719   -0.099782
      4          6           0       -1.840236    0.105242    0.015395
      5          1           0        2.612428    0.533099    0.079693
      6          1           0        1.953489   -1.286078    0.158181
      7          1           0        0.628770    1.579620   -0.014615
      8          1           0       -0.495773   -1.458213   -0.074010
      9          1           0       -2.101022    1.104716    0.201377
     10          1           0       -2.613958   -0.584107    0.252792
 ---------------------------------------------------------------------

 SCF Done:  E(RB2PLYPD3) =  -155.682228917     A.U. after   11 cycles
 E2(B2PLYPD3) =    -0.2260049518D+00 E(B2PLYPD3) =    -0.15590823386838D+03

 The electronic state is 1-A.
 Alpha  occ. eigenvalues --  -10.63233 -10.62688 -10.61652 -10.60542  -0.93003
 Alpha  occ. eigenvalues --   -0.85757  -0.70213  -0.62597  -0.55192  -0.53644
 Alpha  occ. eigenvalues --   -0.46743  -0.44830  -0.40455  -0.38259  -0.28146
 Alpha virt. eigenvalues --    0.01873   0.06947   0.07052   0.07894   0.09709
 Alpha virt. eigenvalues --    0.11500   0.12423   0.14663   0.15709   0.16288
 Alpha virt. eigenvalues --    0.18821   0.19775   0.21463   0.22925   0.23797

 Mulliken charges:
               1
     1  C   -0.173735
     2  C   -0.031929
     3  C   -0.022928
     4  C   -0.156641
     5  H    0.092718
     6  H    0.065923
     7  H    0.039578
     8  H    0.050434
     9  H    0.064188
    10  H    0.072392
 Sum of Mulliken charges =   0.00000

 Dipole moment (field-independent basis, Debye):
    X=              0.0682    Y=              0.0153    Z=              0.4413  Tot=              0.4468
 Quadrupole moment (field-independent basis, Debye-Ang):
   XX=            -24.0280   YY=            -23.0106   ZZ=            -29.1115
   XY=              0.0970   XZ=             -0.6123   YZ=             -0.0243

 1\1\GINC-NODE15\SP\RB2PLYPD3-FC\def2QZVP\C4H6\BOITTIER\26-Aug-2020\0\\
 #p B2PLYPD3/Def2QZVP\\butadiene\\0,1\C,0,-3.828408,0.240656,0.076659\C
 ,0,-2.741583,-0.50878,-0.032742\C,0,-1.382992,0.031274,-0.066455\C,0,-
 0.257231,-0.635914,0.065799\H,0,-4.716747,-0.283258,0.107769\H,0,-3.75
 2228,1.395164,0.156463\H,0,-2.944612,-1.659779,0.046729\H,0,-1.309495,
 1.135051,-0.062216\H,0,-0.174587,-1.66161,0.272353\H,0,0.623607,-0.086
 738,0.295439\\Version=ES64L-G09RevD.01\State=1-A\HF=-155.6822289\MP2=-
 155.9082339\RMSD=4.927e-09\PG=C01 [X(C4H6)]\\@

 Normal termination of Gaussian 09 at Wed Aug 26 13:55:33 2020.
