 Gaussian 09, Revision D.01,
 Gaussian 09:  ES64L-G09RevD.01 24-Apr-2013

 --------------------
 #p B2PLYPD3/Def2QZVP
 --------------------

 ---------
 butadiene
 ---------
 Symbolic Z-matrix:
 Charge =  0 Multiplicity = 1

                         Standard orientation:
 ---------------------------------------------------------------------
 Center     Atomic      Atomic             Coordinates (Angstroms)
 Number     Number       Type             X           Y           Z
 ---------------------------------------------------------------------
      1          6           0       -1.853508    0.112198   -0.049611
      2          6           0       -0.619977   -0.404237    0.047275
      3          6           0        0.611209    0.386110    0.007073
      4          6           0        1.838472   -0.097764   -0.026156
      5          1           0       -2.771169   -0.491460    0.027856
      6          1           0       -1.972033    1.183683   -0.041224
      7          1           0       -0.465289   -1.454616    0.091061
      8          1           0        0.529329    1.472311    0.126379
      9          1           0        2.067641   -1.189799   -0.096428
     10          1           0        2.754345    0.502034    0.020864
 ---------------------------------------------------------------------

 SCF Done:  E(RB2PLYPD3) =  -155.696863812     A.U. after   11 cycles
 E2(B2PLYPD3) =    -0.2258331336D+00 E(B2PLYPD3) =    -0.15592269694558D+03

 The electronic state is 1-A.
 Alpha  occ. eigenvalues --  -10.62659 -10.62565 -10.61888 -10.61866  -0.92905
 Alpha  occ. eigenvalues --   -0.84987  -0.69970  -0.64052  -0.54710  -0.53535
 Alpha  occ. eigenvalues --   -0.47287  -0.44949  -0.40567  -0.38003  -0.28008
 Alpha virt. eigenvalues --    0.01721   0.06984   0.07446   0.07973   0.09622
 Alpha virt. eigenvalues --    0.11540   0.12492   0.14490   0.15711   0.16362
 Alpha virt. eigenvalues --    0.19010   0.20088   0.21891   0.22278   0.23629

 Mulliken charges:
               1
     1  C   -0.163684
     2  C   -0.045243
     3  C   -0.023985
     4  C   -0.168440
     5  H    0.084452
     6  H    0.065165
     7  H    0.061946
     8  H    0.053701
     9  H    0.053952
    10  H    0.082138
 Sum of Mulliken charges =   0.00000

 Dipole moment (field-independent basis, Debye):
    X=              0.0333    Y=             -0.0088    Z=              0.1554  Tot=              0.1591
 Quadrupole moment (field-independent basis, Debye-Ang):
   XX=            -23.1114   YY=            -23.3833   ZZ=            -29.2642
   XY=             -0.1247   XZ=             -0.0888   YZ=              0.1161

 1\1\GINC-NODE10\SP\RB2PLYPD3-FC\def2QZVP\C4H6\BOITTIER\26-Aug-2020\0\\
 #p B2PLYPD3/Def2QZVP\\butadiene\\0,1\C,0,-3.853696,0.223055,-0.02523\C
 ,0,-2.731003,-0.501897,0.082922\C,0,-1.379311,0.056631,0.027629\C,0,-0
 .25739,-0.637772,0.005031\H,0,-4.863622,-0.206634,0.06377\H,0,-3.78033
 4,1.298526,-0.038561\H,0,-2.764882,-1.561971,0.148014\H,0,-1.266954,1.
 142302,0.124923\H,0,-0.225685,-1.754322,-0.043019\H,0,0.750453,-0.2090
 75,0.040569\\Version=ES64L-G09RevD.01\State=1-A\HF=-155.6968638\MP2=-1
 55.9226969\RMSD=6.811e-09\PG=C01 [X(C4H6)]\\@

 Normal termination of Gaussian 09 at Wed Aug 26 22:21:17 2020.
