 Gaussian 09, Revision D.01,
 Gaussian 09:  ES64L-G09RevD.01 24-Apr-2013

 --------------------
 #p B2PLYPD3/Def2QZVP
 --------------------

 ---------
 butadiene
 ---------
 Symbolic Z-matrix:
 Charge =  0 Multiplicity = 1

                         Standard orientation:
 ---------------------------------------------------------------------
 Center     Atomic      Atomic             Coordinates (Angstroms)
 Number     Number       Type             X           Y           Z
 ---------------------------------------------------------------------
      1          6           0        1.871445    0.107166   -0.031486
      2          6           0        0.609740   -0.373770    0.078488
      3          6           0       -0.609825    0.449937    0.004186
      4          6           0       -1.860629   -0.124818   -0.045567
      5          1           0        2.666169   -0.670039   -0.135916
      6          1           0        2.167551    1.098312    0.054811
      7          1           0        0.439196   -1.485676   -0.093508
      8          1           0       -0.535639    1.521637    0.047689
      9          1           0       -1.947923   -1.144202    0.164668
     10          1           0       -2.853736    0.328878   -0.071468
 ---------------------------------------------------------------------

 SCF Done:  E(RB2PLYPD3) =  -155.682947860     A.U. after   11 cycles
 E2(B2PLYPD3) =    -0.2277860039D+00 E(B2PLYPD3) =    -0.15591073386426D+03

 The electronic state is 1-A.
 Alpha  occ. eigenvalues --  -10.63747 -10.63578 -10.61936 -10.61868  -0.92126
 Alpha  occ. eigenvalues --   -0.84310  -0.70523  -0.64247  -0.54292  -0.53771
 Alpha  occ. eigenvalues --   -0.46217  -0.45538  -0.41147  -0.37449  -0.27227
 Alpha virt. eigenvalues --    0.00897   0.06904   0.07544   0.07931   0.08655
 Alpha virt. eigenvalues --    0.11473   0.12594   0.14672   0.15404   0.16711
 Alpha virt. eigenvalues --    0.18919   0.19575   0.21676   0.22665   0.24199

 Mulliken charges:
               1
     1  C   -0.176813
     2  C   -0.031650
     3  C   -0.043753
     4  C   -0.167580
     5  H    0.076116
     6  H    0.082592
     7  H    0.058141
     8  H    0.064354
     9  H    0.060133
    10  H    0.078462
 Sum of Mulliken charges =   0.00000

 Dipole moment (field-independent basis, Debye):
    X=             -0.0160    Y=              0.0607    Z=              0.0515  Tot=              0.0812
 Quadrupole moment (field-independent basis, Debye-Ang):
   XX=            -23.1992   YY=            -23.2882   ZZ=            -29.4497
   XY=              0.4683   XZ=             -0.4579   YZ=              0.1627

 1\1\GINC-NODE15\SP\RB2PLYPD3-FC\def2QZVP\C4H6\BOITTIER\26-Aug-2020\0\\
 #p B2PLYPD3/Def2QZVP\\butadiene\\0,1\C,0,-3.873903,0.219912,0.055426\C
 ,0,-2.719271,-0.483095,-0.033444\C,0,-1.371755,0.112285,-0.000602\C,0,
 -0.24295,-0.673512,0.074578\H,0,-4.793303,-0.397224,0.198202\H,0,-3.98
 9511,1.242852,-0.077716\H,0,-2.74786,-1.598301,0.191279\H,0,-1.254219,
 1.17679,-0.095211\H,0,-0.340835,-1.700811,-0.086785\H,0,0.815319,-0.40
 3638,0.077142\\Version=ES64L-G09RevD.01\State=1-A\HF=-155.6829479\MP2=
 -155.9107339\RMSD=7.301e-09\PG=C01 [X(C4H6)]\\@

 Normal termination of Gaussian 09 at Wed Aug 26 15:51:33 2020.
