 Gaussian 09, Revision D.01,
 Gaussian 09:  ES64L-G09RevD.01 24-Apr-2013

 --------------------
 #p B2PLYPD3/Def2QZVP
 --------------------

 ---------
 butadiene
 ---------
 Symbolic Z-matrix:
 Charge =  0 Multiplicity = 1

                         Standard orientation:
 ---------------------------------------------------------------------
 Center     Atomic      Atomic             Coordinates (Angstroms)
 Number     Number       Type             X           Y           Z
 ---------------------------------------------------------------------
      1          6           0       -1.833047   -0.117246    0.020553
      2          6           0       -0.612114    0.418728   -0.042793
      3          6           0        0.602761   -0.396123   -0.020983
      4          6           0        1.831662    0.105366    0.005596
      5          1           0       -2.715792    0.477508    0.063007
      6          1           0       -1.909346   -1.217204    0.035461
      7          1           0       -0.496827    1.501923    0.005662
      8          1           0        0.469329   -1.463265   -0.019905
      9          1           0        2.019451    1.163219    0.070147
     10          1           0        2.697609   -0.526535    0.071391
 ---------------------------------------------------------------------

 SCF Done:  E(RB2PLYPD3) =  -155.700323723     A.U. after   11 cycles
 E2(B2PLYPD3) =    -0.2254844887D+00 E(B2PLYPD3) =    -0.15592580821159D+03

 The electronic state is 1-A.
 Alpha  occ. eigenvalues --  -10.62574 -10.62369 -10.61528 -10.61146  -0.92990
 Alpha  occ. eigenvalues --   -0.85057  -0.69945  -0.64149  -0.54881  -0.53848
 Alpha  occ. eigenvalues --   -0.46826  -0.45381  -0.41243  -0.38099  -0.27790
 Alpha virt. eigenvalues --    0.01952   0.07053   0.07385   0.08111   0.09482
 Alpha virt. eigenvalues --    0.11705   0.12522   0.14619   0.15796   0.16271
 Alpha virt. eigenvalues --    0.18749   0.20311   0.21696   0.22960   0.24007

 Mulliken charges:
               1
     1  C   -0.174816
     2  C   -0.031237
     3  C   -0.030177
     4  C   -0.173221
     5  H    0.090592
     6  H    0.061373
     7  H    0.055062
     8  H    0.055465
     9  H    0.064611
    10  H    0.082345
 Sum of Mulliken charges =   0.00000

 Dipole moment (field-independent basis, Debye):
    X=             -0.0103    Y=              0.0218    Z=              0.1667  Tot=              0.1684
 Quadrupole moment (field-independent basis, Debye-Ang):
   XX=            -23.5393   YY=            -23.0697   ZZ=            -29.2295
   XY=              0.0099   XZ=              0.0696   YZ=              0.0789

 1\1\GINC-NODE25\SP\RB2PLYPD3-FC\def2QZVP\C4H6\BOITTIER\26-Aug-2020\0\\
 #p B2PLYPD3/Def2QZVP\\butadiene\\0,1\C,0,-3.833367,0.227887,-0.004619\
 C,0,-2.727538,-0.515787,0.073158\C,0,-1.386776,0.068214,0.032192\C,0,-
 0.267268,-0.645179,0.019221\H,0,-4.808267,-0.200522,-0.03307\H,0,-3.71
 209,1.323081,-0.046959\H,0,-2.807685,-1.603017,0.051773\H,0,-1.327524,
 1.141674,0.004442\H,0,-0.271611,-1.720827,-0.018819\H,0,0.697353,-0.17
 99,-0.061483\\Version=ES64L-G09RevD.01\State=1-A\HF=-155.7003237\MP2=-
 155.9258082\RMSD=3.898e-09\PG=C01 [X(C4H6)]\\@

 Normal termination of Gaussian 09 at Wed Aug 26 21:45:02 2020.
