 Gaussian 09, Revision D.01,
 Gaussian 09:  ES64L-G09RevD.01 24-Apr-2013

 --------------------
 #p B2PLYPD3/Def2QZVP
 --------------------

 ---------
 butadiene
 ---------
 Symbolic Z-matrix:
 Charge =  0 Multiplicity = 1

                         Standard orientation:
 ---------------------------------------------------------------------
 Center     Atomic      Atomic             Coordinates (Angstroms)
 Number     Number       Type             X           Y           Z
 ---------------------------------------------------------------------
      1          6           0       -1.835270    0.096187   -0.010035
      2          6           0       -0.597994   -0.378911    0.026149
      3          6           0        0.612725    0.409219    0.002132
      4          6           0        1.826059   -0.126144   -0.020577
      5          1           0       -2.691276   -0.553470   -0.030190
      6          1           0       -2.009307    1.169743   -0.086444
      7          1           0       -0.458024   -1.450645    0.068860
      8          1           0        0.471482    1.505974    0.103373
      9          1           0        1.956909   -1.189874   -0.055410
     10          1           0        2.697089    0.516162    0.013798
 ---------------------------------------------------------------------

 SCF Done:  E(RB2PLYPD3) =  -155.700464715     A.U. after   11 cycles
 E2(B2PLYPD3) =    -0.2253940830D+00 E(B2PLYPD3) =    -0.15592585879827D+03

 The electronic state is 1-A.
 Alpha  occ. eigenvalues --  -10.62537 -10.62111 -10.61361 -10.61288  -0.93278
 Alpha  occ. eigenvalues --   -0.85179  -0.70165  -0.63814  -0.54628  -0.54115
 Alpha  occ. eigenvalues --   -0.46810  -0.45595  -0.40948  -0.38285  -0.27840
 Alpha virt. eigenvalues --    0.01887   0.07052   0.07351   0.08037   0.09748
 Alpha virt. eigenvalues --    0.11743   0.12392   0.14802   0.15707   0.16104
 Alpha virt. eigenvalues --    0.18720   0.20389   0.21582   0.22747   0.23998

 Mulliken charges:
               1
     1  C   -0.177910
     2  C   -0.024010
     3  C   -0.026932
     4  C   -0.178924
     5  H    0.087910
     6  H    0.062219
     7  H    0.049197
     8  H    0.051082
     9  H    0.070051
    10  H    0.087316
 Sum of Mulliken charges =   0.00000

 Dipole moment (field-independent basis, Debye):
    X=              0.0337    Y=             -0.0259    Z=              0.0234  Tot=              0.0486
 Quadrupole moment (field-independent basis, Debye-Ang):
   XX=            -23.5780   YY=            -23.1153   ZZ=            -29.1795
   XY=             -0.0856   XZ=              0.2383   YZ=              0.0539

 1\1\GINC-NODE21\SP\RB2PLYPD3-FC\def2QZVP\C4H6\BOITTIER\26-Aug-2020\0\\
 #p B2PLYPD3/Def2QZVP\\butadiene\\0,1\C,0,-3.840863,0.209981,0.006474\C
 ,0,-2.709338,-0.479082,0.058651\C,0,-1.376508,0.077371,0.020064\C,0,-0
 .279429,-0.668081,0.014733\H,0,-4.799877,-0.275243,-0.001138\H,0,-3.81
 8793,1.295139,-0.096458\H,0,-2.764615,-1.557138,0.127726\H,0,-1.317872
 ,1.183772,0.09429\H,0,-0.342293,-1.738516,0.00606\H,0,0.693049,-0.1924
 44,0.036793\\Version=ES64L-G09RevD.01\State=1-A\HF=-155.7004647\MP2=-1
 55.9258588\RMSD=4.707e-09\PG=C01 [X(C4H6)]\\@

 Normal termination of Gaussian 09 at Wed Aug 26 19:12:43 2020.
