 Gaussian 09, Revision D.01,
 Gaussian 09:  ES64L-G09RevD.01 24-Apr-2013

 --------------------
 #p B2PLYPD3/Def2QZVP
 --------------------

 ---------
 butadiene
 ---------
 Symbolic Z-matrix:
 Charge =  0 Multiplicity = 1

                         Standard orientation:
 ---------------------------------------------------------------------
 Center     Atomic      Atomic             Coordinates (Angstroms)
 Number     Number       Type             X           Y           Z
 ---------------------------------------------------------------------
      1          6           0       -1.824050   -0.126069    0.011582
      2          6           0       -0.604187    0.414221   -0.015920
      3          6           0        0.597122   -0.383325   -0.019623
      4          6           0        1.826388    0.097037    0.006995
      5          1           0       -2.705233    0.516876    0.056681
      6          1           0       -1.977931   -1.187565    0.017163
      7          1           0       -0.495744    1.501870   -0.061180
      8          1           0        0.476941   -1.482708   -0.011863
      9          1           0        2.015090    1.150848    0.069859
     10          1           0        2.715238   -0.510509    0.031134
 ---------------------------------------------------------------------

 SCF Done:  E(RB2PLYPD3) =  -155.700395788     A.U. after   11 cycles
 E2(B2PLYPD3) =    -0.2254264882D+00 E(B2PLYPD3) =    -0.15592582227614D+03

 The electronic state is 1-A.
 Alpha  occ. eigenvalues --  -10.62553 -10.62357 -10.61509 -10.61005  -0.93275
 Alpha  occ. eigenvalues --   -0.85105  -0.70164  -0.63952  -0.54717  -0.54151
 Alpha  occ. eigenvalues --   -0.46665  -0.45361  -0.41047  -0.38396  -0.27743
 Alpha virt. eigenvalues --    0.01880   0.07028   0.07371   0.07998   0.09715
 Alpha virt. eigenvalues --    0.11684   0.12498   0.14757   0.15811   0.16278
 Alpha virt. eigenvalues --    0.18734   0.20460   0.21882   0.22704   0.23764

 Mulliken charges:
               1
     1  C   -0.175004
     2  C   -0.033211
     3  C   -0.021576
     4  C   -0.172949
     5  H    0.083248
     6  H    0.070241
     7  H    0.056623
     8  H    0.049111
     9  H    0.059759
    10  H    0.083758
 Sum of Mulliken charges =   0.00000

 Dipole moment (field-independent basis, Debye):
    X=             -0.0061    Y=              0.0115    Z=              0.0707  Tot=              0.0719
 Quadrupole moment (field-independent basis, Debye-Ang):
   XX=            -23.4454   YY=            -23.1180   ZZ=            -29.1922
   XY=              0.1448   XZ=              0.0639   YZ=              0.0114

 1\1\GINC-NODE19\SP\RB2PLYPD3-FC\def2QZVP\C4H6\BOITTIER\26-Aug-2020\0\\
 #p B2PLYPD3/Def2QZVP\\butadiene\\0,1\C,0,-3.822977,0.236855,0.005504\C
 ,0,-2.720166,-0.513135,0.05088\C,0,-1.394928,0.054855,0.031671\C,0,-0.
 272317,-0.63954,0.021136\H,0,-4.805674,-0.238013,-0.021003\H,0,-3.7833
 22,1.30805,-0.032606\H,0,-2.809051,-1.600666,0.129395\H,0,-1.315315,1.
 157168,-0.009733\H,0,-0.276634,-1.711515,-0.00936\H,0,0.71125,-0.20294
 7,-0.020475\\Version=ES64L-G09RevD.01\State=1-A\HF=-155.7003958\MP2=-1
 55.9258223\RMSD=5.332e-09\PG=C01 [X(C4H6)]\\@

 Normal termination of Gaussian 09 at Wed Aug 26 12:17:38 2020.
