 Gaussian 09, Revision D.01,
 Gaussian 09:  ES64L-G09RevD.01 24-Apr-2013

 --------------------
 #p B2PLYPD3/Def2QZVP
 --------------------

 ---------
 butadiene
 ---------
 Symbolic Z-matrix:
 Charge =  0 Multiplicity = 1

                         Standard orientation:
 ---------------------------------------------------------------------
 Center     Atomic      Atomic             Coordinates (Angstroms)
 Number     Number       Type             X           Y           Z
 ---------------------------------------------------------------------
      1          6           0        1.856486    0.109280   -0.016875
      2          6           0        0.627169   -0.374505    0.028282
      3          6           0       -0.612772    0.403056    0.073199
      4          6           0       -1.852118   -0.126938   -0.044105
      5          1           0        2.727814   -0.552149   -0.093391
      6          1           0        1.978981    1.160001   -0.048831
      7          1           0        0.455424   -1.480043    0.010797
      8          1           0       -0.567783    1.511570   -0.047257
      9          1           0       -1.976653   -1.218055    0.006057
     10          1           0       -2.730379    0.513325   -0.070379
 ---------------------------------------------------------------------

 SCF Done:  E(RB2PLYPD3) =  -155.695063232     A.U. after   11 cycles
 E2(B2PLYPD3) =    -0.2264843754D+00 E(B2PLYPD3) =    -0.15592154760745D+03

 The electronic state is 1-A.
 Alpha  occ. eigenvalues --  -10.63182 -10.62879 -10.62155 -10.61327  -0.92691
 Alpha  occ. eigenvalues --   -0.85026  -0.69890  -0.63305  -0.54209  -0.54048
 Alpha  occ. eigenvalues --   -0.46558  -0.45330  -0.40734  -0.38000  -0.27861
 Alpha virt. eigenvalues --    0.01566   0.06998   0.07320   0.07897   0.09520
 Alpha virt. eigenvalues --    0.11665   0.12342   0.14541   0.15564   0.16195
 Alpha virt. eigenvalues --    0.18822   0.19618   0.21713   0.23024   0.23916

 Mulliken charges:
               1
     1  C   -0.176127
     2  C   -0.022198
     3  C   -0.032611
     4  C   -0.174975
     5  H    0.091032
     6  H    0.070077
     7  H    0.043939
     8  H    0.048425
     9  H    0.064447
    10  H    0.087991
 Sum of Mulliken charges =   0.00000

 Dipole moment (field-independent basis, Debye):
    X=             -0.0306    Y=              0.0126    Z=             -0.1531  Tot=              0.1566
 Quadrupole moment (field-independent basis, Debye-Ang):
   XX=            -23.4461   YY=            -23.2280   ZZ=            -29.3702
   XY=             -0.1161   XZ=             -0.1095   YZ=             -0.1517

 1\1\GINC-NODE22\SP\RB2PLYPD3-FC\def2QZVP\C4H6\BOITTIER\26-Aug-2020\0\\
 #p B2PLYPD3/Def2QZVP\\butadiene\\0,1\C,0,-3.859995,0.21215,0.043413\C,
 0,-2.732715,-0.477285,0.008383\C,0,-1.377357,0.073633,-0.051327\C,0,-0
 .24769,-0.659865,0.07699\H,0,-4.832139,-0.287387,0.132588\H,0,-3.79928
 2,1.268669,0.054544\H,0,-2.754227,-1.595319,0.047789\H,0,-1.230068,1.1
 75422,0.04718\H,0,-0.313416,-1.756873,0.048456\H,0,0.727937,-0.180359,
 0.091006\\Version=ES64L-G09RevD.01\State=1-A\HF=-155.6950632\MP2=-155.
 9215476\RMSD=6.725e-09\PG=C01 [X(C4H6)]\\@

 Normal termination of Gaussian 09 at Wed Aug 26 09:44:17 2020.
