 Gaussian 09, Revision D.01,
 Gaussian 09:  ES64L-G09RevD.01 24-Apr-2013

 --------------------
 #p B2PLYPD3/Def2QZVP
 --------------------

 ---------
 butadiene
 ---------
 Symbolic Z-matrix:
 Charge =  0 Multiplicity = 1

                         Standard orientation:
 ---------------------------------------------------------------------
 Center     Atomic      Atomic             Coordinates (Angstroms)
 Number     Number       Type             X           Y           Z
 ---------------------------------------------------------------------
      1          6           0        1.842102   -0.120645    0.011905
      2          6           0        0.609994    0.409137   -0.016886
      3          6           0       -0.614466   -0.381321   -0.029925
      4          6           0       -1.848540    0.095106    0.024658
      5          1           0        2.747577    0.481734    0.017623
      6          1           0        1.989732   -1.191326    0.036804
      7          1           0        0.524835    1.505637    0.019945
      8          1           0       -0.466686   -1.452340   -0.022418
      9          1           0       -2.013021    1.150433   -0.033082
     10          1           0       -2.716981   -0.507797    0.042616
 ---------------------------------------------------------------------

 SCF Done:  E(RB2PLYPD3) =  -155.700193953     A.U. after   11 cycles
 E2(B2PLYPD3) =    -0.2254686537D+00 E(B2PLYPD3) =    -0.15592566260640D+03

 The electronic state is 1-A.
 Alpha  occ. eigenvalues --  -10.62879 -10.62404 -10.61725 -10.60968  -0.92938
 Alpha  occ. eigenvalues --   -0.85111  -0.70361  -0.64040  -0.54962  -0.53971
 Alpha  occ. eigenvalues --   -0.47054  -0.45404  -0.41004  -0.38117  -0.27807
 Alpha virt. eigenvalues --    0.01715   0.07020   0.07486   0.08059   0.09665
 Alpha virt. eigenvalues --    0.11625   0.12593   0.14621   0.15891   0.16289
 Alpha virt. eigenvalues --    0.18877   0.20464   0.21801   0.22836   0.23654

 Mulliken charges:
               1
     1  C   -0.173308
     2  C   -0.032189
     3  C   -0.027747
     4  C   -0.172233
     5  H    0.085772
     6  H    0.063454
     7  H    0.052905
     8  H    0.052792
     9  H    0.062832
    10  H    0.087722
 Sum of Mulliken charges =   0.00000

 Dipole moment (field-independent basis, Debye):
    X=              0.0074    Y=             -0.0086    Z=              0.0219  Tot=              0.0247
 Quadrupole moment (field-independent basis, Debye-Ang):
   XX=            -23.1406   YY=            -23.2614   ZZ=            -29.2265
   XY=             -0.0774   XZ=              0.0842   YZ=             -0.0580

 1\1\GINC-NODE24\SP\RB2PLYPD3-FC\def2QZVP\C4H6\BOITTIER\26-Aug-2020\0\\
 #p B2PLYPD3/Def2QZVP\\butadiene\\0,1\C,0,-3.844584,0.231224,0.033137\C
 ,0,-2.726209,-0.509468,0.01899\C,0,-1.380929,0.050428,-0.013164\C,0,-0
 .250841,-0.636013,0.054674\H,0,-4.842586,-0.200467,0.053448\H,0,-3.799
 706,1.311387,0.030529\H,0,-2.836922,-1.602377,0.083913\H,0,-1.336202,1
 .13051,-0.033167\H,0,-0.276531,-1.704894,0.024074\H,0,0.710895,-0.1966
 31,0.057985\\Version=ES64L-G09RevD.01\State=1-A\HF=-155.700194\MP2=-15
 5.9256626\RMSD=4.990e-09\PG=C01 [X(C4H6)]\\@

 Normal termination of Gaussian 09 at Wed Aug 26 21:27:01 2020.
