 Gaussian 09, Revision D.01,
 Gaussian 09:  ES64L-G09RevD.01 24-Apr-2013

 --------------------
 #p B2PLYPD3/Def2QZVP
 --------------------

 ---------
 butadiene
 ---------
 Symbolic Z-matrix:
 Charge =  0 Multiplicity = 1

                         Standard orientation:
 ---------------------------------------------------------------------
 Center     Atomic      Atomic             Coordinates (Angstroms)
 Number     Number       Type             X           Y           Z
 ---------------------------------------------------------------------
      1          6           0        1.850585    0.098530    0.019767
      2          6           0        0.606332   -0.381581   -0.034485
      3          6           0       -0.608810    0.412895   -0.016852
      4          6           0       -1.840697   -0.118767    0.006301
      5          1           0        2.724303   -0.537915    0.046765
      6          1           0        2.005701    1.154092    0.043434
      7          1           0        0.475842   -1.445537   -0.035789
      8          1           0       -0.498434    1.477516   -0.033828
      9          1           0       -1.997875   -1.193414    0.080052
     10          1           0       -2.753993    0.478794    0.050982
 ---------------------------------------------------------------------

 SCF Done:  E(RB2PLYPD3) =  -155.700575674     A.U. after   11 cycles
 E2(B2PLYPD3) =    -0.2256656813D+00 E(B2PLYPD3) =    -0.15592624135501D+03

 The electronic state is 1-A.
 Alpha  occ. eigenvalues --  -10.62607 -10.62320 -10.61877 -10.61320  -0.92992
 Alpha  occ. eigenvalues --   -0.84879  -0.70276  -0.64450  -0.54674  -0.53998
 Alpha  occ. eigenvalues --   -0.46949  -0.45440  -0.41255  -0.38102  -0.27654
 Alpha virt. eigenvalues --    0.01592   0.06982   0.07532   0.08075   0.09630
 Alpha virt. eigenvalues --    0.11637   0.12542   0.14645   0.15907   0.16245
 Alpha virt. eigenvalues --    0.18868   0.20542   0.21694   0.22765   0.23645

 Mulliken charges:
               1
     1  C   -0.177705
     2  C   -0.025723
     3  C   -0.037928
     4  C   -0.169901
     5  H    0.087724
     6  H    0.063985
     7  H    0.055093
     8  H    0.058518
     9  H    0.063323
    10  H    0.082614
 Sum of Mulliken charges =   0.00000

 Dipole moment (field-independent basis, Debye):
    X=             -0.0236    Y=              0.0025    Z=              0.1062  Tot=              0.1088
 Quadrupole moment (field-independent basis, Debye-Ang):
   XX=            -23.2776   YY=            -23.2050   ZZ=            -29.2528
   XY=              0.0859   XZ=             -0.0781   YZ=             -0.0578

 1\1\GINC-NODE09\SP\RB2PLYPD3-FC\def2QZVP\C4H6\BOITTIER\26-Aug-2020\0\\
 #p B2PLYPD3/Def2QZVP\\butadiene\\0,1\C,0,-3.855011,0.210511,-0.001811\
 C,0,-2.716213,-0.482498,0.065214\C,0,-1.378882,0.081731,0.029659\C,0,-
 0.261706,-0.661627,0.02053\H,0,-4.82835,-0.260262,-0.014342\H,0,-3.819
 379,1.27594,-0.051038\H,0,-2.777647,-1.552323,0.092261\H,0,-1.297477,1
 .149057,0.02089\H,0,-0.299038,-1.748523,-0.027171\H,0,0.7434,-0.237876
 ,-0.037622\\Version=ES64L-G09RevD.01\State=1-A\HF=-155.7005757\MP2=-15
 5.9262414\RMSD=3.999e-09\PG=C01 [X(C4H6)]\\@

 Normal termination of Gaussian 09 at Wed Aug 26 21:44:38 2020.
