 Gaussian 09, Revision D.01,
 Gaussian 09:  ES64L-G09RevD.01 24-Apr-2013

 --------------------
 #p B2PLYPD3/Def2QZVP
 --------------------

 ---------
 butadiene
 ---------
 Symbolic Z-matrix:
 Charge =  0 Multiplicity = 1

                         Standard orientation:
 ---------------------------------------------------------------------
 Center     Atomic      Atomic             Coordinates (Angstroms)
 Number     Number       Type             X           Y           Z
 ---------------------------------------------------------------------
      1          6           0       -1.847152    0.082492   -0.019508
      2          6           0       -0.577123   -0.359161   -0.031831
      3          6           0        0.618368    0.404361   -0.009432
      4          6           0        1.850540   -0.094972    0.005958
      5          1           0       -2.646485   -0.607509    0.165105
      6          1           0       -2.237953    1.071997   -0.019535
      7          1           0       -0.474014   -1.423097    0.006744
      8          1           0        0.341028    1.486964    0.158889
      9          1           0        2.027149   -1.161143    0.091257
     10          1           0        2.722475    0.436468   -0.073585
 ---------------------------------------------------------------------

 SCF Done:  E(RB2PLYPD3) =  -155.685798699     A.U. after   11 cycles
 E2(B2PLYPD3) =    -0.2260379520D+00 E(B2PLYPD3) =    -0.15591183665151D+03

 The electronic state is 1-A.
 Alpha  occ. eigenvalues --  -10.62890 -10.62235 -10.61390 -10.61289  -0.93436
 Alpha  occ. eigenvalues --   -0.85079  -0.71880  -0.64015  -0.56000  -0.53572
 Alpha  occ. eigenvalues --   -0.47611  -0.45532  -0.40705  -0.37964  -0.27462
 Alpha virt. eigenvalues --    0.00937   0.07009   0.07403   0.08178   0.09826
 Alpha virt. eigenvalues --    0.11488   0.12683   0.15006   0.15519   0.16566
 Alpha virt. eigenvalues --    0.19034   0.19632   0.21674   0.22994   0.23860

 Mulliken charges:
               1
     1  C   -0.174939
     2  C   -0.013572
     3  C   -0.034338
     4  C   -0.167005
     5  H    0.073003
     6  H    0.061298
     7  H    0.052383
     8  H    0.052321
     9  H    0.060582
    10  H    0.090268
 Sum of Mulliken charges =   0.00000

 Dipole moment (field-independent basis, Debye):
    X=              0.0462    Y=             -0.0316    Z=              0.2533  Tot=              0.2594
 Quadrupole moment (field-independent basis, Debye-Ang):
   XX=            -22.7555   YY=            -23.6677   ZZ=            -29.0552
   XY=             -0.6802   XZ=             -0.4478   YZ=             -0.1321

 1\1\GINC-NODE37\SP\RB2PLYPD3-FC\def2QZVP\C4H6\BOITTIER\26-Aug-2020\0\\
 #p B2PLYPD3/Def2QZVP\\butadiene\\0,1\C,0,-3.855194,0.217044,0.011613\C
 ,0,-2.693429,-0.46007,0.012756\C,0,-1.373676,0.060401,0.007553\C,0,-0.
 259898,-0.66511,0.03841\H,0,-4.770441,-0.300378,0.220692\H,0,-4.049189
 ,1.262559,-0.021696\H,0,-2.795748,-1.522154,0.087497\H,0,-1.437167,1.1
 81081,0.139172\H,0,-0.290145,-1.741924,0.159831\H,0,0.697048,-0.313643
 ,-0.06034\\Version=ES64L-G09RevD.01\State=1-A\HF=-155.6857987\MP2=-155
 .9118367\RMSD=4.665e-09\PG=C01 [X(C4H6)]\\@

 Normal termination of Gaussian 09 at Wed Aug 26 13:54:49 2020.
