 Gaussian 09, Revision D.01,
 Gaussian 09:  ES64L-G09RevD.01 24-Apr-2013

 --------------------
 #p B2PLYPD3/Def2QZVP
 --------------------

 ---------
 butadiene
 ---------
 Symbolic Z-matrix:
 Charge =  0 Multiplicity = 1

                         Standard orientation:
 ---------------------------------------------------------------------
 Center     Atomic      Atomic             Coordinates (Angstroms)
 Number     Number       Type             X           Y           Z
 ---------------------------------------------------------------------
      1          6           0        1.834541   -0.116236    0.001787
      2          6           0        0.605102    0.403492   -0.023633
      3          6           0       -0.605843   -0.389050   -0.020586
      4          6           0       -1.843031    0.114467    0.010607
      5          1           0        2.747280    0.498556    0.089314
      6          1           0        2.002020   -1.197767    0.005050
      7          1           0        0.530205    1.498914    0.004483
      8          1           0       -0.499695   -1.460194    0.037367
      9          1           0       -2.043347    1.155614    0.025334
     10          1           0       -2.681072   -0.571161    0.029397
 ---------------------------------------------------------------------

 SCF Done:  E(RB2PLYPD3) =  -155.699671280     A.U. after   11 cycles
 E2(B2PLYPD3) =    -0.2257983070D+00 E(B2PLYPD3) =    -0.15592546958730D+03

 The electronic state is 1-A.
 Alpha  occ. eigenvalues --  -10.62651 -10.62431 -10.61850 -10.61270  -0.93020
 Alpha  occ. eigenvalues --   -0.84940  -0.70055  -0.64061  -0.54419  -0.54187
 Alpha  occ. eigenvalues --   -0.46365  -0.45520  -0.41204  -0.38183  -0.27654
 Alpha virt. eigenvalues --    0.01685   0.06981   0.07456   0.07937   0.09659
 Alpha virt. eigenvalues --    0.11657   0.12385   0.14718   0.15840   0.16240
 Alpha virt. eigenvalues --    0.18806   0.20357   0.21637   0.22714   0.23868

 Mulliken charges:
               1
     1  C   -0.170308
     2  C   -0.031012
     3  C   -0.031067
     4  C   -0.177656
     5  H    0.081944
     6  H    0.061436
     7  H    0.054259
     8  H    0.057300
     9  H    0.072078
    10  H    0.083027
 Sum of Mulliken charges =   0.00000

 Dipole moment (field-independent basis, Debye):
    X=              0.0081    Y=              0.0009    Z=              0.1418  Tot=              0.1420
 Quadrupole moment (field-independent basis, Debye-Ang):
   XX=            -23.5110   YY=            -23.0611   ZZ=            -29.2782
   XY=             -0.0926   XZ=              0.1305   YZ=              0.0198

 1\1\GINC-NODE07\SP\RB2PLYPD3-FC\def2QZVP\C4H6\BOITTIER\26-Aug-2020\0\\
 #p B2PLYPD3/Def2QZVP\\butadiene\\0,1\C,0,-3.837684,0.226464,0.025584\C
 ,0,-2.720108,-0.503754,0.016133\C,0,-1.387742,0.06101,-0.002894\C,0,-0
 .259413,-0.653015,0.04378\H,0,-4.844637,-0.213786,0.130217\H,0,-3.8105
 7,1.320191,-0.00261\H,0,-2.84066,-1.593813,0.076028\H,0,-1.301872,1.13
 5199,0.023924\H,0,-0.246966,-1.71233,0.08881\H,0,0.687068,-0.126779,0.
 043313\\Version=ES64L-G09RevD.01\State=1-A\HF=-155.6996713\MP2=-155.92
 54696\RMSD=4.903e-09\PG=C01 [X(C4H6)]\\@

 Normal termination of Gaussian 09 at Wed Aug 26 18:48:30 2020.
