 Gaussian 09, Revision D.01,
 Gaussian 09:  ES64L-G09RevD.01 24-Apr-2013

 --------------------
 #p B2PLYPD3/Def2QZVP
 --------------------

 ---------
 butadiene
 ---------
 Symbolic Z-matrix:
 Charge =  0 Multiplicity = 1

                         Standard orientation:
 ---------------------------------------------------------------------
 Center     Atomic      Atomic             Coordinates (Angstroms)
 Number     Number       Type             X           Y           Z
 ---------------------------------------------------------------------
      1          6           0        1.837598    0.103453   -0.040824
      2          6           0        0.616353   -0.374105    0.031609
      3          6           0       -0.608886    0.403606    0.002825
      4          6           0       -1.836764   -0.112595   -0.025038
      5          1           0        2.624830   -0.602292   -0.009604
      6          1           0        2.060250    1.158363    0.000478
      7          1           0        0.458435   -1.424485    0.150172
      8          1           0       -0.507769    1.502115    0.100119
      9          1           0       -1.950546   -1.250038   -0.089276
     10          1           0       -2.735007    0.494186    0.036680
 ---------------------------------------------------------------------

 SCF Done:  E(RB2PLYPD3) =  -155.695662920     A.U. after   11 cycles
 E2(B2PLYPD3) =    -0.2254993822D+00 E(B2PLYPD3) =    -0.15592116230233D+03

 The electronic state is 1-A.
 Alpha  occ. eigenvalues --  -10.62566 -10.62188 -10.61958 -10.60898  -0.93221
 Alpha  occ. eigenvalues --   -0.85293  -0.70056  -0.63590  -0.54682  -0.53909
 Alpha  occ. eigenvalues --   -0.47135  -0.45230  -0.40803  -0.38002  -0.28025
 Alpha virt. eigenvalues --    0.01906   0.07031   0.07320   0.08007   0.09804
 Alpha virt. eigenvalues --    0.11674   0.12283   0.14662   0.15736   0.16100
 Alpha virt. eigenvalues --    0.18756   0.20383   0.21268   0.22432   0.24175

 Mulliken charges:
               1
     1  C   -0.173708
     2  C   -0.028831
     3  C   -0.027156
     4  C   -0.174988
     5  H    0.083862
     6  H    0.072090
     7  H    0.053115
     8  H    0.048294
     9  H    0.055834
    10  H    0.091488
 Sum of Mulliken charges =   0.00000

 Dipole moment (field-independent basis, Debye):
    X=              0.0116    Y=              0.0189    Z=              0.1967  Tot=              0.1979
 Quadrupole moment (field-independent basis, Debye-Ang):
   XX=            -23.5994   YY=            -23.1503   ZZ=            -29.1835
   XY=              0.0054   XZ=              0.0300   YZ=              0.0993

 1\1\GINC-NODE39\SP\RB2PLYPD3-FC\def2QZVP\C4H6\BOITTIER\26-Aug-2020\0\\
 #p B2PLYPD3/Def2QZVP\\butadiene\\0,1\C,0,-3.840665,0.215601,0.052983\C
 ,0,-2.725158,-0.475608,0.001795\C,0,-1.380228,0.070316,0.003748\C,0,-0
 .264672,-0.656254,0.054275\H,0,-4.741798,-0.338211,0.046893\H,0,-3.870
 775,1.290989,-0.029169\H,0,-2.75864,-1.541019,-0.076129\H,0,-1.28321,1
 .164641,-0.135732\H,0,-0.356359,-1.792382,0.162243\H,0,0.727512,-0.223
 172,-0.028453\\Version=ES64L-G09RevD.01\State=1-A\HF=-155.6956629\MP2=
 -155.9211623\RMSD=4.929e-09\PG=C01 [X(C4H6)]\\@

 Normal termination of Gaussian 09 at Wed Aug 26 08:47:36 2020.
