 Gaussian 09, Revision D.01,
 Gaussian 09:  ES64L-G09RevD.01 24-Apr-2013

 --------------------
 #p B2PLYPD3/Def2QZVP
 --------------------

 ---------
 butadiene
 ---------
 Symbolic Z-matrix:
 Charge =  0 Multiplicity = 1

                         Standard orientation:
 ---------------------------------------------------------------------
 Center     Atomic      Atomic             Coordinates (Angstroms)
 Number     Number       Type             X           Y           Z
 ---------------------------------------------------------------------
      1          6           0        1.864895   -0.101920   -0.028284
      2          6           0        0.601193    0.362623    0.030361
      3          6           0       -0.625992   -0.456974    0.020535
      4          6           0       -1.847025    0.154496   -0.067899
      5          1           0        2.556859    0.670680   -0.066260
      6          1           0        2.154018   -1.092676   -0.084784
      7          1           0        0.505743    1.460679    0.251646
      8          1           0       -0.441846   -1.467370    0.131374
      9          1           0       -1.970606    1.207879   -0.095659
     10          1           0       -2.762589   -0.528544    0.135401
 ---------------------------------------------------------------------

 SCF Done:  E(RB2PLYPD3) =  -155.680469173     A.U. after   12 cycles
 E2(B2PLYPD3) =    -0.2270187597D+00 E(B2PLYPD3) =    -0.15590748793282D+03

 The electronic state is 1-A.
 Alpha  occ. eigenvalues --  -10.62936 -10.62873 -10.62755 -10.60538  -0.92394
 Alpha  occ. eigenvalues --   -0.84649  -0.70318  -0.64485  -0.54832  -0.53248
 Alpha  occ. eigenvalues --   -0.47841  -0.45378  -0.40930  -0.36973  -0.27449
 Alpha virt. eigenvalues --    0.01249   0.06940   0.07489   0.07878   0.09128
 Alpha virt. eigenvalues --    0.11690   0.12228   0.14984   0.15367   0.16042
 Alpha virt. eigenvalues --    0.18658   0.19553   0.21827   0.22383   0.24738

 Mulliken charges:
               1
     1  C   -0.192461
     2  C   -0.019780
     3  C   -0.058459
     4  C   -0.165840
     5  H    0.083468
     6  H    0.073938
     7  H    0.051283
     8  H    0.073549
     9  H    0.081077
    10  H    0.073225
 Sum of Mulliken charges =   0.00000

 Dipole moment (field-independent basis, Debye):
    X=              0.0546    Y=             -0.0330    Z=              0.2564  Tot=              0.2642
 Quadrupole moment (field-independent basis, Debye-Ang):
   XX=            -24.2450   YY=            -22.7694   ZZ=            -29.3288
   XY=             -0.4869   XZ=             -0.5480   YZ=             -0.0600

 1\1\GINC-NODE27\SP\RB2PLYPD3-FC\def2QZVP\C4H6\BOITTIER\26-Aug-2020\0\\
 #p B2PLYPD3/Def2QZVP\\butadiene\\0,1\C,0,-3.870685,0.214328,-0.010865\
 C,0,-2.710614,-0.467126,0.066843\C,0,-1.356548,0.11923,0.044248\C,0,-0
 .264526,-0.702825,-0.021715\H,0,-4.689687,-0.42275,-0.033979\H,0,-3.97
 7741,1.239068,-0.0935\H,0,-2.81356,-1.558586,0.315682\H,0,-1.357065,1.
 148747,0.129048\H,0,-0.331417,-1.761684,-0.022771\H,0,0.758183,-0.1896
 43,0.170228\\Version=ES64L-G09RevD.01\State=1-A\HF=-155.6804692\MP2=-1
 55.9074879\RMSD=5.135e-09\PG=C01 [X(C4H6)]\\@

 Normal termination of Gaussian 09 at Wed Aug 26 12:12:07 2020.
