 Gaussian 09, Revision D.01,
 Gaussian 09:  ES64L-G09RevD.01 24-Apr-2013

 --------------------
 #p B2PLYPD3/Def2QZVP
 --------------------

 ---------
 butadiene
 ---------
 Symbolic Z-matrix:
 Charge =  0 Multiplicity = 1

                         Standard orientation:
 ---------------------------------------------------------------------
 Center     Atomic      Atomic             Coordinates (Angstroms)
 Number     Number       Type             X           Y           Z
 ---------------------------------------------------------------------
      1          6           0        1.829320   -0.096573   -0.002558
      2          6           0        0.591977    0.380583   -0.008974
      3          6           0       -0.602627   -0.414112    0.000817
      4          6           0       -1.819420    0.120914    0.008404
      5          1           0        2.721295    0.521313    0.005804
      6          1           0        1.994375   -1.147439    0.072005
      7          1           0        0.465822    1.458690   -0.046985
      8          1           0       -0.497443   -1.465670   -0.035669
      9          1           0       -1.986838    1.197419    0.070504
     10          1           0       -2.692709   -0.509191   -0.051797
 ---------------------------------------------------------------------

 SCF Done:  E(RB2PLYPD3) =  -155.700499342     A.U. after   11 cycles
 E2(B2PLYPD3) =    -0.2251742394D+00 E(B2PLYPD3) =    -0.15592567358122D+03

 The electronic state is 1-A.
 Alpha  occ. eigenvalues --  -10.62110 -10.61998 -10.61474 -10.61081  -0.93492
 Alpha  occ. eigenvalues --   -0.85106  -0.70274  -0.64469  -0.54826  -0.54222
 Alpha  occ. eigenvalues --   -0.46838  -0.45399  -0.41312  -0.38447  -0.27675
 Alpha virt. eigenvalues --    0.01824   0.07032   0.07496   0.08072   0.09761
 Alpha virt. eigenvalues --    0.11724   0.12506   0.14809   0.15880   0.16245
 Alpha virt. eigenvalues --    0.18757   0.20429   0.21744   0.22833   0.23861

 Mulliken charges:
               1
     1  C   -0.176778
     2  C   -0.021622
     3  C   -0.035866
     4  C   -0.173438
     5  H    0.084399
     6  H    0.060615
     7  H    0.052137
     8  H    0.060364
     9  H    0.067559
    10  H    0.082630
 Sum of Mulliken charges =   0.00000

 Dipole moment (field-independent basis, Debye):
    X=             -0.0366    Y=             -0.0231    Z=              0.0132  Tot=              0.0452
 Quadrupole moment (field-independent basis, Debye-Ang):
   XX=            -23.4546   YY=            -23.1233   ZZ=            -29.1246
   XY=             -0.0961   XZ=              0.1859   YZ=              0.0324

 1\1\GINC-NODE30\SP\RB2PLYPD3-FC\def2QZVP\C4H6\BOITTIER\26-Aug-2020\0\\
 #p B2PLYPD3/Def2QZVP\\butadiene\\0,1\C,0,-3.834181,0.210512,0.018519\C
 ,0,-2.703799,-0.482952,0.027459\C,0,-1.384964,0.082006,0.01284\C,0,-0.
 2852,-0.664186,0.037577\H,0,-4.823272,-0.234936,0.045866\H,0,-3.805742
 ,1.275679,0.060149\H,0,-2.775234,-1.56672,0.023201\H,0,-1.29811,1.1335
 83,-0.056525\H,0,-0.315234,-1.750774,0.133345\H,0,0.687452,-0.204937,-
 0.041972\\Version=ES64L-G09RevD.01\State=1-A\HF=-155.7004993\MP2=-155.
 9256736\RMSD=4.736e-09\PG=C01 [X(C4H6)]\\@

 Normal termination of Gaussian 09 at Wed Aug 26 15:12:21 2020.
