 Gaussian 09, Revision D.01,
 Gaussian 09:  ES64L-G09RevD.01 24-Apr-2013

 --------------------
 #p B2PLYPD3/Def2QZVP
 --------------------

 ---------
 butadiene
 ---------
 Symbolic Z-matrix:
 Charge =  0 Multiplicity = 1

                         Standard orientation:
 ---------------------------------------------------------------------
 Center     Atomic      Atomic             Coordinates (Angstroms)
 Number     Number       Type             X           Y           Z
 ---------------------------------------------------------------------
      1          6           0        1.829848   -0.105420   -0.021114
      2          6           0        0.582467    0.386128    0.038937
      3          6           0       -0.601062   -0.402086   -0.002423
      4          6           0       -1.819178    0.104938   -0.036582
      5          1           0        2.621912    0.540505   -0.019689
      6          1           0        2.002050   -1.177014   -0.115450
      7          1           0        0.455857    1.491143    0.103775
      8          1           0       -0.443900   -1.453491    0.180291
      9          1           0       -1.876920    1.208900   -0.067127
     10          1           0       -2.711448   -0.511404    0.045291
 ---------------------------------------------------------------------

 SCF Done:  E(RB2PLYPD3) =  -155.694419990     A.U. after   11 cycles
 E2(B2PLYPD3) =    -0.2257961663D+00 E(B2PLYPD3) =    -0.15592021615677D+03

 The electronic state is 1-A.
 Alpha  occ. eigenvalues --  -10.62469 -10.61829 -10.61593 -10.60949  -0.93639
 Alpha  occ. eigenvalues --   -0.85128  -0.70531  -0.63702  -0.54985  -0.54037
 Alpha  occ. eigenvalues --   -0.46798  -0.45434  -0.41453  -0.38240  -0.27611
 Alpha virt. eigenvalues --    0.01654   0.07135   0.07301   0.08060   0.09721
 Alpha virt. eigenvalues --    0.11769   0.12435   0.14755   0.15455   0.16241
 Alpha virt. eigenvalues --    0.18643   0.20087   0.21492   0.22761   0.24382

 Mulliken charges:
               1
     1  C   -0.185243
     2  C   -0.025392
     3  C   -0.019235
     4  C   -0.177961
     5  H    0.092367
     6  H    0.066504
     7  H    0.041422
     8  H    0.055524
     9  H    0.061076
    10  H    0.090938
 Sum of Mulliken charges =   0.00000

 Dipole moment (field-independent basis, Debye):
    X=             -0.0019    Y=             -0.0197    Z=              0.1345  Tot=              0.1360
 Quadrupole moment (field-independent basis, Debye-Ang):
   XX=            -23.6868   YY=            -23.1665   ZZ=            -29.1272
   XY=              0.0849   XZ=             -0.3997   YZ=             -0.0879

 1\1\GINC-NODE24\SP\RB2PLYPD3-FC\def2QZVP\C4H6\BOITTIER\26-Aug-2020\0\\
 #p B2PLYPD3/Def2QZVP\\butadiene\\0,1\C,0,-3.832994,0.221724,-0.004222\
 C,0,-2.696868,-0.48854,0.072757\C,0,-1.388901,0.06836,0.019665\C,0,-0.
 284314,-0.65389,0.002659\H,0,-4.730021,-0.267957,0.007688\H,0,-3.80582
 5,1.304309,-0.123129\H,0,-2.774961,-1.596288,0.162694\H,0,-1.35084,1.1
 34632,0.178257\H,0,-0.42985,-1.75015,-0.003119\H,0,0.705742,-0.209753,
 0.075168\\Version=ES64L-G09RevD.01\State=1-A\HF=-155.69442\MP2=-155.92
 02162\RMSD=7.664e-09\PG=C01 [X(C4H6)]\\@

 Normal termination of Gaussian 09 at Wed Aug 26 09:03:19 2020.
