 Gaussian 09, Revision D.01,
 Gaussian 09:  ES64L-G09RevD.01 24-Apr-2013

 --------------------
 #p B2PLYPD3/Def2QZVP
 --------------------

 ---------
 butadiene
 ---------
 Symbolic Z-matrix:
 Charge =  0 Multiplicity = 1

                         Standard orientation:
 ---------------------------------------------------------------------
 Center     Atomic      Atomic             Coordinates (Angstroms)
 Number     Number       Type             X           Y           Z
 ---------------------------------------------------------------------
      1          6           0       -1.800931    0.114925   -0.104389
      2          6           0       -0.586010   -0.432885    0.063319
      3          6           0        0.573538    0.388128    0.061255
      4          6           0        1.799001   -0.108220   -0.062995
      5          1           0       -2.720504   -0.426588   -0.007726
      6          1           0       -1.863072    1.252631   -0.019683
      7          1           0       -0.590167   -1.501025    0.305250
      8          1           0        0.500608    1.447598    0.175513
      9          1           0        2.134357   -1.108002   -0.232773
     10          1           0        2.625195    0.563696    0.036277
 ---------------------------------------------------------------------

 SCF Done:  E(RB2PLYPD3) =  -155.686676315     A.U. after   11 cycles
 E2(B2PLYPD3) =    -0.2263790310D+00 E(B2PLYPD3) =    -0.15591305534579D+03

 The electronic state is 1-A.
 Alpha  occ. eigenvalues --  -10.62453 -10.62122 -10.61798 -10.60909  -0.93642
 Alpha  occ. eigenvalues --   -0.84852  -0.70133  -0.64154  -0.55183  -0.53990
 Alpha  occ. eigenvalues --   -0.46671  -0.44524  -0.41781  -0.37602  -0.27503
 Alpha virt. eigenvalues --    0.01550   0.07065   0.07381   0.07817   0.09475
 Alpha virt. eigenvalues --    0.11510   0.12639   0.14784   0.15732   0.16637
 Alpha virt. eigenvalues --    0.18862   0.19750   0.21732   0.21915   0.24376

 Mulliken charges:
               1
     1  C   -0.161321
     2  C   -0.043485
     3  C   -0.026521
     4  C   -0.172235
     5  H    0.078099
     6  H    0.047528
     7  H    0.069378
     8  H    0.066831
     9  H    0.072806
    10  H    0.068920
 Sum of Mulliken charges =   0.00000

 Dipole moment (field-independent basis, Debye):
    X=              0.0614    Y=             -0.0604    Z=              0.3327  Tot=              0.3437
 Quadrupole moment (field-independent basis, Debye-Ang):
   XX=            -23.6913   YY=            -23.1664   ZZ=            -29.0616
   XY=             -0.0024   XZ=             -0.5185   YZ=              0.1366

 1\1\GINC-NODE03\SP\RB2PLYPD3-FC\def2QZVP\C4H6\BOITTIER\26-Aug-2020\0\\
 #p B2PLYPD3/Def2QZVP\\butadiene\\0,1\C,0,-3.80027,0.227178,-0.071272\C
 ,0,-2.70417,-0.527953,0.109269\C,0,-1.414452,0.067288,0.078685\C,0,-0.
 301108,-0.647752,-0.034192\H,0,-4.802283,-0.134389,0.044634\H,0,-3.653
 256,1.35911,-0.020993\H,0,-2.900889,-1.569843,0.383565\H,0,-1.292054,1
 .125166,0.160912\H,0,-0.155082,-1.696481,-0.174536\H,0,0.634544,-0.135
 246,0.042069\\Version=ES64L-G09RevD.01\State=1-A\HF=-155.6866763\MP2=-
 155.9130553\RMSD=7.324e-09\PG=C01 [X(C4H6)]\\@

 Normal termination of Gaussian 09 at Wed Aug 26 12:14:04 2020.
