 Gaussian 09, Revision D.01,
 Gaussian 09:  ES64L-G09RevD.01 24-Apr-2013

 --------------------
 #p B2PLYPD3/Def2QZVP
 --------------------

 ---------
 butadiene
 ---------
 Symbolic Z-matrix:
 Charge =  0 Multiplicity = 1

                         Standard orientation:
 ---------------------------------------------------------------------
 Center     Atomic      Atomic             Coordinates (Angstroms)
 Number     Number       Type             X           Y           Z
 ---------------------------------------------------------------------
      1          6           0       -1.834602   -0.122329   -0.017717
      2          6           0       -0.601504    0.410694    0.005934
      3          6           0        0.600986   -0.423832    0.037599
      4          6           0        1.824937    0.114531   -0.045300
      5          1           0       -2.669367    0.594775   -0.023387
      6          1           0       -1.999546   -1.197466   -0.091923
      7          1           0       -0.451466    1.489783    0.151186
      8          1           0        0.489046   -1.488517    0.110242
      9          1           0        1.929808    1.206565   -0.042819
     10          1           0        2.762622   -0.479519    0.013599
 ---------------------------------------------------------------------

 SCF Done:  E(RB2PLYPD3) =  -155.696404965     A.U. after   11 cycles
 E2(B2PLYPD3) =    -0.2265690501D+00 E(B2PLYPD3) =    -0.15592297401517D+03

 The electronic state is 1-A.
 Alpha  occ. eigenvalues --  -10.62841 -10.62499 -10.61923 -10.61873  -0.92805
 Alpha  occ. eigenvalues --   -0.84544  -0.69331  -0.64111  -0.53948  -0.53733
 Alpha  occ. eigenvalues --   -0.46220  -0.45521  -0.41257  -0.37766  -0.27605
 Alpha virt. eigenvalues --    0.01821   0.07023   0.07274   0.07930   0.09188
 Alpha virt. eigenvalues --    0.11725   0.12293   0.14574   0.15528   0.16221
 Alpha virt. eigenvalues --    0.18634   0.20007   0.21487   0.22884   0.24063

 Mulliken charges:
               1
     1  C   -0.183958
     2  C   -0.030122
     3  C   -0.037092
     4  C   -0.168559
     5  H    0.083336
     6  H    0.075819
     7  H    0.059667
     8  H    0.060202
     9  H    0.059641
    10  H    0.081065
 Sum of Mulliken charges =   0.00000

 Dipole moment (field-independent basis, Debye):
    X=              0.0157    Y=             -0.0200    Z=              0.1348  Tot=              0.1372
 Quadrupole moment (field-independent basis, Debye-Ang):
   XX=            -23.9816   YY=            -22.8978   ZZ=            -29.3925
   XY=              0.1053   XZ=              0.1995   YZ=              0.1132

 1\1\GINC-NODE10\SP\RB2PLYPD3-FC\def2QZVP\C4H6\BOITTIER\26-Aug-2020\0\\
 #p B2PLYPD3/Def2QZVP\\butadiene\\0,1\C,0,-3.834264,0.231826,0.037157\C
 ,0,-2.71662,-0.513774,0.024689\C,0,-1.384282,0.091081,-0.024765\C,0,-0
 .276179,-0.655915,0.069408\H,0,-4.783899,-0.323924,0.058099\H,0,-3.803
 767,1.32043,0.08858\H,0,-2.762765,-1.605076,-0.097679\H,0,-1.30408,1.1
 56853,-0.119941\H,0,-0.368524,-1.748887,0.090057\H,0,0.752474,-0.24074
 2,-0.002153\\Version=ES64L-G09RevD.01\State=1-A\HF=-155.696405\MP2=-15
 5.922974\RMSD=5.117e-09\PG=C01 [X(C4H6)]\\@

 Normal termination of Gaussian 09 at Wed Aug 26 08:51:05 2020.
