 Gaussian 09, Revision D.01,
 Gaussian 09:  ES64L-G09RevD.01 24-Apr-2013

 --------------------
 #p B2PLYPD3/Def2QZVP
 --------------------

 ---------
 butadiene
 ---------
 Symbolic Z-matrix:
 Charge =  0 Multiplicity = 1

                         Standard orientation:
 ---------------------------------------------------------------------
 Center     Atomic      Atomic             Coordinates (Angstroms)
 Number     Number       Type             X           Y           Z
 ---------------------------------------------------------------------
      1          6           0        1.848498    0.095646    0.013822
      2          6           0        0.604222   -0.380471   -0.018702
      3          6           0       -0.612627    0.404074   -0.031556
      4          6           0       -1.846713   -0.117701    0.019182
      5          1           0        2.742692   -0.523790    0.012991
      6          1           0        2.036556    1.161376    0.051280
      7          1           0        0.479114   -1.433449    0.006386
      8          1           0       -0.524221    1.495708   -0.019656
      9          1           0       -1.979291   -1.200646    0.000348
     10          1           0       -2.715135    0.491516    0.052183
 ---------------------------------------------------------------------

 SCF Done:  E(RB2PLYPD3) =  -155.700157268     A.U. after   11 cycles
 E2(B2PLYPD3) =    -0.2256387069D+00 E(B2PLYPD3) =    -0.15592579597533D+03

 The electronic state is 1-A.
 Alpha  occ. eigenvalues --  -10.62710 -10.62256 -10.61563 -10.61551  -0.93022
 Alpha  occ. eigenvalues --   -0.84987  -0.70398  -0.64180  -0.54912  -0.53942
 Alpha  occ. eigenvalues --   -0.46992  -0.45335  -0.41189  -0.38152  -0.27679
 Alpha virt. eigenvalues --    0.01570   0.07002   0.07513   0.08052   0.09738
 Alpha virt. eigenvalues --    0.11618   0.12520   0.14621   0.15910   0.16266
 Alpha virt. eigenvalues --    0.18901   0.20527   0.21610   0.22702   0.23728

 Mulliken charges:
               1
     1  C   -0.172087
     2  C   -0.030128
     3  C   -0.030763
     4  C   -0.175682
     5  H    0.085078
     6  H    0.061559
     7  H    0.056731
     8  H    0.051970
     9  H    0.063523
    10  H    0.089800
 Sum of Mulliken charges =   0.00000

 Dipole moment (field-independent basis, Debye):
    X=             -0.0187    Y=              0.0030    Z=              0.0598  Tot=              0.0627
 Quadrupole moment (field-independent basis, Debye-Ang):
   XX=            -23.1997   YY=            -23.2396   ZZ=            -29.2492
   XY=              0.0065   XZ=             -0.0130   YZ=              0.0622

 1\1\GINC-NODE37\SP\RB2PLYPD3-FC\def2QZVP\C4H6\BOITTIER\26-Aug-2020\0\\
 #p B2PLYPD3/Def2QZVP\\butadiene\\0,1\C,0,-3.85501,0.207765,0.002412\C,
 0,-2.715239,-0.480987,0.052535\C,0,-1.378134,0.074395,0.042684\C,0,-0.
 256833,-0.660094,0.011026\H,0,-4.845174,-0.242238,0.021293\H,0,-3.8505
 04,1.288213,-0.069427\H,0,-2.779656,-1.539674,0.06133\H,0,-1.270861,1.
 163391,-0.004244\H,0,-0.319066,-1.748188,0.064692\H,0,0.706031,-0.2165
 75,-0.039732\\Version=ES64L-G09RevD.01\State=1-A\HF=-155.7001573\MP2=-
 155.925796\RMSD=4.824e-09\PG=C01 [X(C4H6)]\\@

 Normal termination of Gaussian 09 at Wed Aug 26 16:37:52 2020.
