 Gaussian 09, Revision D.01,
 Gaussian 09:  ES64L-G09RevD.01 24-Apr-2013

 --------------------
 #p B2PLYPD3/Def2QZVP
 --------------------

 ---------
 butadiene
 ---------
 Symbolic Z-matrix:
 Charge =  0 Multiplicity = 1

                         Standard orientation:
 ---------------------------------------------------------------------
 Center     Atomic      Atomic             Coordinates (Angstroms)
 Number     Number       Type             X           Y           Z
 ---------------------------------------------------------------------
      1          6           0       -1.835556   -0.119929   -0.015675
      2          6           0       -0.607152    0.409828    0.016978
      3          6           0        0.609061   -0.374872    0.006724
      4          6           0        1.845869    0.095196   -0.027292
      5          1           0       -2.721519    0.495011    0.016216
      6          1           0       -2.023177   -1.184581   -0.069546
      7          1           0       -0.504602    1.463319    0.051221
      8          1           0        0.469991   -1.448857    0.104524
      9          1           0        2.011104    1.164698   -0.016892
     10          1           0        2.694871   -0.550926    0.030067
 ---------------------------------------------------------------------

 SCF Done:  E(RB2PLYPD3) =  -155.700577527     A.U. after   11 cycles
 E2(B2PLYPD3) =    -0.2252513333D+00 E(B2PLYPD3) =    -0.15592582885976D+03

 The electronic state is 1-A.
 Alpha  occ. eigenvalues --  -10.62316 -10.62187 -10.61602 -10.61140  -0.93165
 Alpha  occ. eigenvalues --   -0.85135  -0.70425  -0.64276  -0.54877  -0.54088
 Alpha  occ. eigenvalues --   -0.47137  -0.45494  -0.41119  -0.38137  -0.27790
 Alpha virt. eigenvalues --    0.01717   0.07020   0.07524   0.08081   0.09781
 Alpha virt. eigenvalues --    0.11673   0.12474   0.14776   0.15795   0.16264
 Alpha virt. eigenvalues --    0.18868   0.20468   0.21690   0.22674   0.23846

 Mulliken charges:
               1
     1  C   -0.171642
     2  C   -0.038353
     3  C   -0.022435
     4  C   -0.177838
     5  H    0.082558
     6  H    0.066193
     7  H    0.058812
     8  H    0.051680
     9  H    0.062394
    10  H    0.088631
 Sum of Mulliken charges =   0.00000

 Dipole moment (field-independent basis, Debye):
    X=             -0.0478    Y=              0.0042    Z=              0.1196  Tot=              0.1289
 Quadrupole moment (field-independent basis, Debye-Ang):
   XX=            -23.3322   YY=            -23.1784   ZZ=            -29.1644
   XY=              0.1142   XZ=              0.1943   YZ=             -0.0075

 1\1\GINC-NODE40\SP\RB2PLYPD3-FC\def2QZVP\C4H6\BOITTIER\26-Aug-2020\0\\
 #p B2PLYPD3/Def2QZVP\\butadiene\\0,1\C,0,-3.837222,0.234288,0.033494\C
 ,0,-2.72418,-0.508384,0.017379\C,0,-1.386731,0.044868,0.004125\C,0,-0.
 254352,-0.638624,0.052833\H,0,-4.81941,-0.212059,0.020058\H,0,-3.83021
 6,1.316453,0.054863\H,0,-2.812764,-1.563695,0.015262\H,0,-1.33107,1.12
 2932,-0.126376\H,0,-0.284027,-1.72023,0.075055\H,0,0.696618,-0.157652,
 -0.023901\\Version=ES64L-G09RevD.01\State=1-A\HF=-155.7005775\MP2=-155
 .9258289\RMSD=5.557e-09\PG=C01 [X(C4H6)]\\@

 Normal termination of Gaussian 09 at Wed Aug 26 20:18:17 2020.
