 Gaussian 09, Revision D.01,
 Gaussian 09:  ES64L-G09RevD.01 24-Apr-2013

 --------------------
 #p B2PLYPD3/Def2QZVP
 --------------------

 ---------
 butadiene
 ---------
 Symbolic Z-matrix:
 Charge =  0 Multiplicity = 1

                         Standard orientation:
 ---------------------------------------------------------------------
 Center     Atomic      Atomic             Coordinates (Angstroms)
 Number     Number       Type             X           Y           Z
 ---------------------------------------------------------------------
      1          6           0       -1.841076    0.102137    0.055791
      2          6           0       -0.632978   -0.395243   -0.055534
      3          6           0        0.605183    0.377632   -0.050308
      4          6           0        1.846912   -0.126356    0.040793
      5          1           0       -2.749329   -0.493245    0.008432
      6          1           0       -1.993452    1.239577    0.037197
      7          1           0       -0.562873   -1.462118   -0.083448
      8          1           0        0.584282    1.515823   -0.001009
      9          1           0        2.196994   -1.134317    0.138777
     10          1           0        2.656134    0.585264   -0.044401
 ---------------------------------------------------------------------

 SCF Done:  E(RB2PLYPD3) =  -155.689967540     A.U. after   11 cycles
 E2(B2PLYPD3) =    -0.2260916253D+00 E(B2PLYPD3) =    -0.15591605916555D+03

 The electronic state is 1-A.
 Alpha  occ. eigenvalues --  -10.63442 -10.62231 -10.61905 -10.61544  -0.92856
 Alpha  occ. eigenvalues --   -0.85232  -0.69948  -0.63424  -0.54968  -0.53622
 Alpha  occ. eigenvalues --   -0.46613  -0.44609  -0.40543  -0.38066  -0.27995
 Alpha virt. eigenvalues --    0.01703   0.06886   0.07456   0.07789   0.09741
 Alpha virt. eigenvalues --    0.11376   0.12398   0.14642   0.15833   0.16195
 Alpha virt. eigenvalues --    0.19002   0.20143   0.21623   0.21907   0.24053

 Mulliken charges:
               1
     1  C   -0.155835
     2  C   -0.039045
     3  C   -0.029178
     4  C   -0.171948
     5  H    0.084639
     6  H    0.053487
     7  H    0.061144
     8  H    0.051617
     9  H    0.071683
    10  H    0.073435
 Sum of Mulliken charges =   0.00000

 Dipole moment (field-independent basis, Debye):
    X=              0.0191    Y=             -0.0972    Z=             -0.0145  Tot=              0.1001
 Quadrupole moment (field-independent basis, Debye-Ang):
   XX=            -23.2586   YY=            -23.2110   ZZ=            -29.2914
   XY=             -0.0505   XZ=              0.1721   YZ=             -0.0621

 1\1\GINC-NODE21\SP\RB2PLYPD3-FC\def2QZVP\C4H6\BOITTIER\26-Aug-2020\0\\
 #p B2PLYPD3/Def2QZVP\\butadiene\\0,1\C,0,-3.843494,0.213056,0.071507\C
 ,0,-2.741084,-0.490922,-0.020084\C,0,-1.386947,0.053599,-0.034726\C,0,
 -0.252159,-0.656413,0.076331\H,0,-4.841879,-0.215729,0.039631\H,0,-3.7
 94879,1.358477,0.016897\H,0,-2.858475,-1.553985,-0.014444\H,0,-1.20860
 7,1.178923,-0.021048\H,0,-0.083326,-1.706453,0.206931\H,0,0.668749,-0.
 100092,-0.028249\\Version=ES64L-G09RevD.01\State=1-A\HF=-155.6899675\M
 P2=-155.9160592\RMSD=9.539e-09\PG=C01 [X(C4H6)]\\@

 Normal termination of Gaussian 09 at Wed Aug 26 14:26:37 2020.
