 Gaussian 09, Revision D.01,
 Gaussian 09:  ES64L-G09RevD.01 24-Apr-2013

 --------------------
 #p B2PLYPD3/Def2QZVP
 --------------------

 ---------
 butadiene
 ---------
 Symbolic Z-matrix:
 Charge =  0 Multiplicity = 1

                         Standard orientation:
 ---------------------------------------------------------------------
 Center     Atomic      Atomic             Coordinates (Angstroms)
 Number     Number       Type             X           Y           Z
 ---------------------------------------------------------------------
      1          6           0        1.829782   -0.121576   -0.031942
      2          6           0        0.615076    0.435237    0.012823
      3          6           0       -0.593636   -0.415928    0.000257
      4          6           0       -1.843620    0.097756   -0.012151
      5          1           0        2.708503    0.480796    0.021750
      6          1           0        1.910923   -1.189087    0.035226
      7          1           0        0.468852    1.524415    0.120845
      8          1           0       -0.408181   -1.453736    0.032985
      9          1           0       -2.028734    1.171659   -0.099124
     10          1           0       -2.696971   -0.506978    0.074398
 ---------------------------------------------------------------------

 SCF Done:  E(RB2PLYPD3) =  -155.696680074     A.U. after   11 cycles
 E2(B2PLYPD3) =    -0.2259600276D+00 E(B2PLYPD3) =    -0.15592264010158D+03

 The electronic state is 1-A.
 Alpha  occ. eigenvalues --  -10.62864 -10.62634 -10.61443 -10.61225  -0.92656
 Alpha  occ. eigenvalues --   -0.84704  -0.70093  -0.64413  -0.54750  -0.53750
 Alpha  occ. eigenvalues --   -0.46762  -0.46025  -0.41383  -0.37598  -0.27545
 Alpha virt. eigenvalues --    0.01779   0.07096   0.07357   0.08190   0.09078
 Alpha virt. eigenvalues --    0.11740   0.12574   0.14639   0.15757   0.16247
 Alpha virt. eigenvalues --    0.18763   0.20322   0.21740   0.23264   0.23947

 Mulliken charges:
               1
     1  C   -0.175689
     2  C   -0.029131
     3  C   -0.040258
     4  C   -0.178933
     5  H    0.085579
     6  H    0.065614
     7  H    0.058127
     8  H    0.062262
     9  H    0.065992
    10  H    0.086436
 Sum of Mulliken charges =   0.00000

 Dipole moment (field-independent basis, Debye):
    X=              0.0117    Y=             -0.0023    Z=              0.1852  Tot=              0.1856
 Quadrupole moment (field-independent basis, Debye-Ang):
   XX=            -23.6394   YY=            -22.9874   ZZ=            -29.2933
   XY=             -0.2240   XZ=              0.1568   YZ=             -0.0994

 1\1\GINC-NODE29\SP\RB2PLYPD3-FC\def2QZVP\C4H6\BOITTIER\26-Aug-2020\0\\
 #p B2PLYPD3/Def2QZVP\\butadiene\\0,1\C,0,-3.828259,0.23704,-0.006646\C
 ,0,-2.735366,-0.53081,0.052905\C,0,-1.391697,0.084807,0.018368\C,0,-0.
 256509,-0.648563,0.019647\H,0,-4.801894,-0.193227,0.062575\H,0,-3.7129
 29,1.302795,0.0326\H,0,-2.789862,-1.625236,0.189369\H,0,-1.384506,1.13
 9524,0.02394\H,0,-0.27087,-1.740089,-0.039209\H,0,0.693252,-0.207737,0
 .090552\\Version=ES64L-G09RevD.01\State=1-A\HF=-155.6966801\MP2=-155.9
 226401\RMSD=3.770e-09\PG=C01 [X(C4H6)]\\@

 Normal termination of Gaussian 09 at Wed Aug 26 09:22:13 2020.
