 Gaussian 09, Revision D.01,
 Gaussian 09:  ES64L-G09RevD.01 24-Apr-2013

 --------------------
 #p B2PLYPD3/Def2QZVP
 --------------------

 ---------
 butadiene
 ---------
 Symbolic Z-matrix:
 Charge =  0 Multiplicity = 1

                         Standard orientation:
 ---------------------------------------------------------------------
 Center     Atomic      Atomic             Coordinates (Angstroms)
 Number     Number       Type             X           Y           Z
 ---------------------------------------------------------------------
      1          6           0        1.837142   -0.067792    0.042045
      2          6           0        0.572679    0.353962   -0.047325
      3          6           0       -0.585280   -0.424207   -0.032199
      4          6           0       -1.822533    0.133635    0.026648
      5          1           0        2.742896    0.500377   -0.022333
      6          1           0        2.061121   -1.065021    0.067121
      7          1           0        0.348586    1.445144   -0.137676
      8          1           0       -0.469907   -1.467617    0.047673
      9          1           0       -2.013426    1.163302    0.248943
     10          1           0       -2.681317   -0.549782   -0.138744
 ---------------------------------------------------------------------

 SCF Done:  E(RB2PLYPD3) =  -155.685362350     A.U. after   12 cycles
 E2(B2PLYPD3) =    -0.2265689103D+00 E(B2PLYPD3) =    -0.15591193125980D+03

 The electronic state is 1-A.
 Alpha  occ. eigenvalues --  -10.62335 -10.62228 -10.62074 -10.60748  -0.93824
 Alpha  occ. eigenvalues --   -0.84652  -0.71417  -0.64612  -0.55311  -0.53931
 Alpha  occ. eigenvalues --   -0.46990  -0.45779  -0.41306  -0.38232  -0.26944
 Alpha virt. eigenvalues --    0.00697   0.06976   0.07547   0.08048   0.09739
 Alpha virt. eigenvalues --    0.11737   0.12538   0.14910   0.15738   0.16288
 Alpha virt. eigenvalues --    0.18909   0.20134   0.22048   0.22727   0.23390

 Mulliken charges:
               1
     1  C   -0.175318
     2  C   -0.012502
     3  C   -0.036692
     4  C   -0.183083
     5  H    0.080791
     6  H    0.058426
     7  H    0.043682
     8  H    0.065094
     9  H    0.080121
    10  H    0.079481
 Sum of Mulliken charges =   0.00000

 Dipole moment (field-independent basis, Debye):
    X=             -0.0069    Y=             -0.0869    Z=              0.0294  Tot=              0.0920
 Quadrupole moment (field-independent basis, Debye-Ang):
   XX=            -23.2878   YY=            -23.4132   ZZ=            -29.0659
   XY=             -0.4925   XZ=             -0.1334   YZ=              0.1336

 1\1\GINC-NODE22\SP\RB2PLYPD3-FC\def2QZVP\C4H6\BOITTIER\26-Aug-2020\0\\
 #p B2PLYPD3/Def2QZVP\\butadiene\\0,1\C,0,-3.843309,0.201026,0.059549\C
 ,0,-2.682045,-0.455749,-0.010033\C,0,-1.397581,0.088929,-0.021219\C,0,
 -0.288165,-0.690588,0.062414\H,0,-4.84057,-0.187264,0.014247\H,0,-3.87
 4204,1.222849,0.045967\H,0,-2.669123,-1.572253,-0.058099\H,0,-1.312849
 ,1.137565,0.018509\H,0,-0.294818,-1.728579,0.324327\H,0,0.683802,-0.18
 9043,-0.126413\\Version=ES64L-G09RevD.01\State=1-A\HF=-155.6853623\MP2
 =-155.9119313\RMSD=5.339e-09\PG=C01 [X(C4H6)]\\@

 Normal termination of Gaussian 09 at Wed Aug 26 15:06:03 2020.
