 Gaussian 09, Revision D.01,
 Gaussian 09:  ES64L-G09RevD.01 24-Apr-2013

 --------------------
 #p B2PLYPD3/Def2QZVP
 --------------------

 ---------
 butadiene
 ---------
 Symbolic Z-matrix:
 Charge =  0 Multiplicity = 1

                         Standard orientation:
 ---------------------------------------------------------------------
 Center     Atomic      Atomic             Coordinates (Angstroms)
 Number     Number       Type             X           Y           Z
 ---------------------------------------------------------------------
      1          6           0        1.830919    0.100148    0.044114
      2          6           0        0.589148   -0.414823   -0.055405
      3          6           0       -0.598906    0.432802   -0.042002
      4          6           0       -1.835026   -0.124334    0.023430
      5          1           0        2.789243   -0.479152    0.089667
      6          1           0        1.978028    1.148749   -0.030667
      7          1           0        0.456776   -1.471574   -0.048790
      8          1           0       -0.468808    1.527155    0.021519
      9          1           0       -1.982784   -1.196358    0.081704
     10          1           0       -2.689265    0.508428    0.065741
 ---------------------------------------------------------------------

 SCF Done:  E(RB2PLYPD3) =  -155.695394361     A.U. after   11 cycles
 E2(B2PLYPD3) =    -0.2266825059D+00 E(B2PLYPD3) =    -0.15592207686719D+03

 The electronic state is 1-A.
 Alpha  occ. eigenvalues --  -10.63212 -10.62637 -10.61757 -10.61644  -0.92727
 Alpha  occ. eigenvalues --   -0.84354  -0.69946  -0.64503  -0.54415  -0.53689
 Alpha  occ. eigenvalues --   -0.46219  -0.45664  -0.41632  -0.37827  -0.27266
 Alpha virt. eigenvalues --    0.01519   0.07033   0.07383   0.08059   0.09022
 Alpha virt. eigenvalues --    0.11653   0.12590   0.14538   0.15892   0.16247
 Alpha virt. eigenvalues --    0.18772   0.20280   0.21754   0.23216   0.23753

 Mulliken charges:
               1
     1  C   -0.172206
     2  C   -0.032478
     3  C   -0.036926
     4  C   -0.179184
     5  H    0.077005
     6  H    0.063622
     7  H    0.063981
     8  H    0.060264
     9  H    0.070450
    10  H    0.085471
 Sum of Mulliken charges =   0.00000

 Dipole moment (field-independent basis, Debye):
    X=             -0.0126    Y=              0.0149    Z=              0.0939  Tot=              0.0960
 Quadrupole moment (field-independent basis, Debye-Ang):
   XX=            -23.5988   YY=            -22.9989   ZZ=            -29.4031
   XY=              0.2368   XZ=             -0.1927   YZ=             -0.0674

 1\1\GINC-NODE27\SP\RB2PLYPD3-FC\def2QZVP\C4H6\BOITTIER\26-Aug-2020\0\\
 #p B2PLYPD3/Def2QZVP\\butadiene\\0,1\C,0,-3.836188,0.216133,-0.025639\
 C,0,-2.708278,-0.513438,0.086787\C,0,-1.386033,0.103528,0.053003\C,0,-
 0.27203,-0.67044,0.001556\H,0,-4.884013,-0.180237,-0.057287\H,0,-3.789
 969,1.275497,0.023446\H,0,-2.770185,-1.576493,0.106043\H,0,-1.315349,1
 .201444,-0.037286\H,0,-0.321798,-1.75255,-0.030454\H,0,0.682794,-0.204
 71,-0.055969\\Version=ES64L-G09RevD.01\State=1-A\HF=-155.6953944\MP2=-
 155.9220769\RMSD=6.772e-09\PG=C01 [X(C4H6)]\\@

 Normal termination of Gaussian 09 at Wed Aug 26 08:51:19 2020.
