 Gaussian 09, Revision D.01,
 Gaussian 09:  ES64L-G09RevD.01 24-Apr-2013

 --------------------
 #p B2PLYPD3/Def2QZVP
 --------------------

 ---------
 butadiene
 ---------
 Symbolic Z-matrix:
 Charge =  0 Multiplicity = 1

                         Standard orientation:
 ---------------------------------------------------------------------
 Center     Atomic      Atomic             Coordinates (Angstroms)
 Number     Number       Type             X           Y           Z
 ---------------------------------------------------------------------
      1          6           0        1.850563    0.084559    0.005861
      2          6           0        0.617465   -0.369235   -0.013501
      3          6           0       -0.611071    0.409849    0.006146
      4          6           0       -1.842591   -0.120862   -0.013306
      5          1           0        2.754807   -0.524239   -0.010619
      6          1           0        1.988018    1.160601    0.047193
      7          1           0        0.462568   -1.440460   -0.061306
      8          1           0       -0.532392    1.537437    0.008476
      9          1           0       -2.020199   -1.199528    0.161956
     10          1           0       -2.738994    0.440323   -0.056902
 ---------------------------------------------------------------------

 SCF Done:  E(RB2PLYPD3) =  -155.695978219     A.U. after   11 cycles
 E2(B2PLYPD3) =    -0.2257988248D+00 E(B2PLYPD3) =    -0.15592177704428D+03

 The electronic state is 1-A.
 Alpha  occ. eigenvalues --  -10.63330 -10.62291 -10.61770 -10.61394  -0.92996
 Alpha  occ. eigenvalues --   -0.85168  -0.70290  -0.63534  -0.55126  -0.53518
 Alpha  occ. eigenvalues --   -0.47426  -0.44777  -0.40569  -0.38188  -0.27925
 Alpha virt. eigenvalues --    0.01646   0.07018   0.07360   0.07978   0.09719
 Alpha virt. eigenvalues --    0.11563   0.12547   0.14501   0.15861   0.16360
 Alpha virt. eigenvalues --    0.18878   0.20446   0.21673   0.22684   0.23425

 Mulliken charges:
               1
     1  C   -0.169462
     2  C   -0.020783
     3  C   -0.035531
     4  C   -0.168766
     5  H    0.090879
     6  H    0.058638
     7  H    0.051924
     8  H    0.047099
     9  H    0.060126
    10  H    0.085876
 Sum of Mulliken charges =   0.00000

 Dipole moment (field-independent basis, Debye):
    X=             -0.0355    Y=             -0.0097    Z=              0.0818  Tot=              0.0897
 Quadrupole moment (field-independent basis, Debye-Ang):
   XX=            -22.9808   YY=            -23.4662   ZZ=            -29.2243
   XY=              0.0028   XZ=             -0.1208   YZ=             -0.0915

 1\1\GINC-NODE07\SP\RB2PLYPD3-FC\def2QZVP\C4H6\BOITTIER\26-Aug-2020\0\\
 #p B2PLYPD3/Def2QZVP\\butadiene\\0,1\C,0,-3.856914,0.196055,0.014685\C
 ,0,-2.723808,-0.468738,0.045571\C,0,-1.376637,0.079306,0.007643\C,0,-0
 .258727,-0.660879,0.040477\H,0,-4.854743,-0.24207,0.045476\H,0,-3.8014
 66,1.278114,-0.052718\H,0,-2.761212,-1.548997,0.119336\H,0,-1.254051,1
 .20258,-0.02199\H,0,-0.275959,-1.757816,-0.108569\H,0,0.72317,-0.26677
 2,0.070893\\Version=ES64L-G09RevD.01\State=1-A\HF=-155.6959782\MP2=-15
 5.921777\RMSD=5.623e-09\PG=C01 [X(C4H6)]\\@

 Normal termination of Gaussian 09 at Wed Aug 26 09:20:36 2020.
