 Gaussian 09, Revision D.01,
 Gaussian 09:  ES64L-G09RevD.01 24-Apr-2013

 --------------------
 #p B2PLYPD3/Def2QZVP
 --------------------

 ---------
 butadiene
 ---------
 Symbolic Z-matrix:
 Charge =  0 Multiplicity = 1

                         Standard orientation:
 ---------------------------------------------------------------------
 Center     Atomic      Atomic             Coordinates (Angstroms)
 Number     Number       Type             X           Y           Z
 ---------------------------------------------------------------------
      1          6           0        1.846839    0.091327    0.013959
      2          6           0        0.603657   -0.387059   -0.056123
      3          6           0       -0.598474    0.421378   -0.038022
      4          6           0       -1.835888   -0.128563    0.029217
      5          1           0        2.714067   -0.554906    0.170811
      6          1           0        1.931135    1.183553    0.076159
      7          1           0        0.410116   -1.453794   -0.012878
      8          1           0       -0.429258    1.492655   -0.075560
      9          1           0       -2.000516   -1.143300   -0.004115
     10          1           0       -2.722346    0.493299    0.151397
 ---------------------------------------------------------------------

 SCF Done:  E(RB2PLYPD3) =  -155.695257671     A.U. after   11 cycles
 E2(B2PLYPD3) =    -0.2262965551D+00 E(B2PLYPD3) =    -0.15592155422614D+03

 The electronic state is 1-A.
 Alpha  occ. eigenvalues --  -10.62922 -10.62332 -10.61745 -10.61486  -0.93055
 Alpha  occ. eigenvalues --   -0.84699  -0.70471  -0.64302  -0.54764  -0.53578
 Alpha  occ. eigenvalues --   -0.47130  -0.45648  -0.41204  -0.38023  -0.27457
 Alpha virt. eigenvalues --    0.01422   0.06996   0.07425   0.08113   0.09409
 Alpha virt. eigenvalues --    0.11742   0.12555   0.14700   0.15666   0.16128
 Alpha virt. eigenvalues --    0.18723   0.20406   0.21607   0.23346   0.23660

 Mulliken charges:
               1
     1  C   -0.176662
     2  C   -0.019417
     3  C   -0.033600
     4  C   -0.181389
     5  H    0.090713
     6  H    0.058994
     7  H    0.049653
     8  H    0.055065
     9  H    0.074408
    10  H    0.082234
 Sum of Mulliken charges =   0.00000

 Dipole moment (field-independent basis, Debye):
    X=             -0.0784    Y=             -0.0508    Z=              0.2189  Tot=              0.2380
 Quadrupole moment (field-independent basis, Debye-Ang):
   XX=            -23.6557   YY=            -23.1675   ZZ=            -29.2549
   XY=              0.1930   XZ=              0.2800   YZ=             -0.0183

 1\1\GINC-NODE11\SP\RB2PLYPD3-FC\def2QZVP\C4H6\BOITTIER\26-Aug-2020\0\\
 #p B2PLYPD3/Def2QZVP\\butadiene\\0,1\C,0,-3.849586,0.211085,-0.004251\
 C,0,-2.714343,-0.483894,0.082317\C,0,-1.385037,0.091307,0.049059\C,0,-
 0.268597,-0.676359,0.000077\H,0,-4.820157,-0.270025,-0.148573\H,0,-3.7
 33486,1.298508,-0.093502\H,0,-2.718453,-1.568775,0.065952\H,0,-1.35618
 5,1.17608,0.0597\H,0,-0.291609,-1.702964,0.058881\H,0,0.716254,-0.2296
 22,-0.133876\\Version=ES64L-G09RevD.01\State=1-A\HF=-155.6952577\MP2=-
 155.9215542\RMSD=7.125e-09\PG=C01 [X(C4H6)]\\@

 Normal termination of Gaussian 09 at Wed Aug 26 08:56:49 2020.
