 Gaussian 09, Revision D.01,
 Gaussian 09:  ES64L-G09RevD.01 24-Apr-2013

 --------------------
 #p B2PLYPD3/Def2QZVP
 --------------------

 ---------
 butadiene
 ---------
 Symbolic Z-matrix:
 Charge =  0 Multiplicity = 1

                         Standard orientation:
 ---------------------------------------------------------------------
 Center     Atomic      Atomic             Coordinates (Angstroms)
 Number     Number       Type             X           Y           Z
 ---------------------------------------------------------------------
      1          6           0        1.834637   -0.119385   -0.016780
      2          6           0        0.601660    0.420977    0.022384
      3          6           0       -0.604675   -0.398803    0.011550
      4          6           0       -1.836003    0.102221   -0.014744
      5          1           0        2.741039    0.477586   -0.012118
      6          1           0        1.928979   -1.208995   -0.081944
      7          1           0        0.501212    1.526239    0.058714
      8          1           0       -0.449331   -1.466662    0.108105
      9          1           0       -2.012617    1.185240   -0.059941
     10          1           0       -2.683001   -0.543474   -0.027277
 ---------------------------------------------------------------------

 SCF Done:  E(RB2PLYPD3) =  -155.699537662     A.U. after   11 cycles
 E2(B2PLYPD3) =    -0.2260919118D+00 E(B2PLYPD3) =    -0.15592562957384D+03

 The electronic state is 1-A.
 Alpha  occ. eigenvalues --  -10.62947 -10.62497 -10.61817 -10.61387  -0.92865
 Alpha  occ. eigenvalues --   -0.84774  -0.69854  -0.63799  -0.54545  -0.53775
 Alpha  occ. eigenvalues --   -0.46539  -0.45336  -0.41310  -0.37985  -0.27638
 Alpha virt. eigenvalues --    0.01794   0.07069   0.07282   0.08025   0.09415
 Alpha virt. eigenvalues --    0.11666   0.12423   0.14575   0.15736   0.16216
 Alpha virt. eigenvalues --    0.18706   0.20335   0.21527   0.22894   0.23861

 Mulliken charges:
               1
     1  C   -0.176263
     2  C   -0.031092
     3  C   -0.030339
     4  C   -0.176669
     5  H    0.088519
     6  H    0.061843
     7  H    0.052928
     8  H    0.057160
     9  H    0.066761
    10  H    0.087152
 Sum of Mulliken charges =   0.00000

 Dipole moment (field-independent basis, Debye):
    X=             -0.0028    Y=             -0.0011    Z=              0.0060  Tot=              0.0067
 Quadrupole moment (field-independent basis, Debye-Ang):
   XX=            -23.5906   YY=            -23.0501   ZZ=            -29.3358
   XY=             -0.0295   XZ=             -0.0203   YZ=             -0.0258

 1\1\GINC-NODE09\SP\RB2PLYPD3-FC\def2QZVP\C4H6\BOITTIER\26-Aug-2020\0\\
 #p B2PLYPD3/Def2QZVP\\butadiene\\0,1\C,0,-3.835971,0.231806,0.001514\C
 ,0,-2.719975,-0.519948,0.057873\C,0,-1.386063,0.069207,0.026647\C,0,-0
 .264829,-0.645367,0.016484\H,0,-4.834831,-0.192293,0.020975\H,0,-3.733
 288,1.31843,-0.093887\H,0,-2.819552,-1.623853,0.124894\H,0,-1.34679,1.
 149846,0.093391\H,0,-0.285739,-1.743322,0.001537\H,0,0.68432,-0.162902
 ,-0.012301\\Version=ES64L-G09RevD.01\State=1-A\HF=-155.6995377\MP2=-15
 5.9256296\RMSD=5.092e-09\PG=C01 [X(C4H6)]\\@

 Normal termination of Gaussian 09 at Wed Aug 26 19:21:48 2020.
