 Gaussian 09, Revision D.01,
 Gaussian 09:  ES64L-G09RevD.01 24-Apr-2013

 --------------------
 #p B2PLYPD3/Def2QZVP
 --------------------

 ---------
 butadiene
 ---------
 Symbolic Z-matrix:
 Charge =  0 Multiplicity = 1

                         Standard orientation:
 ---------------------------------------------------------------------
 Center     Atomic      Atomic             Coordinates (Angstroms)
 Number     Number       Type             X           Y           Z
 ---------------------------------------------------------------------
      1          6           0       -1.846191    0.095555    0.042140
      2          6           0       -0.609873   -0.377160   -0.020283
      3          6           0        0.611510    0.427310   -0.043665
      4          6           0        1.845596   -0.123283    0.018380
      5          1           0       -2.632345   -0.608813    0.021213
      6          1           0       -2.165664    1.137759   -0.029026
      7          1           0       -0.477362   -1.434111   -0.071530
      8          1           0        0.502462    1.476303   -0.020348
      9          1           0        2.020586   -1.169647    0.016474
     10          1           0        2.746068    0.463974    0.103788
 ---------------------------------------------------------------------

 SCF Done:  E(RB2PLYPD3) =  -155.697348653     A.U. after   11 cycles
 E2(B2PLYPD3) =    -0.2253797277D+00 E(B2PLYPD3) =    -0.15592272838055D+03

 The electronic state is 1-A.
 Alpha  occ. eigenvalues --  -10.62583 -10.62253 -10.61575 -10.61073  -0.92828
 Alpha  occ. eigenvalues --   -0.84983  -0.70596  -0.64643  -0.54776  -0.54119
 Alpha  occ. eigenvalues --   -0.46935  -0.45942  -0.41149  -0.37873  -0.27652
 Alpha virt. eigenvalues --    0.01636   0.06985   0.07580   0.08188   0.09495
 Alpha virt. eigenvalues --    0.11564   0.12522   0.14950   0.15863   0.16311
 Alpha virt. eigenvalues --    0.18959   0.20473   0.21918   0.22664   0.23894

 Mulliken charges:
               1
     1  C   -0.172359
     2  C   -0.032981
     3  C   -0.043132
     4  C   -0.170993
     5  H    0.077504
     6  H    0.068130
     7  H    0.059832
     8  H    0.067168
     9  H    0.066609
    10  H    0.080222
 Sum of Mulliken charges =   0.00000

 Dipole moment (field-independent basis, Debye):
    X=              0.0321    Y=             -0.0149    Z=             -0.0326  Tot=              0.0481
 Quadrupole moment (field-independent basis, Debye-Ang):
   XX=            -23.3120   YY=            -23.0510   ZZ=            -29.2014
   XY=             -0.4000   XZ=              0.4235   YZ=              0.0648

 1\1\GINC-NODE30\SP\RB2PLYPD3-FC\def2QZVP\C4H6\BOITTIER\26-Aug-2020\0\\
 #p B2PLYPD3/Def2QZVP\\butadiene\\0,1\C,0,-3.850624,0.214126,0.055168\C
 ,0,-2.721054,-0.477309,0.012402\C,0,-1.373618,0.090413,-0.027638\C,0,-
 0.260396,-0.673575,0.05621\H,0,-4.751889,-0.335698,0.050269\H,0,-3.975
 012,1.294579,-0.047135\H,0,-2.783214,-1.541754,-0.00818\H,0,-1.289843,
 1.141961,-0.03463\H,0,-0.278849,-1.733925,0.084862\H,0,0.731967,-0.257
 806,0.12946\\Version=ES64L-G09RevD.01\State=1-A\HF=-155.6973487\MP2=-1
 55.9227284\RMSD=6.516e-09\PG=C01 [X(C4H6)]\\@

 Normal termination of Gaussian 09 at Wed Aug 26 08:43:07 2020.
