 Gaussian 09, Revision D.01,
 Gaussian 09:  ES64L-G09RevD.01 24-Apr-2013

 --------------------
 #p B2PLYPD3/Def2QZVP
 --------------------

 ---------
 butadiene
 ---------
 Symbolic Z-matrix:
 Charge =  0 Multiplicity = 1

                         Standard orientation:
 ---------------------------------------------------------------------
 Center     Atomic      Atomic             Coordinates (Angstroms)
 Number     Number       Type             X           Y           Z
 ---------------------------------------------------------------------
      1          6           0        1.829660    0.091410    0.010898
      2          6           0        0.593145   -0.387148   -0.017656
      3          6           0       -0.599297    0.416886   -0.007216
      4          6           0       -1.833959   -0.115374    0.023305
      5          1           0        2.684382   -0.544255   -0.036337
      6          1           0        2.051951    1.156424    0.072921
      7          1           0        0.457123   -1.435933   -0.015994
      8          1           0       -0.434488    1.472689   -0.045554
      9          1           0       -1.981737   -1.183763    0.034012
     10          1           0       -2.714531    0.500189   -0.065034
 ---------------------------------------------------------------------

 SCF Done:  E(RB2PLYPD3) =  -155.700101878     A.U. after   11 cycles
 E2(B2PLYPD3) =    -0.2254044905D+00 E(B2PLYPD3) =    -0.15592550636831D+03

 The electronic state is 1-A.
 Alpha  occ. eigenvalues --  -10.62373 -10.61845 -10.61609 -10.61197  -0.93337
 Alpha  occ. eigenvalues --   -0.84878  -0.70535  -0.64622  -0.54918  -0.53974
 Alpha  occ. eigenvalues --   -0.46922  -0.45746  -0.41361  -0.38240  -0.27545
 Alpha virt. eigenvalues --    0.01616   0.07025   0.07485   0.08188   0.09673
 Alpha virt. eigenvalues --    0.11726   0.12503   0.14861   0.15874   0.16150
 Alpha virt. eigenvalues --    0.18817   0.20533   0.21773   0.22775   0.23879

 Mulliken charges:
               1
     1  C   -0.177096
     2  C   -0.023838
     3  C   -0.035559
     4  C   -0.175827
     5  H    0.083634
     6  H    0.060822
     7  H    0.056746
     8  H    0.059537
     9  H    0.066765
    10  H    0.084815
 Sum of Mulliken charges =   0.00000

 Dipole moment (field-independent basis, Debye):
    X=              0.0117    Y=             -0.0116    Z=             -0.0691  Tot=              0.0711
 Quadrupole moment (field-independent basis, Debye-Ang):
   XX=            -23.4402   YY=            -23.1188   ZZ=            -29.1683
   XY=              0.2600   XZ=              0.2015   YZ=             -0.0157

 1\1\GINC-NODE37\SP\RB2PLYPD3-FC\def2QZVP\C4H6\BOITTIER\26-Aug-2020\0\\
 #p B2PLYPD3/Def2QZVP\\butadiene\\0,1\C,0,-3.83469,0.212786,0.006283\C,
 0,-2.708034,-0.485292,0.052484\C,0,-1.387426,0.083632,0.023885\C,0,-0.
 272627,-0.668509,0.012521\H,0,-4.792194,-0.252196,0.068168\H,0,-3.8561
 78,1.29838,-0.086114\H,0,-2.768429,-1.540765,0.080466\H,0,-1.353959,1.
 152351,0.032268\H,0,-0.325112,-1.745669,0.032048\H,0,0.70679,-0.224264
 ,0.086806\\Version=ES64L-G09RevD.01\State=1-A\HF=-155.7001019\MP2=-155
 .9255064\RMSD=5.653e-09\PG=C01 [X(C4H6)]\\@

 Normal termination of Gaussian 09 at Wed Aug 26 21:26:47 2020.
