 Gaussian 09, Revision D.01,
 Gaussian 09:  ES64L-G09RevD.01 24-Apr-2013

 --------------------
 #p B2PLYPD3/Def2QZVP
 --------------------

 ---------
 butadiene
 ---------
 Symbolic Z-matrix:
 Charge =  0 Multiplicity = 1

                         Standard orientation:
 ---------------------------------------------------------------------
 Center     Atomic      Atomic             Coordinates (Angstroms)
 Number     Number       Type             X           Y           Z
 ---------------------------------------------------------------------
      1          6           0       -1.793539    0.128776   -0.105410
      2          6           0       -0.597067   -0.451935    0.048957
      3          6           0        0.555926    0.360535    0.081422
      4          6           0        1.811142   -0.091993   -0.042568
      5          1           0       -2.723109   -0.425760    0.251968
      6          1           0       -1.793307    1.279303   -0.224740
      7          1           0       -0.541096   -1.547722    0.098525
      8          1           0        0.413886    1.497205    0.216099
      9          1           0        2.177987   -1.120607   -0.221281
     10          1           0        2.606869    0.645288   -0.014977
 ---------------------------------------------------------------------

 SCF Done:  E(RB2PLYPD3) =  -155.677564490     A.U. after   11 cycles
 E2(B2PLYPD3) =    -0.2281632227D+00 E(B2PLYPD3) =    -0.15590572771305D+03

 The electronic state is 1-A.
 Alpha  occ. eigenvalues --  -10.63050 -10.62647 -10.62394 -10.61863  -0.93615
 Alpha  occ. eigenvalues --   -0.84399  -0.69434  -0.63142  -0.54457  -0.52834
 Alpha  occ. eigenvalues --   -0.45741  -0.44493  -0.41393  -0.37900  -0.27276
 Alpha virt. eigenvalues --    0.00963   0.06769   0.07155   0.07672   0.09536
 Alpha virt. eigenvalues --    0.11494   0.12378   0.14660   0.15459   0.16169
 Alpha virt. eigenvalues --    0.18723   0.19297   0.21272   0.21795   0.24152

 Mulliken charges:
               1
     1  C   -0.160760
     2  C   -0.032854
     3  C   -0.025118
     4  C   -0.176640
     5  H    0.079883
     6  H    0.049988
     7  H    0.067710
     8  H    0.049581
     9  H    0.072375
    10  H    0.075833
 Sum of Mulliken charges =   0.00000

 Dipole moment (field-independent basis, Debye):
    X=              0.1599    Y=             -0.0725    Z=              0.1901  Tot=              0.2587
 Quadrupole moment (field-independent basis, Debye-Ang):
   XX=            -24.3880   YY=            -23.0720   ZZ=            -29.2656
   XY=             -0.1491   XZ=             -0.9933   YZ=             -0.0404

 1\1\GINC-NODE28\SP\RB2PLYPD3-FC\def2QZVP\C4H6\BOITTIER\26-Aug-2020\0\\
 #p B2PLYPD3/Def2QZVP\\butadiene\\0,1\C,0,-3.787991,0.245813,-0.069704\
 C,0,-2.71781,-0.541152,0.09762\C,0,-1.433928,0.043802,0.092099\C,0,-0.
 286085,-0.63791,-0.023871\H,0,-4.799224,-0.113711,0.314327\H,0,-3.5762
 57,1.371422,-0.231342\H,0,-2.865132,-1.625874,0.187137\H,0,-1.361083,1
 .19108,0.18579\H,0,-0.118622,-1.722345,-0.167114\H,0,0.632753,-0.06064
 5,-0.029005\\Version=ES64L-G09RevD.01\State=1-A\HF=-155.6775645\MP2=-1
 55.9057277\RMSD=9.502e-09\PG=C01 [X(C4H6)]\\@

 Normal termination of Gaussian 09 at Wed Aug 26 16:03:12 2020.
