 Gaussian 09, Revision D.01,
 Gaussian 09:  ES64L-G09RevD.01 24-Apr-2013

 --------------------
 #p B2PLYPD3/Def2QZVP
 --------------------

 ---------
 butadiene
 ---------
 Symbolic Z-matrix:
 Charge =  0 Multiplicity = 1

                         Standard orientation:
 ---------------------------------------------------------------------
 Center     Atomic      Atomic             Coordinates (Angstroms)
 Number     Number       Type             X           Y           Z
 ---------------------------------------------------------------------
      1          6           0        1.866983   -0.104993   -0.050300
      2          6           0        0.621121    0.378024   -0.004577
      3          6           0       -0.666502   -0.432605    0.066539
      4          6           0       -1.862718    0.140026   -0.015609
      5          1           0        2.700432    0.551756   -0.052833
      6          1           0        2.068945   -1.201916    0.155395
      7          1           0        0.612379    1.459423    0.114495
      8          1           0       -0.528622   -1.454242   -0.060279
      9          1           0       -1.895326    1.229670    0.037404
     10          1           0       -2.711116   -0.467405   -0.170497
 ---------------------------------------------------------------------

 SCF Done:  E(RB2PLYPD3) =  -155.686380948     A.U. after   11 cycles
 E2(B2PLYPD3) =    -0.2259217898D+00 E(B2PLYPD3) =    -0.15591230273825D+03

 The electronic state is 1-A.
 Alpha  occ. eigenvalues --  -10.62934 -10.62640 -10.61616 -10.61532  -0.92235
 Alpha  occ. eigenvalues --   -0.85416  -0.69454  -0.63994  -0.54877  -0.53709
 Alpha  occ. eigenvalues --   -0.47045  -0.45326  -0.40895  -0.37192  -0.28136
 Alpha virt. eigenvalues --    0.01966   0.07031   0.07501   0.08092   0.08910
 Alpha virt. eigenvalues --    0.11671   0.12381   0.14356   0.15263   0.16554
 Alpha virt. eigenvalues --    0.18809   0.19645   0.21329   0.23204   0.24654

 Mulliken charges:
               1
     1  C   -0.176174
     2  C   -0.035067
     3  C   -0.050845
     4  C   -0.165631
     5  H    0.083793
     6  H    0.057108
     7  H    0.049709
     8  H    0.071501
     9  H    0.074443
    10  H    0.091163
 Sum of Mulliken charges =   0.00000

 Dipole moment (field-independent basis, Debye):
    X=             -0.1016    Y=              0.0191    Z=              0.0657  Tot=              0.1225
 Quadrupole moment (field-independent basis, Debye-Ang):
   XX=            -23.6207   YY=            -23.1112   ZZ=            -29.2435
   XY=              0.3357   XZ=              0.8207   YZ=              0.1868

 1\1\GINC-NODE33\SP\RB2PLYPD3-FC\def2QZVP\C4H6\BOITTIER\26-Aug-2020\0\\
 #p B2PLYPD3/Def2QZVP\\butadiene\\0,1\C,0,-3.881092,0.197547,-0.021197\
 C,0,-2.732984,-0.48506,0.037663\C,0,-1.327391,0.100811,0.072514\C,0,-0
 .244535,-0.666487,0.007214\H,0,-4.812497,-0.310169,0.004735\H,0,-3.894
 858,1.319615,0.143465\H,0,-2.903717,-1.547557,0.197747\H,0,-1.294036,1
 .125747,-0.092497\H,0,-0.393808,-1.743532,0.101501\H,0,0.691723,-0.215
 655,-0.17421\\Version=ES64L-G09RevD.01\State=1-A\HF=-155.6863809\MP2=-
 155.9123027\RMSD=7.371e-09\PG=C01 [X(C4H6)]\\@

 Normal termination of Gaussian 09 at Wed Aug 26 12:17:20 2020.
