 Gaussian 09, Revision D.01,
 Gaussian 09:  ES64L-G09RevD.01 24-Apr-2013

 --------------------
 #p B2PLYPD3/Def2QZVP
 --------------------

 ---------
 butadiene
 ---------
 Symbolic Z-matrix:
 Charge =  0 Multiplicity = 1

                         Standard orientation:
 ---------------------------------------------------------------------
 Center     Atomic      Atomic             Coordinates (Angstroms)
 Number     Number       Type             X           Y           Z
 ---------------------------------------------------------------------
      1          6           0        1.833190   -0.103866   -0.029890
      2          6           0        0.592447    0.395988    0.036230
      3          6           0       -0.599325   -0.397494    0.011396
      4          6           0       -1.829786    0.107127   -0.021664
      5          1           0        2.737017    0.505610    0.020995
      6          1           0        1.966766   -1.189731   -0.054694
      7          1           0        0.477523    1.483105    0.031481
      8          1           0       -0.462613   -1.449671    0.067264
      9          1           0       -2.024546    1.187069   -0.064105
     10          1           0       -2.673309   -0.546908    0.022622
 ---------------------------------------------------------------------

 SCF Done:  E(RB2PLYPD3) =  -155.699748248     A.U. after   11 cycles
 E2(B2PLYPD3) =    -0.2257771270D+00 E(B2PLYPD3) =    -0.15592552537543D+03

 The electronic state is 1-A.
 Alpha  occ. eigenvalues --  -10.62396 -10.62055 -10.61748 -10.61469  -0.93368
 Alpha  occ. eigenvalues --   -0.84865  -0.70272  -0.64159  -0.54706  -0.53946
 Alpha  occ. eigenvalues --   -0.46742  -0.45322  -0.41310  -0.38357  -0.27569
 Alpha virt. eigenvalues --    0.01601   0.07027   0.07411   0.08048   0.09752
 Alpha virt. eigenvalues --    0.11697   0.12419   0.14731   0.15760   0.16251
 Alpha virt. eigenvalues --    0.18760   0.20337   0.21681   0.22629   0.23896

 Mulliken charges:
               1
     1  C   -0.174417
     2  C   -0.025984
     3  C   -0.030228
     4  C   -0.176321
     5  H    0.086847
     6  H    0.058543
     7  H    0.051793
     8  H    0.057252
     9  H    0.067380
    10  H    0.085135
 Sum of Mulliken charges =   0.00000

 Dipole moment (field-independent basis, Debye):
    X=             -0.0191    Y=             -0.0106    Z=              0.0554  Tot=              0.0596
 Quadrupole moment (field-independent basis, Debye-Ang):
   XX=            -23.4998   YY=            -23.1315   ZZ=            -29.2335
   XY=             -0.0695   XZ=             -0.0125   YZ=             -0.0758

 1\1\GINC-NODE31\SP\RB2PLYPD3-FC\def2QZVP\C4H6\BOITTIER\26-Aug-2020\0\\
 #p B2PLYPD3/Def2QZVP\\butadiene\\0,1\C,0,-3.836207,0.22085,-0.009987\C
 ,0,-2.707254,-0.495177,0.070262\C,0,-1.390835,0.066831,0.028547\C,0,-0
 .273122,-0.654372,0.009741\H,0,-4.835886,-0.212182,0.053875\H,0,-3.769
 588,1.311959,-0.061005\H,0,-2.792518,-1.58482,0.091732\H,0,-1.33323,1.
 127323,0.058979\H,0,-0.27868,-1.752421,-0.006501\H,0,0.675641,-0.16427
 3,0.039849\\Version=ES64L-G09RevD.01\State=1-A\HF=-155.6997482\MP2=-15
 5.9255254\RMSD=3.787e-09\PG=C01 [X(C4H6)]\\@

 Normal termination of Gaussian 09 at Wed Aug 26 21:46:56 2020.
