 Gaussian 09, Revision D.01,
 Gaussian 09:  ES64L-G09RevD.01 24-Apr-2013

 --------------------
 #p B2PLYPD3/Def2QZVP
 --------------------

 ---------
 butadiene
 ---------
 Symbolic Z-matrix:
 Charge =  0 Multiplicity = 1

                         Standard orientation:
 ---------------------------------------------------------------------
 Center     Atomic      Atomic             Coordinates (Angstroms)
 Number     Number       Type             X           Y           Z
 ---------------------------------------------------------------------
      1          6           0       -1.833175   -0.121058   -0.020307
      2          6           0       -0.598536    0.422748    0.007085
      3          6           0        0.599333   -0.370275    0.046165
      4          6           0        1.841428    0.098417   -0.032636
      5          1           0       -2.806419    0.421627    0.003332
      6          1           0       -1.912249   -1.214105   -0.127358
      7          1           0       -0.485599    1.504545    0.119408
      8          1           0        0.474340   -1.454360    0.111933
      9          1           0        1.979404    1.124295   -0.086050
     10          1           0        2.696218   -0.561000   -0.023109
 ---------------------------------------------------------------------

 SCF Done:  E(RB2PLYPD3) =  -155.696289617     A.U. after   11 cycles
 E2(B2PLYPD3) =    -0.2261755591D+00 E(B2PLYPD3) =    -0.15592246517640D+03

 The electronic state is 1-A.
 Alpha  occ. eigenvalues --  -10.62874 -10.62390 -10.62306 -10.60846  -0.93223
 Alpha  occ. eigenvalues --   -0.84818  -0.70183  -0.64116  -0.54589  -0.54053
 Alpha  occ. eigenvalues --   -0.46740  -0.45211  -0.41330  -0.38153  -0.27553
 Alpha virt. eigenvalues --    0.01496   0.07028   0.07458   0.07929   0.09619
 Alpha virt. eigenvalues --    0.11606   0.12594   0.14571   0.15774   0.16279
 Alpha virt. eigenvalues --    0.18755   0.20288   0.21642   0.22569   0.23803

 Mulliken charges:
               1
     1  C   -0.171107
     2  C   -0.036761
     3  C   -0.017584
     4  C   -0.181540
     5  H    0.085769
     6  H    0.059663
     7  H    0.056216
     8  H    0.048978
     9  H    0.067147
    10  H    0.089220
 Sum of Mulliken charges =   0.00000

 Dipole moment (field-independent basis, Debye):
    X=             -0.0253    Y=              0.0070    Z=              0.0288  Tot=              0.0390
 Quadrupole moment (field-independent basis, Debye-Ang):
   XX=            -23.3023   YY=            -23.3018   ZZ=            -29.2542
   XY=             -0.0169   XZ=             -0.0543   YZ=              0.1083

 1\1\GINC-NODE16\SP\RB2PLYPD3-FC\def2QZVP\C4H6\BOITTIER\26-Aug-2020\0\\
 #p B2PLYPD3/Def2QZVP\\butadiene\\0,1\C,0,-3.834762,0.233626,0.038651\C
 ,0,-2.716654,-0.521633,0.023646\C,0,-1.396832,0.044689,-0.027861\C,0,-
 0.257865,-0.636026,0.061932\H,0,-4.889083,-0.127537,0.023237\H,0,-3.71
 7891,1.325092,0.125301\H,0,-2.798208,-1.608155,-0.06842\H,0,-1.326993,
 1.132304,-0.11392\H,0,-0.304588,-1.668912,0.134586\H,0,0.70062,-0.1395
 49,0.041802\\Version=ES64L-G09RevD.01\State=1-A\HF=-155.6962896\MP2=-1
 55.9224652\RMSD=5.620e-09\PG=C01 [X(C4H6)]\\@

 Normal termination of Gaussian 09 at Wed Aug 26 22:13:49 2020.
