 Gaussian 09, Revision D.01,
 Gaussian 09:  ES64L-G09RevD.01 24-Apr-2013

 --------------------
 #p B2PLYPD3/Def2QZVP
 --------------------

 ---------
 butadiene
 ---------
 Symbolic Z-matrix:
 Charge =  0 Multiplicity = 1

                         Standard orientation:
 ---------------------------------------------------------------------
 Center     Atomic      Atomic             Coordinates (Angstroms)
 Number     Number       Type             X           Y           Z
 ---------------------------------------------------------------------
      1          6           0       -1.816462    0.074081    0.049515
      2          6           0       -0.603241   -0.381527   -0.045876
      3          6           0        0.589457    0.436565   -0.030147
      4          6           0        1.839487   -0.116930    0.043241
      5          1           0       -2.577352   -0.632055   -0.093695
      6          1           0       -2.094128    1.164629    0.101452
      7          1           0       -0.413672   -1.414184   -0.120162
      8          1           0        0.294916    1.531431   -0.022005
      9          1           0        1.974457   -1.198399    0.207606
     10          1           0        2.760339    0.475446   -0.173593
 ---------------------------------------------------------------------

 SCF Done:  E(RB2PLYPD3) =  -155.684311315     A.U. after   12 cycles
 E2(B2PLYPD3) =    -0.2267154724D+00 E(B2PLYPD3) =    -0.15591102678751D+03

 The electronic state is 1-A.
 Alpha  occ. eigenvalues --  -10.63474 -10.62803 -10.61353 -10.60994  -0.93378
 Alpha  occ. eigenvalues --   -0.84629  -0.70164  -0.63762  -0.54750  -0.52910
 Alpha  occ. eigenvalues --   -0.46920  -0.45757  -0.40671  -0.37855  -0.27568
 Alpha virt. eigenvalues --    0.01345   0.07030   0.07118   0.08166   0.09557
 Alpha virt. eigenvalues --    0.11707   0.12230   0.14831   0.15435   0.16009
 Alpha virt. eigenvalues --    0.18896   0.20233   0.21145   0.22138   0.24200

 Mulliken charges:
               1
     1  C   -0.172118
     2  C   -0.016172
     3  C   -0.038123
     4  C   -0.178314
     5  H    0.082030
     6  H    0.061083
     7  H    0.053989
     8  H    0.052488
     9  H    0.069103
    10  H    0.086034
 Sum of Mulliken charges =   0.00000

 Dipole moment (field-independent basis, Debye):
    X=             -0.0716    Y=             -0.0787    Z=             -0.1411  Tot=              0.1767
 Quadrupole moment (field-independent basis, Debye-Ang):
   XX=            -23.8565   YY=            -23.1898   ZZ=            -29.2169
   XY=             -0.6350   XZ=             -0.0216   YZ=             -0.0798

 1\1\GINC-NODE20\SP\RB2PLYPD3-FC\def2QZVP\C4H6\BOITTIER\26-Aug-2020\0\\
 #p B2PLYPD3/Def2QZVP\\butadiene\\0,1\C,0,-3.821237,0.208816,0.065493\C
 ,0,-2.718993,-0.475039,-0.011852\C,0,-1.390956,0.097909,-0.021805\C,0,
 -0.270665,-0.683299,0.072955\H,0,-4.704586,-0.341893,-0.054945\H,0,-3.
 883332,1.333556,0.079503\H,0,-2.732293,-1.526788,-0.050353\H,0,-1.4689
 82,1.228647,-0.051746\H,0,-0.345831,-1.764283,0.274528\H,0,0.746046,-0
 .287215,-0.162229\\Version=ES64L-G09RevD.01\State=1-A\HF=-155.6843113\
 MP2=-155.9110268\RMSD=4.283e-09\PG=C01 [X(C4H6)]\\@

 Normal termination of Gaussian 09 at Wed Aug 26 11:55:06 2020.
