 Gaussian 09, Revision D.01,
 Gaussian 09:  ES64L-G09RevD.01 24-Apr-2013

 --------------------
 #p B2PLYPD3/Def2QZVP
 --------------------

 ---------
 butadiene
 ---------
 Symbolic Z-matrix:
 Charge =  0 Multiplicity = 1

                         Standard orientation:
 ---------------------------------------------------------------------
 Center     Atomic      Atomic             Coordinates (Angstroms)
 Number     Number       Type             X           Y           Z
 ---------------------------------------------------------------------
      1          6           0        1.841662   -0.107625    0.006989
      2          6           0        0.619185    0.387795   -0.058780
      3          6           0       -0.631005   -0.401701   -0.033549
      4          6           0       -1.857439    0.110735    0.022978
      5          1           0        2.736593    0.537440    0.132763
      6          1           0        2.021256   -1.196047    0.095571
      7          1           0        0.527144    1.451439    0.038313
      8          1           0       -0.465747   -1.480292   -0.019296
      9          1           0       -1.921947    1.245909    0.038255
     10          1           0       -2.731712   -0.493672    0.088570
 ---------------------------------------------------------------------

 SCF Done:  E(RB2PLYPD3) =  -155.695099388     A.U. after   11 cycles
 E2(B2PLYPD3) =    -0.2258704113D+00 E(B2PLYPD3) =    -0.15592096979930D+03

 The electronic state is 1-A.
 Alpha  occ. eigenvalues --  -10.62806 -10.62388 -10.61989 -10.61906  -0.92789
 Alpha  occ. eigenvalues --   -0.85182  -0.69534  -0.63733  -0.54810  -0.53258
 Alpha  occ. eigenvalues --   -0.47276  -0.44773  -0.40521  -0.38006  -0.28172
 Alpha virt. eigenvalues --    0.01949   0.06966   0.07307   0.08025   0.09561
 Alpha virt. eigenvalues --    0.11642   0.12374   0.14349   0.15688   0.16150
 Alpha virt. eigenvalues --    0.18821   0.20222   0.21367   0.22780   0.23941

 Mulliken charges:
               1
     1  C   -0.166490
     2  C   -0.024476
     3  C   -0.037190
     4  C   -0.171307
     5  H    0.080868
     6  H    0.058519
     7  H    0.053309
     8  H    0.050311
     9  H    0.059992
    10  H    0.096464
 Sum of Mulliken charges =   0.00000

 Dipole moment (field-independent basis, Debye):
    X=              0.0098    Y=             -0.0287    Z=              0.2802  Tot=              0.2818
 Quadrupole moment (field-independent basis, Debye-Ang):
   XX=            -23.4827   YY=            -23.2744   ZZ=            -29.2871
   XY=              0.1489   XZ=              0.2938   YZ=              0.0432

 1\1\GINC-NODE33\SP\RB2PLYPD3-FC\def2QZVP\C4H6\BOITTIER\26-Aug-2020\0\\
 #p B2PLYPD3/Def2QZVP\\butadiene\\0,1\C,0,-3.850115,0.211758,0.036674\C
 ,0,-2.733104,-0.491114,-0.013059\C,0,-1.364354,0.068737,-0.015704\C,0,
 -0.245594,-0.647477,0.057365\H,0,-4.842877,-0.262836,0.185045\H,0,-3.8
 36756,1.317167,0.088203\H,0,-2.827119,-1.550661,0.120198\H,0,-1.339088
 ,1.159485,-0.038136\H,0,-0.379728,-1.775357,0.111315\H,0,0.72102,-0.20
 289,0.101651\\Version=ES64L-G09RevD.01\State=1-A\HF=-155.6950994\MP2=-
 155.9209698\RMSD=4.429e-09\PG=C01 [X(C4H6)]\\@

 Normal termination of Gaussian 09 at Wed Aug 26 10:20:45 2020.
