 Gaussian 09, Revision D.01,
 Gaussian 09:  ES64L-G09RevD.01 24-Apr-2013

 --------------------
 #p B2PLYPD3/Def2QZVP
 --------------------

 ---------
 butadiene
 ---------
 Symbolic Z-matrix:
 Charge =  0 Multiplicity = 1

                         Standard orientation:
 ---------------------------------------------------------------------
 Center     Atomic      Atomic             Coordinates (Angstroms)
 Number     Number       Type             X           Y           Z
 ---------------------------------------------------------------------
      1          6           0        1.849472   -0.116186   -0.021604
      2          6           0        0.623162    0.403400    0.011564
      3          6           0       -0.613128   -0.381558    0.032935
      4          6           0       -1.846963    0.101956   -0.019245
      5          1           0        2.742886    0.501642   -0.044839
      6          1           0        1.942607   -1.211331    0.002286
      7          1           0        0.458293    1.487944    0.073600
      8          1           0       -0.503201   -1.463430    0.028727
      9          1           0       -2.020934    1.171367   -0.024380
     10          1           0       -2.694910   -0.531862   -0.057288
 ---------------------------------------------------------------------

 SCF Done:  E(RB2PLYPD3) =  -155.699957751     A.U. after   11 cycles
 E2(B2PLYPD3) =    -0.2255451407D+00 E(B2PLYPD3) =    -0.15592550289173D+03

 The electronic state is 1-A.
 Alpha  occ. eigenvalues --  -10.62773 -10.62411 -10.61855 -10.61162  -0.92887
 Alpha  occ. eigenvalues --   -0.85191  -0.70095  -0.63740  -0.54789  -0.53812
 Alpha  occ. eigenvalues --   -0.47123  -0.45434  -0.40787  -0.38032  -0.27958
 Alpha virt. eigenvalues --    0.01846   0.07015   0.07386   0.08064   0.09713
 Alpha virt. eigenvalues --    0.11655   0.12439   0.14591   0.15740   0.16177
 Alpha virt. eigenvalues --    0.18811   0.20399   0.21565   0.22662   0.24005

 Mulliken charges:
               1
     1  C   -0.173917
     2  C   -0.033003
     3  C   -0.022155
     4  C   -0.176978
     5  H    0.092279
     6  H    0.065327
     7  H    0.050552
     8  H    0.046911
     9  H    0.061639
    10  H    0.089344
 Sum of Mulliken charges =   0.00000

 Dipole moment (field-independent basis, Debye):
    X=             -0.0112    Y=              0.0027    Z=              0.0084  Tot=              0.0143
 Quadrupole moment (field-independent basis, Debye-Ang):
   XX=            -23.3410   YY=            -23.2260   ZZ=            -29.2562
   XY=              0.0207   XZ=              0.1277   YZ=              0.0435

 1\1\GINC-NODE13\SP\RB2PLYPD3-FC\def2QZVP\C4H6\BOITTIER\26-Aug-2020\0\\
 #p B2PLYPD3/Def2QZVP\\butadiene\\0,1\C,0,-3.850411,0.225845,-0.002624\
 C,0,-2.735007,-0.500841,0.049426\C,0,-1.379409,0.053561,0.044927\C,0,-
 0.250671,-0.641867,0.010448\H,0,-4.839018,-0.224808,-0.005424\H,0,-3.7
 4851,1.320383,-0.016411\H,0,-2.763983,-1.594711,0.148787\H,0,-1.296526
 ,1.137056,0.0035\H,0,-0.268365,-1.72474,0.042167\H,0,0.69569,-0.16953,
 -0.048582\\Version=ES64L-G09RevD.01\State=1-A\HF=-155.6999578\MP2=-155
 .9255029\RMSD=3.824e-09\PG=C01 [X(C4H6)]\\@

 Normal termination of Gaussian 09 at Wed Aug 26 21:16:40 2020.
