 Gaussian 09, Revision D.01,
 Gaussian 09:  ES64L-G09RevD.01 24-Apr-2013

 --------------------
 #p B2PLYPD3/Def2QZVP
 --------------------

 ---------
 butadiene
 ---------
 Symbolic Z-matrix:
 Charge =  0 Multiplicity = 1

                         Standard orientation:
 ---------------------------------------------------------------------
 Center     Atomic      Atomic             Coordinates (Angstroms)
 Number     Number       Type             X           Y           Z
 ---------------------------------------------------------------------
      1          6           0       -1.849405    0.100053   -0.010676
      2          6           0       -0.610005   -0.379907   -0.038935
      3          6           0        0.621386    0.408041   -0.005530
      4          6           0        1.846258   -0.117472    0.013529
      5          1           0       -2.705510   -0.543350    0.121793
      6          1           0       -2.063142    1.184975    0.042044
      7          1           0       -0.452506   -1.451694    0.068406
      8          1           0        0.516172    1.462052    0.005656
      9          1           0        1.896443   -1.204624   -0.025029
     10          1           0        2.759131    0.488347    0.036800
 ---------------------------------------------------------------------

 SCF Done:  E(RB2PLYPD3) =  -155.697963557     A.U. after   11 cycles
 E2(B2PLYPD3) =    -0.2257500525D+00 E(B2PLYPD3) =    -0.15592371360927D+03

 The electronic state is 1-A.
 Alpha  occ. eigenvalues --  -10.62636 -10.62234 -10.61762 -10.61742  -0.92980
 Alpha  occ. eigenvalues --   -0.85067  -0.69929  -0.64146  -0.54765  -0.53598
 Alpha  occ. eigenvalues --   -0.47099  -0.45264  -0.40864  -0.38078  -0.27918
 Alpha virt. eigenvalues --    0.01736   0.06995   0.07447   0.08051   0.09593
 Alpha virt. eigenvalues --    0.11663   0.12475   0.14567   0.15697   0.16183
 Alpha virt. eigenvalues --    0.18845   0.20288   0.21486   0.22817   0.23937

 Mulliken charges:
               1
     1  C   -0.170829
     2  C   -0.030525
     3  C   -0.030084
     4  C   -0.174211
     5  H    0.084235
     6  H    0.061738
     7  H    0.051533
     8  H    0.055590
     9  H    0.061253
    10  H    0.091300
 Sum of Mulliken charges =   0.00000

 Dipole moment (field-independent basis, Debye):
    X=              0.0170    Y=              0.0431    Z=              0.1957  Tot=              0.2012
 Quadrupole moment (field-independent basis, Debye-Ang):
   XX=            -23.3914   YY=            -23.2702   ZZ=            -29.2464
   XY=              0.0510   XZ=             -0.4539   YZ=             -0.0665

 1\1\GINC-NODE25\SP\RB2PLYPD3-FC\def2QZVP\C4H6\BOITTIER\26-Aug-2020\0\\
 #p B2PLYPD3/Def2QZVP\\butadiene\\0,1\C,0,-3.85596,0.209206,0.018763\C,
 0,-2.721059,-0.482959,0.00535\C,0,-1.369649,0.075594,0.008875\C,0,-0.2
 56718,-0.657183,0.044381\H,0,-4.811159,-0.267795,0.175279\H,0,-3.87432
 5,1.315986,0.033561\H,0,-2.754464,-1.561372,0.150145\H,0,-1.286986,1.1
 31357,-0.016929\H,0,-0.399612,-1.73676,0.044091\H,0,0.748946,-0.221829
 ,0.044737\\Version=ES64L-G09RevD.01\State=1-A\HF=-155.6979636\MP2=-155
 .9237136\RMSD=4.452e-09\PG=C01 [X(C4H6)]\\@

 Normal termination of Gaussian 09 at Wed Aug 26 10:41:14 2020.
