 Gaussian 09, Revision D.01,
 Gaussian 09:  ES64L-G09RevD.01 24-Apr-2013

 --------------------
 #p B2PLYPD3/Def2QZVP
 --------------------

 ---------
 butadiene
 ---------
 Symbolic Z-matrix:
 Charge =  0 Multiplicity = 1

                         Standard orientation:
 ---------------------------------------------------------------------
 Center     Atomic      Atomic             Coordinates (Angstroms)
 Number     Number       Type             X           Y           Z
 ---------------------------------------------------------------------
      1          6           0        1.871027    0.082021    0.076250
      2          6           0        0.615587   -0.354584   -0.060329
      3          6           0       -0.603101    0.416104   -0.087512
      4          6           0       -1.845078   -0.127777    0.027028
      5          1           0        2.786565   -0.556487    0.115807
      6          1           0        2.053009    1.111099    0.030098
      7          1           0        0.385216   -1.360507   -0.142388
      8          1           0       -0.653606    1.548563   -0.124918
      9          1           0       -1.983261   -1.285757    0.040543
     10          1           0       -2.818531    0.448505    0.348234
 ---------------------------------------------------------------------

 SCF Done:  E(RB2PLYPD3) =  -155.675602011     A.U. after   12 cycles
 E2(B2PLYPD3) =    -0.2279397027D+00 E(B2PLYPD3) =    -0.15590354171335D+03

 The electronic state is 1-A.
 Alpha  occ. eigenvalues --  -10.63948 -10.63684 -10.62482 -10.61764  -0.93032
 Alpha  occ. eigenvalues --   -0.84413  -0.70169  -0.63645  -0.54175  -0.53490
 Alpha  occ. eigenvalues --   -0.46673  -0.44396  -0.40978  -0.37672  -0.27515
 Alpha virt. eigenvalues --    0.00948   0.06764   0.07402   0.07659   0.09506
 Alpha virt. eigenvalues --    0.11425   0.12445   0.13999   0.15882   0.16301
 Alpha virt. eigenvalues --    0.18854   0.20096   0.20976   0.22601   0.23426

 Mulliken charges:
               1
     1  C   -0.171295
     2  C   -0.036724
     3  C   -0.026671
     4  C   -0.164021
     5  H    0.084404
     6  H    0.071028
     7  H    0.064218
     8  H    0.052174
     9  H    0.045159
    10  H    0.081729
 Sum of Mulliken charges =   0.00000

 Dipole moment (field-independent basis, Debye):
    X=              0.0032    Y=              0.0185    Z=              0.1302  Tot=              0.1315
 Quadrupole moment (field-independent basis, Debye-Ang):
   XX=            -23.2252   YY=            -23.6292   ZZ=            -29.3616
   XY=             -0.0318   XZ=             -0.7516   YZ=              0.1191

 1\1\GINC-NODE14\SP\RB2PLYPD3-FC\def2QZVP\C4H6\BOITTIER\26-Aug-2020\0\\
 #p B2PLYPD3/Def2QZVP\\butadiene\\0,1\C,0,-3.876686,0.189867,-0.050631\
 C,0,-2.715953,-0.456649,0.091228\C,0,-1.381049,0.089161,0.095622\C,0,-
 0.254332,-0.666202,-0.011006\H,0,-4.890099,-0.279195,-0.07167\H,0,-3.8
 75445,1.235681,-0.027856\H,0,-2.664485,-1.48528,0.195898\H,0,-1.132896
 ,1.195831,0.106328\H,0,-0.320988,-1.830496,0.002034\H,0,0.802352,-0.27
 6592,-0.349398\\Version=ES64L-G09RevD.01\State=1-A\HF=-155.675602\MP2=
 -155.9035417\RMSD=4.308e-09\PG=C01 [X(C4H6)]\\@

 Normal termination of Gaussian 09 at Wed Aug 26 13:37:36 2020.
