 Gaussian 09, Revision D.01,
 Gaussian 09:  ES64L-G09RevD.01 24-Apr-2013

 --------------------
 #p B2PLYPD3/Def2QZVP
 --------------------

 ---------
 butadiene
 ---------
 Symbolic Z-matrix:
 Charge =  0 Multiplicity = 1

                         Standard orientation:
 ---------------------------------------------------------------------
 Center     Atomic      Atomic             Coordinates (Angstroms)
 Number     Number       Type             X           Y           Z
 ---------------------------------------------------------------------
      1          6           0       -1.788997    0.134265   -0.041739
      2          6           0       -0.590706   -0.441500   -0.003049
      3          6           0        0.573997    0.329222    0.052803
      4          6           0        1.805236   -0.064021   -0.027110
      5          1           0       -2.705569   -0.401086   -0.076010
      6          1           0       -1.897648    1.222421    0.182885
      7          1           0       -0.522532   -1.484658    0.053254
      8          1           0        0.420290    1.447746   -0.017798
      9          1           0        2.014791   -1.060640    0.140784
     10          1           0        2.693488    0.528421   -0.168548
 ---------------------------------------------------------------------

 SCF Done:  E(RB2PLYPD3) =  -155.685146627     A.U. after   11 cycles
 E2(B2PLYPD3) =    -0.2251725982D+00 E(B2PLYPD3) =    -0.15591031922499D+03

 The electronic state is 1-A.
 Alpha  occ. eigenvalues --  -10.61817 -10.61676 -10.61561 -10.60089  -0.94446
 Alpha  occ. eigenvalues --   -0.85590  -0.70841  -0.64359  -0.55869  -0.54165
 Alpha  occ. eigenvalues --   -0.47431  -0.44627  -0.41310  -0.38628  -0.27599
 Alpha virt. eigenvalues --    0.01655   0.07060   0.07470   0.08062   0.09820
 Alpha virt. eigenvalues --    0.11710   0.12749   0.14940   0.15665   0.16722
 Alpha virt. eigenvalues --    0.18717   0.19936   0.21915   0.23072   0.23867

 Mulliken charges:
               1
     1  C   -0.162766
     2  C   -0.040511
     3  C   -0.003281
     4  C   -0.174363
     5  H    0.080110
     6  H    0.060349
     7  H    0.061871
     8  H    0.039492
     9  H    0.056546
    10  H    0.082552
 Sum of Mulliken charges =   0.00000

 Dipole moment (field-independent basis, Debye):
    X=             -0.0348    Y=             -0.1251    Z=              0.1523  Tot=              0.2001
 Quadrupole moment (field-independent basis, Debye-Ang):
   XX=            -23.1671   YY=            -23.5188   ZZ=            -28.8003
   XY=             -0.0207   XZ=             -0.4067   YZ=             -0.1112

 1\1\GINC-NODE31\SP\RB2PLYPD3-FC\def2QZVP\C4H6\BOITTIER\26-Aug-2020\0\\
 #p B2PLYPD3/Def2QZVP\\butadiene\\0,1\C,0,-3.784265,0.250175,-0.018397\
 C,0,-2.712764,-0.535322,0.043099\C,0,-1.425188,0.008147,0.064466\C,0,-
 0.288663,-0.609173,-0.00035\H,0,-4.784285,-0.107227,-0.028569\H,0,-3.6
 87796,1.348021,0.15985\H,0,-2.838094,-1.569815,0.143664\H,0,-1.370113,
 1.131874,-0.053474\H,0,-0.265419,-1.619501,0.209527\H,0,0.692456,-0.19
 778,-0.168119\\Version=ES64L-G09RevD.01\State=1-A\HF=-155.6851466\MP2=
 -155.9103192\RMSD=9.695e-09\PG=C01 [X(C4H6)]\\@

 Normal termination of Gaussian 09 at Wed Aug 26 11:49:44 2020.
