 Gaussian 09, Revision D.01,
 Gaussian 09:  ES64L-G09RevD.01 24-Apr-2013

 --------------------
 #p B2PLYPD3/Def2QZVP
 --------------------

 ---------
 butadiene
 ---------
 Symbolic Z-matrix:
 Charge =  0 Multiplicity = 1

                         Standard orientation:
 ---------------------------------------------------------------------
 Center     Atomic      Atomic             Coordinates (Angstroms)
 Number     Number       Type             X           Y           Z
 ---------------------------------------------------------------------
      1          6           0        1.841130   -0.086754   -0.022686
      2          6           0        0.605245    0.333302   -0.016231
      3          6           0       -0.643346   -0.441108    0.044967
      4          6           0       -1.846582    0.149097   -0.003957
      5          1           0        2.614092    0.586001    0.048491
      6          1           0        2.230733   -1.098676   -0.188911
      7          1           0        0.592520    1.525194    0.279533
      8          1           0       -0.504842   -1.515007    0.161755
      9          1           0       -1.883946    1.227151   -0.247571
     10          1           0       -2.787239   -0.451886   -0.065855
 ---------------------------------------------------------------------

 SCF Done:  E(RB2PLYPD3) =  -155.676222435     A.U. after   11 cycles
 E2(B2PLYPD3) =    -0.2267298490D+00 E(B2PLYPD3) =    -0.15590295228425D+03

 The electronic state is 1-A.
 Alpha  occ. eigenvalues --  -10.63541 -10.63264 -10.62473 -10.60644  -0.92725
 Alpha  occ. eigenvalues --   -0.85452  -0.70082  -0.62616  -0.54860  -0.53358
 Alpha  occ. eigenvalues --   -0.47134  -0.44490  -0.39736  -0.37655  -0.28327
 Alpha virt. eigenvalues --    0.01727   0.06841   0.07208   0.07638   0.09311
 Alpha virt. eigenvalues --    0.11229   0.12482   0.14771   0.15369   0.16119
 Alpha virt. eigenvalues --    0.18682   0.19505   0.21750   0.22254   0.24184

 Mulliken charges:
               1
     1  C   -0.170357
     2  C   -0.018768
     3  C   -0.054241
     4  C   -0.155856
     5  H    0.081394
     6  H    0.057382
     7  H    0.039082
     8  H    0.066068
     9  H    0.071665
    10  H    0.083630
 Sum of Mulliken charges =   0.00000

 Dipole moment (field-independent basis, Debye):
    X=              0.0754    Y=             -0.1528    Z=             -0.0391  Tot=              0.1748
 Quadrupole moment (field-independent basis, Debye-Ang):
   XX=            -23.2148   YY=            -23.5286   ZZ=            -29.1546
   XY=             -0.0112   XZ=              0.4956   YZ=              0.0844

 1\1\GINC-NODE37\SP\RB2PLYPD3-FC\def2QZVP\C4H6\BOITTIER\26-Aug-2020\0\\
 #p B2PLYPD3/Def2QZVP\\butadiene\\0,1\C,0,-3.856789,0.185215,0.003341\C
 ,0,-2.712375,-0.442328,0.023566\C,0,-1.348021,0.105478,0.053274\C,0,-0
 .265702,-0.685899,0.024653\H,0,-4.734018,-0.340159,0.10125\H,0,-4.0665
 12,1.242532,-0.200387\H,0,-2.903932,-1.606596,0.364197\H,0,-1.297378,1
 .190695,0.129579\H,0,-0.417719,-1.762349,-0.178057\H,0,0.76432,-0.2599
 06,-0.061555\\Version=ES64L-G09RevD.01\State=1-A\HF=-155.6762224\MP2=-
 155.9029523\RMSD=9.179e-09\PG=C01 [X(C4H6)]\\@

 Normal termination of Gaussian 09 at Wed Aug 26 13:26:23 2020.
