 Gaussian 09, Revision D.01,
 Gaussian 09:  ES64L-G09RevD.01 24-Apr-2013

 --------------------
 #p B2PLYPD3/Def2QZVP
 --------------------

 ---------
 butadiene
 ---------
 Symbolic Z-matrix:
 Charge =  0 Multiplicity = 1

                         Standard orientation:
 ---------------------------------------------------------------------
 Center     Atomic      Atomic             Coordinates (Angstroms)
 Number     Number       Type             X           Y           Z
 ---------------------------------------------------------------------
      1          6           0       -1.846725   -0.142931    0.056278
      2          6           0       -0.650041    0.433168   -0.091281
      3          6           0        0.619099   -0.365602   -0.047329
      4          6           0        1.861268    0.094883    0.075643
      5          1           0       -2.744208    0.421114   -0.072580
      6          1           0       -1.823336   -1.269627    0.322552
      7          1           0       -0.632308    1.552316   -0.040844
      8          1           0        0.503071   -1.372102   -0.234990
      9          1           0        2.168346    1.158715    0.203691
     10          1           0        2.626829   -0.607516   -0.137700
 ---------------------------------------------------------------------

 SCF Done:  E(RB2PLYPD3) =  -155.682758310     A.U. after   11 cycles
 E2(B2PLYPD3) =    -0.2264115768D+00 E(B2PLYPD3) =    -0.15590916988725D+03

 The electronic state is 1-A.
 Alpha  occ. eigenvalues --  -10.63124 -10.62298 -10.62256 -10.61478  -0.92399
 Alpha  occ. eigenvalues --   -0.85237  -0.69410  -0.63506  -0.54507  -0.53555
 Alpha  occ. eigenvalues --   -0.47147  -0.44888  -0.41005  -0.36984  -0.28040
 Alpha virt. eigenvalues --    0.01668   0.06997   0.07425   0.07890   0.09239
 Alpha virt. eigenvalues --    0.11534   0.12206   0.14447   0.15283   0.16353
 Alpha virt. eigenvalues --    0.18989   0.19838   0.20917   0.21797   0.24427

 Mulliken charges:
               1
     1  C   -0.168833
     2  C   -0.045858
     3  C   -0.045049
     4  C   -0.172113
     5  H    0.096301
     6  H    0.058954
     7  H    0.056989
     8  H    0.071048
     9  H    0.069881
    10  H    0.078680
 Sum of Mulliken charges =   0.00000

 Dipole moment (field-independent basis, Debye):
    X=             -0.0432    Y=              0.0607    Z=             -0.0541  Tot=              0.0921
 Quadrupole moment (field-independent basis, Debye-Ang):
   XX=            -23.7253   YY=            -23.1997   ZZ=            -29.1816
   XY=             -0.1856   XZ=             -0.4174   YZ=              0.2018

 1\1\GINC-NODE37\SP\RB2PLYPD3-FC\def2QZVP\C4H6\BOITTIER\26-Aug-2020\0\\
 #p B2PLYPD3/Def2QZVP\\butadiene\\0,1\C,0,-3.845556,0.2389,-0.042295\C,
 0,-2.763878,-0.527361,0.126617\C,0,-1.377604,0.042754,0.064203\C,0,-0.
 231793,-0.625309,-0.040503\H,0,-4.825618,-0.160583,0.099553\H,0,-3.631
 538,1.33694,-0.341287\H,0,-2.936465,-1.634273,0.108973\H,0,-1.320846,1
 .059426,0.221927\H,0,-0.109938,-1.729129,-0.136232\H,0,0.642157,-0.057
 072,0.155154\\Version=ES64L-G09RevD.01\State=1-A\HF=-155.6827583\MP2=-
 155.9091699\RMSD=5.197e-09\PG=C01 [X(C4H6)]\\@

 Normal termination of Gaussian 09 at Wed Aug 26 14:22:01 2020.
