 Gaussian 09, Revision D.01,
 Gaussian 09:  ES64L-G09RevD.01 24-Apr-2013

 --------------------
 #p B2PLYPD3/Def2QZVP
 --------------------

 ---------
 butadiene
 ---------
 Symbolic Z-matrix:
 Charge =  0 Multiplicity = 1

                         Standard orientation:
 ---------------------------------------------------------------------
 Center     Atomic      Atomic             Coordinates (Angstroms)
 Number     Number       Type             X           Y           Z
 ---------------------------------------------------------------------
      1          6           0        1.846208    0.121426    0.024244
      2          6           0        0.619111   -0.424690   -0.026274
      3          6           0       -0.616831    0.375666   -0.023933
      4          6           0       -1.859232   -0.104081   -0.006352
      5          1           0        2.771624   -0.443650    0.053512
      6          1           0        1.951144    1.252283    0.010592
      7          1           0        0.521351   -1.483435   -0.004720
      8          1           0       -0.518066    1.456211   -0.072614
      9          1           0       -1.991887   -1.184482    0.027154
     10          1           0       -2.669699    0.593145    0.179962
 ---------------------------------------------------------------------

 SCF Done:  E(RB2PLYPD3) =  -155.695585492     A.U. after   11 cycles
 E2(B2PLYPD3) =    -0.2262455525D+00 E(B2PLYPD3) =    -0.15592183104484D+03

 The electronic state is 1-A.
 Alpha  occ. eigenvalues --  -10.62801 -10.62555 -10.62397 -10.61449  -0.92688
 Alpha  occ. eigenvalues --   -0.84940  -0.69604  -0.63996  -0.54355  -0.53886
 Alpha  occ. eigenvalues --   -0.46607  -0.45061  -0.41247  -0.37819  -0.27815
 Alpha virt. eigenvalues --    0.01670   0.06947   0.07417   0.07996   0.09445
 Alpha virt. eigenvalues --    0.11662   0.12401   0.14377   0.15648   0.16320
 Alpha virt. eigenvalues --    0.18786   0.19819   0.21617   0.22628   0.24145

 Mulliken charges:
               1
     1  C   -0.165394
     2  C   -0.047146
     3  C   -0.019862
     4  C   -0.177084
     5  H    0.088272
     6  H    0.057728
     7  H    0.059229
     8  H    0.052917
     9  H    0.063951
    10  H    0.087390
 Sum of Mulliken charges =   0.00000

 Dipole moment (field-independent basis, Debye):
    X=              0.1009    Y=             -0.0180    Z=              0.1510  Tot=              0.1824
 Quadrupole moment (field-independent basis, Debye-Ang):
   XX=            -23.6880   YY=            -23.0921   ZZ=            -29.3400
   XY=             -0.1877   XZ=             -0.3808   YZ=              0.0024

 1\1\GINC-NODE11\SP\RB2PLYPD3-FC\def2QZVP\C4H6\BOITTIER\26-Aug-2020\0\\
 #p B2PLYPD3/Def2QZVP\\butadiene\\0,1\C,0,-3.849678,0.228361,-0.004553\
 C,0,-2.736022,-0.521378,0.060439\C,0,-1.37972,0.051193,0.033365\C,0,-0
 .239869,-0.637822,0.028337\H,0,-4.859458,-0.16758,-0.016285\H,0,-3.756
 175,1.360141,-0.023726\H,0,-2.824094,-1.581153,0.069621\H,0,-1.288677,
 1.133373,0.050665\H,0,-0.297421,-1.725328,0.026162\H,0,0.678372,-0.097
 932,-0.179139\\Version=ES64L-G09RevD.01\State=1-A\HF=-155.6955855\MP2=
 -155.921831\RMSD=4.980e-09\PG=C01 [X(C4H6)]\\@

 Normal termination of Gaussian 09 at Wed Aug 26 09:17:07 2020.
