 Gaussian 09, Revision D.01,
 Gaussian 09:  ES64L-G09RevD.01 24-Apr-2013

 --------------------
 #p B2PLYPD3/Def2QZVP
 --------------------

 ---------
 butadiene
 ---------
 Symbolic Z-matrix:
 Charge =  0 Multiplicity = 1

                         Standard orientation:
 ---------------------------------------------------------------------
 Center     Atomic      Atomic             Coordinates (Angstroms)
 Number     Number       Type             X           Y           Z
 ---------------------------------------------------------------------
      1          6           0        1.800353    0.112391   -0.018065
      2          6           0        0.623479   -0.428778   -0.019959
      3          6           0       -0.595452    0.397516    0.032868
      4          6           0       -1.817156   -0.123849   -0.065942
      5          1           0        2.670365   -0.436643    0.059784
      6          1           0        1.808164    1.260894   -0.147077
      7          1           0        0.534105   -1.520092    0.245552
      8          1           0       -0.449059    1.534979    0.171736
      9          1           0       -2.038548   -1.198504   -0.052459
     10          1           0       -2.592375    0.615686    0.149055
 ---------------------------------------------------------------------

 SCF Done:  E(RB2PLYPD3) =  -155.680495332     A.U. after   11 cycles
 E2(B2PLYPD3) =    -0.2263835392D+00 E(B2PLYPD3) =    -0.15590687887101D+03

 The electronic state is 1-A.
 Alpha  occ. eigenvalues --  -10.63279 -10.62193 -10.61470 -10.61076  -0.93177
 Alpha  occ. eigenvalues --   -0.85462  -0.69107  -0.62583  -0.54939  -0.53414
 Alpha  occ. eigenvalues --   -0.46547  -0.44452  -0.40437  -0.37827  -0.28368
 Alpha virt. eigenvalues --    0.02364   0.06654   0.07262   0.07893   0.09214
 Alpha virt. eigenvalues --    0.11665   0.12272   0.14524   0.15274   0.16308
 Alpha virt. eigenvalues --    0.18507   0.19276   0.21341   0.22788   0.24572

 Mulliken charges:
               1
     1  C   -0.173536
     2  C   -0.016985
     3  C   -0.037386
     4  C   -0.169839
     5  H    0.093725
     6  H    0.053531
     7  H    0.053923
     8  H    0.047718
     9  H    0.073337
    10  H    0.075513
 Sum of Mulliken charges =   0.00000

 Dipole moment (field-independent basis, Debye):
    X=              0.1371    Y=             -0.0722    Z=              0.3980  Tot=              0.4271
 Quadrupole moment (field-independent basis, Debye-Ang):
   XX=            -24.2856   YY=            -22.9888   ZZ=            -29.1523
   XY=             -0.0213   XZ=             -0.2648   YZ=             -0.1224

 1\1\GINC-NODE09\SP\RB2PLYPD3-FC\def2QZVP\C4H6\BOITTIER\26-Aug-2020\0\\
 #p B2PLYPD3/Def2QZVP\\butadiene\\0,1\C,0,-3.801619,0.220332,0.033101\C
 ,0,-2.739749,-0.521446,0.042903\C,0,-1.393511,0.073886,-0.024687\C,0,-
 0.283633,-0.654817,0.081651\H,0,-4.755694,-0.166372,-0.03487\H,0,-3.60
 4562,1.353838,0.143086\H,0,-2.846895,-1.615393,-0.204582\H,0,-1.335813
 ,1.216858,-0.182238\H,0,-0.256941,-1.751791,0.085765\H,0,0.60992,-0.06
 8539,-0.146254\\Version=ES64L-G09RevD.01\State=1-A\HF=-155.6804953\MP2
 =-155.9068789\RMSD=8.981e-09\PG=C01 [X(C4H6)]\\@

 Normal termination of Gaussian 09 at Wed Aug 26 11:37:28 2020.
