 Gaussian 09, Revision D.01,
 Gaussian 09:  ES64L-G09RevD.01 24-Apr-2013

 --------------------
 #p B2PLYPD3/Def2QZVP
 --------------------

 ---------
 butadiene
 ---------
 Symbolic Z-matrix:
 Charge =  0 Multiplicity = 1

                         Standard orientation:
 ---------------------------------------------------------------------
 Center     Atomic      Atomic             Coordinates (Angstroms)
 Number     Number       Type             X           Y           Z
 ---------------------------------------------------------------------
      1          6           0        1.834596    0.099976    0.001029
      2          6           0        0.592608   -0.389749   -0.009885
      3          6           0       -0.596277    0.415044   -0.006264
      4          6           0       -1.829117   -0.110385    0.015009
      5          1           0        2.669693   -0.582337    0.030220
      6          1           0        2.061695    1.174588    0.058435
      7          1           0        0.439871   -1.470348   -0.078466
      8          1           0       -0.451954    1.483735   -0.036445
      9          1           0       -1.982424   -1.176536    0.074481
     10          1           0       -2.747743    0.481582   -0.047555
 ---------------------------------------------------------------------

 SCF Done:  E(RB2PLYPD3) =  -155.699956238     A.U. after   11 cycles
 E2(B2PLYPD3) =    -0.2259775009D+00 E(B2PLYPD3) =    -0.15592593373868D+03

 The electronic state is 1-A.
 Alpha  occ. eigenvalues --  -10.62458 -10.62394 -10.61719 -10.61621  -0.93227
 Alpha  occ. eigenvalues --   -0.84704  -0.70286  -0.64084  -0.54632  -0.53790
 Alpha  occ. eigenvalues --   -0.46629  -0.45465  -0.41205  -0.38285  -0.27508
 Alpha virt. eigenvalues --    0.01575   0.07015   0.07361   0.08052   0.09617
 Alpha virt. eigenvalues --    0.11673   0.12412   0.14791   0.15778   0.16202
 Alpha virt. eigenvalues --    0.18756   0.20316   0.21794   0.22719   0.23762

 Mulliken charges:
               1
     1  C   -0.179163
     2  C   -0.026152
     3  C   -0.030467
     4  C   -0.173423
     5  H    0.084187
     6  H    0.066864
     7  H    0.053897
     8  H    0.057684
     9  H    0.063466
    10  H    0.083107
 Sum of Mulliken charges =   0.00000

 Dipole moment (field-independent basis, Debye):
    X=             -0.0261    Y=             -0.0060    Z=             -0.0046  Tot=              0.0272
 Quadrupole moment (field-independent basis, Debye-Ang):
   XX=            -23.5075   YY=            -23.1172   ZZ=            -29.2728
   XY=              0.2818   XZ=              0.2036   YZ=             -0.0210

 1\1\GINC-NODE38\SP\RB2PLYPD3-FC\def2QZVP\C4H6\BOITTIER\26-Aug-2020\0\\
 #p B2PLYPD3/Def2QZVP\\butadiene\\0,1\C,0,-3.836734,0.220653,0.014862\C
 ,0,-2.7066,-0.489564,0.044399\C,0,-1.389492,0.081269,0.021427\C,0,-0.2
 75009,-0.663276,0.019802\H,0,-4.78358,-0.296187,0.002693\H,0,-3.861476
 ,1.316568,-0.074686\H,0,-2.756023,-1.577294,0.145033\H,0,-1.333805,1.1
 58644,0.019889\H,0,-0.321455,-1.740675,-0.007982\H,0,0.7373,-0.24964,0
 .068257\\Version=ES64L-G09RevD.01\State=1-A\HF=-155.6999562\MP2=-155.9
 259337\RMSD=4.204e-09\PG=C01 [X(C4H6)]\\@

 Normal termination of Gaussian 09 at Wed Aug 26 22:07:42 2020.
