 Gaussian 09, Revision D.01,
 Gaussian 09:  ES64L-G09RevD.01 24-Apr-2013

 --------------------
 #p B2PLYPD3/Def2QZVP
 --------------------

 ---------
 butadiene
 ---------
 Symbolic Z-matrix:
 Charge =  0 Multiplicity = 1

                         Standard orientation:
 ---------------------------------------------------------------------
 Center     Atomic      Atomic             Coordinates (Angstroms)
 Number     Number       Type             X           Y           Z
 ---------------------------------------------------------------------
      1          6           0       -1.853217   -0.145367    0.012820
      2          6           0       -0.652500    0.453958   -0.045586
      3          6           0        0.622154   -0.350302   -0.041737
      4          6           0        1.863147    0.091945    0.056238
      5          1           0       -2.784139    0.363090    0.246446
      6          1           0       -1.896768   -1.208674   -0.086762
      7          1           0       -0.525965    1.471005   -0.067878
      8          1           0        0.600009   -1.447525    0.039133
      9          1           0        2.128537    1.170979   -0.019294
     10          1           0        2.600823   -0.650275   -0.002053
 ---------------------------------------------------------------------

 SCF Done:  E(RB2PLYPD3) =  -155.687456474     A.U. after   11 cycles
 E2(B2PLYPD3) =    -0.2256458026D+00 E(B2PLYPD3) =    -0.15591310227654D+03

 The electronic state is 1-A.
 Alpha  occ. eigenvalues --  -10.62801 -10.62610 -10.61828 -10.60976  -0.92444
 Alpha  occ. eigenvalues --   -0.85494  -0.69930  -0.64048  -0.54455  -0.54279
 Alpha  occ. eigenvalues --   -0.47364  -0.45231  -0.40905  -0.37459  -0.28038
 Alpha virt. eigenvalues --    0.01867   0.06963   0.07611   0.08092   0.09227
 Alpha virt. eigenvalues --    0.11601   0.12434   0.14503   0.15611   0.16562
 Alpha virt. eigenvalues --    0.18893   0.19139   0.21802   0.22911   0.24856

 Mulliken charges:
               1
     1  C   -0.163340
     2  C   -0.056775
     3  C   -0.023420
     4  C   -0.174160
     5  H    0.086040
     6  H    0.070827
     7  H    0.073547
     8  H    0.045444
     9  H    0.060142
    10  H    0.081696
 Sum of Mulliken charges =   0.00000

 Dipole moment (field-independent basis, Debye):
    X=             -0.1168    Y=             -0.0005    Z=              0.0324  Tot=              0.1212
 Quadrupole moment (field-independent basis, Debye-Ang):
   XX=            -23.6294   YY=            -23.0434   ZZ=            -29.1854
   XY=             -0.0374   XZ=             -0.6339   YZ=              0.0658

 1\1\GINC-NODE11\SP\RB2PLYPD3-FC\def2QZVP\C4H6\BOITTIER\26-Aug-2020\0\\
 #p B2PLYPD3/Def2QZVP\\butadiene\\0,1\C,0,-3.849992,0.247761,-0.007223\
 C,0,-2.768987,-0.544691,0.080929\C,0,-1.375896,0.029945,0.05478\C,0,-0
 .228484,-0.620633,-0.01897\H,0,-4.854041,-0.103174,-0.227347\H,0,-3.71
 1621,1.305946,0.052214\H,0,-2.81766,-1.56684,0.142055\H,0,-1.210715,1.
 111034,-0.067244\H,0,-0.150882,-1.725451,0.098528\H,0,0.624934,-0.0132
 54,0.01601\\Version=ES64L-G09RevD.01\State=1-A\HF=-155.6874565\MP2=-15
 5.9131023\RMSD=7.555e-09\PG=C01 [X(C4H6)]\\@

 Normal termination of Gaussian 09 at Wed Aug 26 12:02:54 2020.
