 Gaussian 09, Revision D.01,
 Gaussian 09:  ES64L-G09RevD.01 24-Apr-2013

 --------------------
 #p B2PLYPD3/Def2QZVP
 --------------------

 ---------
 butadiene
 ---------
 Symbolic Z-matrix:
 Charge =  0 Multiplicity = 1

                         Standard orientation:
 ---------------------------------------------------------------------
 Center     Atomic      Atomic             Coordinates (Angstroms)
 Number     Number       Type             X           Y           Z
 ---------------------------------------------------------------------
      1          6           0        1.838998    0.111757    0.016925
      2          6           0        0.612031   -0.401588   -0.007339
      3          6           0       -0.615133    0.379632   -0.030087
      4          6           0       -1.844041   -0.108079    0.005938
      5          1           0        2.728377   -0.499831   -0.004115
      6          1           0        1.980200    1.213290    0.054841
      7          1           0        0.499303   -1.468409   -0.063008
      8          1           0       -0.471031    1.455668   -0.027725
      9          1           0       -2.025228   -1.171525    0.086387
     10          1           0       -2.662748    0.580479    0.040996
 ---------------------------------------------------------------------

 SCF Done:  E(RB2PLYPD3) =  -155.700423769     A.U. after   11 cycles
 E2(B2PLYPD3) =    -0.2253115414D+00 E(B2PLYPD3) =    -0.15592573531071D+03

 The electronic state is 1-A.
 Alpha  occ. eigenvalues --  -10.62304 -10.62238 -10.61757 -10.61200  -0.93105
 Alpha  occ. eigenvalues --   -0.85233  -0.70102  -0.63940  -0.54660  -0.54052
 Alpha  occ. eigenvalues --   -0.46929  -0.45532  -0.40855  -0.38221  -0.27930
 Alpha virt. eigenvalues --    0.01873   0.06999   0.07433   0.08067   0.09790
 Alpha virt. eigenvalues --    0.11705   0.12346   0.14723   0.15789   0.16136
 Alpha virt. eigenvalues --    0.18791   0.20491   0.21452   0.22643   0.24004

 Mulliken charges:
               1
     1  C   -0.173323
     2  C   -0.032102
     3  C   -0.024824
     4  C   -0.177945
     5  H    0.088269
     6  H    0.059928
     7  H    0.053664
     8  H    0.049665
     9  H    0.069032
    10  H    0.087637
 Sum of Mulliken charges =   0.00000

 Dipole moment (field-independent basis, Debye):
    X=              0.0199    Y=             -0.0149    Z=              0.0600  Tot=              0.0649
 Quadrupole moment (field-independent basis, Debye-Ang):
   XX=            -23.5238   YY=            -23.1165   ZZ=            -29.2008
   XY=              0.0156   XZ=             -0.2554   YZ=              0.0478

 1\1\GINC-NODE14\SP\RB2PLYPD3-FC\def2QZVP\C4H6\BOITTIER\26-Aug-2020\0\\
 #p B2PLYPD3/Def2QZVP\\butadiene\\0,1\C,0,-3.842379,0.224228,0.002778\C
 ,0,-2.726459,-0.498644,0.044473\C,0,-1.379564,0.051456,0.040418\C,0,-0
 .257536,-0.64858,0.020984\H,0,-4.826396,-0.217841,0.044773\H,0,-3.7851
 73,1.331375,-0.072744\H,0,-2.805385,-1.565979,0.136554\H,0,-1.329537,1
 .135242,0.001301\H,0,-0.26934,-1.729383,-0.023094\H,0,0.670577,-0.1186
 83,-0.037645\\Version=ES64L-G09RevD.01\State=1-A\HF=-155.7004238\MP2=-
 155.9257353\RMSD=2.631e-09\PG=C01 [X(C4H6)]\\@

 Normal termination of Gaussian 09 at Wed Aug 26 20:52:33 2020.
