 Gaussian 09, Revision D.01,
 Gaussian 09:  ES64L-G09RevD.01 24-Apr-2013

 --------------------
 #p B2PLYPD3/Def2QZVP
 --------------------

 ---------
 butadiene
 ---------
 Symbolic Z-matrix:
 Charge =  0 Multiplicity = 1

                         Standard orientation:
 ---------------------------------------------------------------------
 Center     Atomic      Atomic             Coordinates (Angstroms)
 Number     Number       Type             X           Y           Z
 ---------------------------------------------------------------------
      1          6           0        1.836177    0.105346   -0.007237
      2          6           0        0.601523   -0.413276   -0.001184
      3          6           0       -0.599078    0.411034   -0.029050
      4          6           0       -1.839925   -0.113359    0.008323
      5          1           0        2.748022   -0.489686    0.069669
      6          1           0        1.975799    1.199478    0.016388
      7          1           0        0.465235   -1.501838    0.003774
      8          1           0       -0.465609    1.487606    0.036912
      9          1           0       -2.022437   -1.168073   -0.010837
     10          1           0       -2.693189    0.534044    0.058981
 ---------------------------------------------------------------------

 SCF Done:  E(RB2PLYPD3) =  -155.699516995     A.U. after   11 cycles
 E2(B2PLYPD3) =    -0.2262456815D+00 E(B2PLYPD3) =    -0.15592576267604D+03

 The electronic state is 1-A.
 Alpha  occ. eigenvalues --  -10.62817 -10.62759 -10.61859 -10.61466  -0.92805
 Alpha  occ. eigenvalues --   -0.84621  -0.70016  -0.64055  -0.54469  -0.53793
 Alpha  occ. eigenvalues --   -0.46484  -0.45511  -0.41298  -0.38001  -0.27514
 Alpha virt. eigenvalues --    0.01630   0.07033   0.07332   0.08055   0.09340
 Alpha virt. eigenvalues --    0.11658   0.12465   0.14634   0.15769   0.16274
 Alpha virt. eigenvalues --    0.18757   0.20272   0.21795   0.23014   0.23687

 Mulliken charges:
               1
     1  C   -0.170083
     2  C   -0.031771
     3  C   -0.031207
     4  C   -0.179320
     5  H    0.084676
     6  H    0.059258
     7  H    0.055521
     8  H    0.058325
     9  H    0.070206
    10  H    0.084394
 Sum of Mulliken charges =   0.00000

 Dipole moment (field-independent basis, Debye):
    X=             -0.0157    Y=             -0.0120    Z=              0.1395  Tot=              0.1409
 Quadrupole moment (field-independent basis, Debye-Ang):
   XX=            -23.5311   YY=            -23.0525   ZZ=            -29.3612
   XY=              0.1891   XZ=              0.0607   YZ=              0.0886

 1\1\GINC-NODE21\SP\RB2PLYPD3-FC\def2QZVP\C4H6\BOITTIER\26-Aug-2020\0\\
 #p B2PLYPD3/Def2QZVP\\butadiene\\0,1\C,0,-3.838642,0.222976,0.020059\C
 ,0,-2.718622,-0.51098,0.035549\C,0,-1.388279,0.082222,0.037222\C,0,-0.
 263339,-0.659637,0.021633\H,0,-4.843615,-0.199036,-0.038019\H,0,-3.777
 505,1.322749,-0.042711\H,0,-2.78214,-1.605684,0.069548\H,0,-1.324444,1
 .162124,-0.067219\H,0,-0.275163,-1.728612,0.078652\H,0,0.693028,-0.180
 033,-0.049779\\Version=ES64L-G09RevD.01\State=1-A\HF=-155.699517\MP2=-
 155.9257627\RMSD=5.882e-09\PG=C01 [X(C4H6)]\\@

 Normal termination of Gaussian 09 at Wed Aug 26 16:20:23 2020.
