 Gaussian 09, Revision D.01,
 Gaussian 09:  ES64L-G09RevD.01 24-Apr-2013

 --------------------
 #p B2PLYPD3/Def2QZVP
 --------------------

 ---------
 butadiene
 ---------
 Symbolic Z-matrix:
 Charge =  0 Multiplicity = 1

                         Standard orientation:
 ---------------------------------------------------------------------
 Center     Atomic      Atomic             Coordinates (Angstroms)
 Number     Number       Type             X           Y           Z
 ---------------------------------------------------------------------
      1          6           0        1.839961   -0.122605    0.015638
      2          6           0        0.607784    0.413207   -0.028900
      3          6           0       -0.610600   -0.391548   -0.036919
      4          6           0       -1.851001    0.100464    0.027462
      5          1           0        2.734947    0.484512    0.033196
      6          1           0        1.989032   -1.192230    0.067466
      7          1           0        0.550492    1.523209    0.017880
      8          1           0       -0.467439   -1.461753   -0.035972
      9          1           0       -2.011772    1.160884   -0.004842
     10          1           0       -2.712126   -0.511729    0.058585
 ---------------------------------------------------------------------

 SCF Done:  E(RB2PLYPD3) =  -155.699535151     A.U. after   11 cycles
 E2(B2PLYPD3) =    -0.2258592862D+00 E(B2PLYPD3) =    -0.15592539443698D+03

 The electronic state is 1-A.
 Alpha  occ. eigenvalues --  -10.63042 -10.62639 -10.61634 -10.61161  -0.92752
 Alpha  occ. eigenvalues --   -0.84919  -0.70257  -0.63960  -0.54758  -0.54020
 Alpha  occ. eigenvalues --   -0.46618  -0.45514  -0.41310  -0.37962  -0.27634
 Alpha virt. eigenvalues --    0.01645   0.07038   0.07441   0.08023   0.09498
 Alpha virt. eigenvalues --    0.11625   0.12542   0.14592   0.15903   0.16303
 Alpha virt. eigenvalues --    0.18837   0.20424   0.21732   0.22882   0.23728

 Mulliken charges:
               1
     1  C   -0.174431
     2  C   -0.030388
     3  C   -0.033390
     4  C   -0.173922
     5  H    0.085040
     6  H    0.063453
     7  H    0.052998
     8  H    0.056445
     9  H    0.066125
    10  H    0.088069
 Sum of Mulliken charges =   0.00000

 Dipole moment (field-independent basis, Debye):
    X=              0.0132    Y=             -0.0128    Z=              0.0800  Tot=              0.0821
 Quadrupole moment (field-independent basis, Debye-Ang):
   XX=            -23.2909   YY=            -23.1390   ZZ=            -29.3023
   XY=             -0.0425   XZ=              0.0973   YZ=             -0.0429

 1\1\GINC-NODE09\SP\RB2PLYPD3-FC\def2QZVP\C4H6\BOITTIER\26-Aug-2020\0\\
 #p B2PLYPD3/Def2QZVP\\butadiene\\0,1\C,0,-3.842731,0.231884,0.038229\C
 ,0,-2.725082,-0.514661,0.008763\C,0,-1.383492,0.061099,-0.019355\C,0,-
 0.249574,-0.640984,0.05892\H,0,-4.831003,-0.20646,0.070966\H,0,-3.7998
 47,1.31198,0.061873\H,0,-2.865065,-1.615669,0.084677\H,0,-1.334883,1.1
 39399,-0.046584\H,0,-0.279239,-1.71359,0.054561\H,0,0.706458,-0.190386
 ,0.074686\\Version=ES64L-G09RevD.01\State=1-A\HF=-155.6995352\MP2=-155
 .9253944\RMSD=3.537e-09\PG=C01 [X(C4H6)]\\@

 Normal termination of Gaussian 09 at Wed Aug 26 14:47:33 2020.
