 Gaussian 09, Revision D.01,
 Gaussian 09:  ES64L-G09RevD.01 24-Apr-2013

 --------------------
 #p B2PLYPD3/Def2QZVP
 --------------------

 ---------
 butadiene
 ---------
 Symbolic Z-matrix:
 Charge =  0 Multiplicity = 1

                         Standard orientation:
 ---------------------------------------------------------------------
 Center     Atomic      Atomic             Coordinates (Angstroms)
 Number     Number       Type             X           Y           Z
 ---------------------------------------------------------------------
      1          6           0        1.840460    0.116147   -0.026964
      2          6           0        0.607127   -0.407639    0.026926
      3          6           0       -0.605558    0.385119    0.004892
      4          6           0       -1.842055   -0.107767   -0.013436
      5          1           0        2.737742   -0.497034    0.021827
      6          1           0        2.036045    1.175112   -0.030836
      7          1           0        0.486043   -1.476861    0.035702
      8          1           0       -0.516566    1.478266    0.070194
      9          1           0       -2.058838   -1.176829   -0.049534
     10          1           0       -2.684268    0.582186    0.004138
 ---------------------------------------------------------------------

 SCF Done:  E(RB2PLYPD3) =  -155.700141807     A.U. after   11 cycles
 E2(B2PLYPD3) =    -0.2258135478D+00 E(B2PLYPD3) =    -0.15592595535508D+03

 The electronic state is 1-A.
 Alpha  occ. eigenvalues --  -10.62630 -10.62500 -10.61663 -10.61570  -0.92955
 Alpha  occ. eigenvalues --   -0.84891  -0.70192  -0.63974  -0.54478  -0.54043
 Alpha  occ. eigenvalues --   -0.46605  -0.45418  -0.41079  -0.38136  -0.27681
 Alpha virt. eigenvalues --    0.01647   0.06977   0.07448   0.07962   0.09670
 Alpha virt. eigenvalues --    0.11617   0.12376   0.14766   0.15782   0.16272
 Alpha virt. eigenvalues --    0.18862   0.20311   0.21802   0.22461   0.23830

 Mulliken charges:
               1
     1  C   -0.168243
     2  C   -0.040375
     3  C   -0.023324
     4  C   -0.178012
     5  H    0.080568
     6  H    0.066180
     7  H    0.060053
     8  H    0.052890
     9  H    0.066920
    10  H    0.083342
 Sum of Mulliken charges =   0.00000

 Dipole moment (field-independent basis, Debye):
    X=              0.0244    Y=              0.0046    Z=              0.0663  Tot=              0.0708
 Quadrupole moment (field-independent basis, Debye-Ang):
   XX=            -23.4437   YY=            -23.0776   ZZ=            -29.2909
   XY=              0.1986   XZ=              0.0625   YZ=              0.0660

 1\1\GINC-NODE13\SP\RB2PLYPD3-FC\def2QZVP\C4H6\BOITTIER\26-Aug-2020\0\\
 #p B2PLYPD3/Def2QZVP\\butadiene\\0,1\C,0,-3.841515,0.231549,0.041839\C
 ,0,-2.722336,-0.506508,0.009024\C,0,-1.387057,0.056147,0.006716\C,0,-0
 .258951,-0.64962,0.045021\H,0,-4.834401,-0.212042,0.011994\H,0,-3.8439
 84,1.307921,0.008776\H,0,-2.795018,-1.579768,0.037357\H,0,-1.278792,1.
 144632,-0.096395\H,0,-0.237288,-1.73835,0.118429\H,0,0.693278,-0.12294
 7,0.005763\\Version=ES64L-G09RevD.01\State=1-A\HF=-155.7001418\MP2=-15
 5.9259554\RMSD=5.327e-09\PG=C01 [X(C4H6)]\\@

 Normal termination of Gaussian 09 at Wed Aug 26 18:36:11 2020.
