 Gaussian 09, Revision D.01,
 Gaussian 09:  ES64L-G09RevD.01 24-Apr-2013

 --------------------
 #p B2PLYPD3/Def2QZVP
 --------------------

 ---------
 butadiene
 ---------
 Symbolic Z-matrix:
 Charge =  0 Multiplicity = 1

                         Standard orientation:
 ---------------------------------------------------------------------
 Center     Atomic      Atomic             Coordinates (Angstroms)
 Number     Number       Type             X           Y           Z
 ---------------------------------------------------------------------
      1          6           0       -1.844084    0.097413    0.017858
      2          6           0       -0.602680   -0.388980   -0.023703
      3          6           0        0.603311    0.422108   -0.023724
      4          6           0        1.837124   -0.126983    0.005257
      5          1           0       -2.708883   -0.539193    0.077033
      6          1           0       -2.013519    1.154285   -0.010006
      7          1           0       -0.473621   -1.468449   -0.052436
      8          1           0        0.481660    1.520330    0.006255
      9          1           0        2.012428   -1.188636    0.057812
     10          1           0        2.739907    0.500310    0.067210
 ---------------------------------------------------------------------

 SCF Done:  E(RB2PLYPD3) =  -155.699598853     A.U. after   11 cycles
 E2(B2PLYPD3) =    -0.2261363354D+00 E(B2PLYPD3) =    -0.15592573518875D+03

 The electronic state is 1-A.
 Alpha  occ. eigenvalues --  -10.63133 -10.62491 -10.61973 -10.61225  -0.92829
 Alpha  occ. eigenvalues --   -0.84695  -0.70135  -0.64024  -0.54518  -0.53852
 Alpha  occ. eigenvalues --   -0.46602  -0.45460  -0.41271  -0.38023  -0.27525
 Alpha virt. eigenvalues --    0.01584   0.06998   0.07384   0.08007   0.09461
 Alpha virt. eigenvalues --    0.11651   0.12466   0.14682   0.15857   0.16203
 Alpha virt. eigenvalues --    0.18785   0.20498   0.21702   0.22888   0.23641

 Mulliken charges:
               1
     1  C   -0.178334
     2  C   -0.024117
     3  C   -0.037468
     4  C   -0.172659
     5  H    0.086796
     6  H    0.064447
     7  H    0.054536
     8  H    0.056679
     9  H    0.069477
    10  H    0.080643
 Sum of Mulliken charges =   0.00000

 Dipole moment (field-independent basis, Debye):
    X=              0.0131    Y=             -0.0160    Z=              0.1016  Tot=              0.1036
 Quadrupole moment (field-independent basis, Debye-Ang):
   XX=            -23.4807   YY=            -23.0724   ZZ=            -29.3388
   XY=             -0.2027   XZ=              0.1467   YZ=             -0.0252

 1\1\GINC-NODE33\SP\RB2PLYPD3-FC\def2QZVP\C4H6\BOITTIER\26-Aug-2020\0\\
 #p B2PLYPD3/Def2QZVP\\butadiene\\0,1\C,0,-3.848009,0.212996,0.036644\C
 ,0,-2.714511,-0.489894,0.013865\C,0,-1.382249,0.090543,-0.007329\C,0,-
 0.267326,-0.670456,0.042301\H,0,-4.813103,-0.25547,0.112661\H,0,-3.824
 55,1.28174,-0.024171\H,0,-2.781894,-1.57533,0.018678\H,0,-1.304202,1.1
 93122,-0.01145\H,0,-0.28581,-1.744198,0.12796\H,0,0.733757,-0.214258,0
 .087757\\Version=ES64L-G09RevD.01\State=1-A\HF=-155.6995989\MP2=-155.9
 257352\RMSD=5.404e-09\PG=C01 [X(C4H6)]\\@

 Normal termination of Gaussian 09 at Wed Aug 26 19:47:24 2020.
