 Gaussian 09, Revision D.01,
 Gaussian 09:  ES64L-G09RevD.01 24-Apr-2013

 --------------------
 #p B2PLYPD3/Def2QZVP
 --------------------

 ---------
 butadiene
 ---------
 Symbolic Z-matrix:
 Charge =  0 Multiplicity = 1

                         Standard orientation:
 ---------------------------------------------------------------------
 Center     Atomic      Atomic             Coordinates (Angstroms)
 Number     Number       Type             X           Y           Z
 ---------------------------------------------------------------------
      1          6           0        1.852885    0.076487   -0.074842
      2          6           0        0.619302   -0.347731    0.064988
      3          6           0       -0.600661    0.449989    0.108168
      4          6           0       -1.845080   -0.171284   -0.059900
      5          1           0        2.597824   -0.649046   -0.060707
      6          1           0        2.070171    1.103275   -0.064845
      7          1           0        0.486685   -1.365270    0.132167
      8          1           0       -0.525169    1.521338   -0.015813
      9          1           0       -2.088378   -1.203194   -0.099505
     10          1           0       -2.699800    0.548132   -0.121783
 ---------------------------------------------------------------------

 SCF Done:  E(RB2PLYPD3) =  -155.684178815     A.U. after   12 cycles
 E2(B2PLYPD3) =    -0.2264952384D+00 E(B2PLYPD3) =    -0.15591067405307D+03

 The electronic state is 1-A.
 Alpha  occ. eigenvalues --  -10.63607 -10.62912 -10.61246 -10.60017  -0.92836
 Alpha  occ. eigenvalues --   -0.84636  -0.70571  -0.64872  -0.55335  -0.53430
 Alpha  occ. eigenvalues --   -0.47472  -0.45266  -0.41457  -0.37673  -0.27300
 Alpha virt. eigenvalues --    0.01113   0.06927   0.07658   0.08085   0.09408
 Alpha virt. eigenvalues --    0.11694   0.12304   0.15071   0.15575   0.16242
 Alpha virt. eigenvalues --    0.18848   0.19809   0.21784   0.23107   0.24125

 Mulliken charges:
               1
     1  C   -0.183606
     2  C   -0.013320
     3  C   -0.059530
     4  C   -0.176757
     5  H    0.083759
     6  H    0.067348
     7  H    0.057622
     8  H    0.067979
     9  H    0.084581
    10  H    0.071923
 Sum of Mulliken charges =   0.00000

 Dipole moment (field-independent basis, Debye):
    X=             -0.0815    Y=             -0.0670    Z=             -0.0884  Tot=              0.1376
 Quadrupole moment (field-independent basis, Debye-Ang):
   XX=            -23.9229   YY=            -22.7413   ZZ=            -29.2801
   XY=              0.3231   XZ=              0.4149   YZ=             -0.1612

 1\1\GINC-NODE37\SP\RB2PLYPD3-FC\def2QZVP\C4H6\BOITTIER\26-Aug-2020\0\\
 #p B2PLYPD3/Def2QZVP\\butadiene\\0,1\C,0,-3.858691,0.194456,0.092313\C
 ,0,-2.721284,-0.44822,-0.028159\C,0,-1.37811,0.116147,-0.090638\C,0,-0
 .265081,-0.712415,0.1029\H,0,-4.72165,-0.385894,0.097503\H,0,-3.888378
 ,1.242712,0.048892\H,0,-2.77331,-1.474668,-0.062572\H,0,-1.260185,1.18
 7079,-0.000875\H,0,-0.210694,-1.769425,0.176199\H,0,0.704829,-0.156232
 ,0.146151\\Version=ES64L-G09RevD.01\State=1-A\HF=-155.6841788\MP2=-155
 .9106741\RMSD=4.414e-09\PG=C01 [X(C4H6)]\\@

 Normal termination of Gaussian 09 at Wed Aug 26 13:49:28 2020.
