 Gaussian 09, Revision D.01,
 Gaussian 09:  ES64L-G09RevD.01 24-Apr-2013

 --------------------
 #p B2PLYPD3/Def2QZVP
 --------------------

 ---------
 butadiene
 ---------
 Symbolic Z-matrix:
 Charge =  0 Multiplicity = 1

                         Standard orientation:
 ---------------------------------------------------------------------
 Center     Atomic      Atomic             Coordinates (Angstroms)
 Number     Number       Type             X           Y           Z
 ---------------------------------------------------------------------
      1          6           0        1.853205   -0.100272   -0.040704
      2          6           0        0.618628    0.374171    0.064279
      3          6           0       -0.613145   -0.405695    0.025931
      4          6           0       -1.844389    0.115168   -0.021405
      5          1           0        2.660248    0.575037   -0.055966
      6          1           0        2.042010   -1.155064   -0.004087
      7          1           0        0.408533    1.447041   -0.025438
      8          1           0       -0.524998   -1.471832    0.017419
      9          1           0       -1.975345    1.210837   -0.030209
     10          1           0       -2.696240   -0.506246   -0.070326
 ---------------------------------------------------------------------

 SCF Done:  E(RB2PLYPD3) =  -155.698050518     A.U. after   11 cycles
 E2(B2PLYPD3) =    -0.2254514514D+00 E(B2PLYPD3) =    -0.15592350196937D+03

 The electronic state is 1-A.
 Alpha  occ. eigenvalues --  -10.62503 -10.62281 -10.61510 -10.61102  -0.92984
 Alpha  occ. eigenvalues --   -0.85264  -0.70519  -0.63925  -0.54937  -0.54080
 Alpha  occ. eigenvalues --   -0.47016  -0.45876  -0.40864  -0.38080  -0.27861
 Alpha virt. eigenvalues --    0.01696   0.07057   0.07460   0.08165   0.09675
 Alpha virt. eigenvalues --    0.11720   0.12395   0.14777   0.15613   0.16247
 Alpha virt. eigenvalues --    0.18851   0.19990   0.21662   0.23145   0.23978

 Mulliken charges:
               1
     1  C   -0.177921
     2  C   -0.027823
     3  C   -0.027852
     4  C   -0.178574
     5  H    0.089626
     6  H    0.071193
     7  H    0.049336
     8  H    0.050327
     9  H    0.060886
    10  H    0.090803
 Sum of Mulliken charges =   0.00000

 Dipole moment (field-independent basis, Debye):
    X=             -0.0053    Y=             -0.0486    Z=             -0.0887  Tot=              0.1013
 Quadrupole moment (field-independent basis, Debye-Ang):
   XX=            -23.4409   YY=            -23.1491   ZZ=            -29.1944
   XY=             -0.0755   XZ=              0.0616   YZ=             -0.0986

 1\1\GINC-NODE06\SP\RB2PLYPD3-FC\def2QZVP\C4H6\BOITTIER\26-Aug-2020\0\\
 #p B2PLYPD3/Def2QZVP\\butadiene\\0,1\C,0,-3.856024,0.214021,-0.022941\
 C,0,-2.726541,-0.472466,0.092387\C,0,-1.374782,0.072484,0.04039\C,0,-0
 .257287,-0.661958,0.004313\H,0,-4.771309,-0.305437,-0.026107\H,0,-3.85
 2136,1.286073,-0.006724\H,0,-2.712862,-1.567135,0.023448\H,0,-1.269946
 ,1.136748,0.011374\H,0,-0.32536,-1.76329,0.016626\H,0,0.692237,-0.2047
 81,-0.055614\\Version=ES64L-G09RevD.01\State=1-A\HF=-155.6980505\MP2=-
 155.923502\RMSD=3.328e-09\PG=C01 [X(C4H6)]\\@

 Normal termination of Gaussian 09 at Wed Aug 26 10:24:33 2020.
