 Gaussian 09, Revision D.01,
 Gaussian 09:  ES64L-G09RevD.01 24-Apr-2013

 --------------------
 #p B2PLYPD3/Def2QZVP
 --------------------

 ---------
 butadiene
 ---------
 Symbolic Z-matrix:
 Charge =  0 Multiplicity = 1

                         Standard orientation:
 ---------------------------------------------------------------------
 Center     Atomic      Atomic             Coordinates (Angstroms)
 Number     Number       Type             X           Y           Z
 ---------------------------------------------------------------------
      1          6           0       -1.845207   -0.103559    0.018225
      2          6           0       -0.608838    0.389340   -0.019651
      3          6           0        0.613898   -0.411977   -0.023380
      4          6           0        1.848135    0.115687    0.001312
      5          1           0       -2.700679    0.543938    0.040146
      6          1           0       -2.037059   -1.167639    0.017080
      7          1           0       -0.464796    1.469666   -0.018081
      8          1           0        0.431651   -1.465184   -0.032728
      9          1           0        1.960142    1.206745    0.026467
     10          1           0        2.762813   -0.524470    0.108080
 ---------------------------------------------------------------------

 SCF Done:  E(RB2PLYPD3) =  -155.698962664     A.U. after   11 cycles
 E2(B2PLYPD3) =    -0.2260005754D+00 E(B2PLYPD3) =    -0.15592496323978D+03

 The electronic state is 1-A.
 Alpha  occ. eigenvalues --  -10.62618 -10.62520 -10.62320 -10.61386  -0.92865
 Alpha  occ. eigenvalues --   -0.84786  -0.69975  -0.64152  -0.54348  -0.53669
 Alpha  occ. eigenvalues --   -0.46908  -0.45583  -0.40883  -0.38018  -0.27752
 Alpha virt. eigenvalues --    0.01680   0.06949   0.07394   0.08067   0.09549
 Alpha virt. eigenvalues --    0.11690   0.12382   0.14628   0.15821   0.15995
 Alpha virt. eigenvalues --    0.18789   0.20460   0.21505   0.22851   0.23808

 Mulliken charges:
               1
     1  C   -0.179376
     2  C   -0.023191
     3  C   -0.036624
     4  C   -0.171459
     5  H    0.086910
     6  H    0.064120
     7  H    0.049684
     8  H    0.057845
     9  H    0.066199
    10  H    0.085891
 Sum of Mulliken charges =   0.00000

 Dipole moment (field-independent basis, Debye):
    X=             -0.0331    Y=             -0.0155    Z=              0.1004  Tot=              0.1069
 Quadrupole moment (field-independent basis, Debye-Ang):
   XX=            -23.5192   YY=            -23.1496   ZZ=            -29.3290
   XY=              0.1660   XZ=              0.2343   YZ=             -0.0126

 1\1\GINC-NODE39\SP\RB2PLYPD3-FC\def2QZVP\C4H6\BOITTIER\26-Aug-2020\0\\
 #p B2PLYPD3/Def2QZVP\\butadiene\\0,1\C,0,-3.849996,0.217059,0.001145\C
 ,0,-2.722142,-0.488806,0.053026\C,0,-1.375315,0.079432,0.033785\C,0,-0
 .25613,-0.661992,0.024117\H,0,-4.807995,-0.266461,-0.002215\H,0,-3.847
 51,1.297898,-0.028113\H,0,-2.77458,-1.577037,0.082326\H,0,-1.365292,1.
 148084,0.013037\H,0,-0.342133,-1.75568,0.03015\H,0,0.758124,-0.199951,
 -0.100953\\Version=ES64L-G09RevD.01\State=1-A\HF=-155.6989627\MP2=-155
 .9249632\RMSD=5.258e-09\PG=C01 [X(C4H6)]\\@

 Normal termination of Gaussian 09 at Wed Aug 26 18:36:23 2020.
