 Gaussian 09, Revision D.01,
 Gaussian 09:  ES64L-G09RevD.01 24-Apr-2013

 --------------------
 #p B2PLYPD3/Def2QZVP
 --------------------

 ---------
 butadiene
 ---------
 Symbolic Z-matrix:
 Charge =  0 Multiplicity = 1

                         Standard orientation:
 ---------------------------------------------------------------------
 Center     Atomic      Atomic             Coordinates (Angstroms)
 Number     Number       Type             X           Y           Z
 ---------------------------------------------------------------------
      1          6           0        1.848384    0.111658    0.003648
      2          6           0        0.603796   -0.402936   -0.021088
      3          6           0       -0.616130    0.401960   -0.032817
      4          6           0       -1.842754   -0.111368    0.014546
      5          1           0        2.681000   -0.550578    0.040324
      6          1           0        2.063743    1.181978    0.080823
      7          1           0        0.454713   -1.473220    0.025307
      8          1           0       -0.478358    1.475873   -0.017011
      9          1           0       -1.997451   -1.168657    0.012415
     10          1           0       -2.683423    0.538720    0.072410
 ---------------------------------------------------------------------

 SCF Done:  E(RB2PLYPD3) =  -155.700097534     A.U. after   11 cycles
 E2(B2PLYPD3) =    -0.2256247007D+00 E(B2PLYPD3) =    -0.15592572223464D+03

 The electronic state is 1-A.
 Alpha  occ. eigenvalues --  -10.62715 -10.62364 -10.61633 -10.61102  -0.92813
 Alpha  occ. eigenvalues --   -0.84943  -0.70334  -0.64121  -0.54629  -0.54025
 Alpha  occ. eigenvalues --   -0.46666  -0.46093  -0.41167  -0.37921  -0.27649
 Alpha virt. eigenvalues --    0.01692   0.07023   0.07427   0.08140   0.09526
 Alpha virt. eigenvalues --    0.11710   0.12374   0.14841   0.15872   0.16071
 Alpha virt. eigenvalues --    0.18813   0.20531   0.21595   0.22971   0.23871

 Mulliken charges:
               1
     1  C   -0.177072
     2  C   -0.038540
     3  C   -0.024836
     4  C   -0.179170
     5  H    0.084735
     6  H    0.068929
     7  H    0.055607
     8  H    0.054545
     9  H    0.068191
    10  H    0.087611
 Sum of Mulliken charges =   0.00000

 Dipole moment (field-independent basis, Debye):
    X=             -0.0169    Y=             -0.0003    Z=              0.1626  Tot=              0.1635
 Quadrupole moment (field-independent basis, Debye-Ang):
   XX=            -23.5844   YY=            -22.9859   ZZ=            -29.2640
   XY=              0.2205   XZ=              0.0679   YZ=              0.0626

 1\1\GINC-NODE08\SP\RB2PLYPD3-FC\def2QZVP\C4H6\BOITTIER\26-Aug-2020\0\\
 #p B2PLYPD3/Def2QZVP\\butadiene\\0,1\C,0,-3.850503,0.229261,0.008623\C
 ,0,-2.719567,-0.501093,0.053193\C,0,-1.374051,0.069589,0.042132\C,0,-0
 .260789,-0.65859,0.014554\H,0,-4.789367,-0.272119,-0.008841\H,0,-3.868
 786,1.317834,-0.103602\H,0,-2.766863,-1.58161,0.04174\H,0,-1.315178,1.
 149622,-0.00867\H,0,-0.300052,-1.725788,0.051196\H,0,0.683485,-0.17365
 3,-0.06206\\Version=ES64L-G09RevD.01\State=1-A\HF=-155.7000975\MP2=-15
 5.9257222\RMSD=4.607e-09\PG=C01 [X(C4H6)]\\@

 Normal termination of Gaussian 09 at Wed Aug 26 21:18:22 2020.
