 Gaussian 09, Revision D.01,
 Gaussian 09:  ES64L-G09RevD.01 24-Apr-2013

 --------------------
 #p B2PLYPD3/Def2QZVP
 --------------------

 ---------
 butadiene
 ---------
 Symbolic Z-matrix:
 Charge =  0 Multiplicity = 1

                         Standard orientation:
 ---------------------------------------------------------------------
 Center     Atomic      Atomic             Coordinates (Angstroms)
 Number     Number       Type             X           Y           Z
 ---------------------------------------------------------------------
      1          6           0        1.843670    0.100647    0.004515
      2          6           0        0.609012   -0.383351   -0.031874
      3          6           0       -0.605493    0.396476   -0.012187
      4          6           0       -1.835420   -0.114562    0.007897
      5          1           0        2.687141   -0.526798    0.078162
      6          1           0        1.989636    1.170868    0.028240
      7          1           0        0.463023   -1.467923    0.020368
      8          1           0       -0.487045    1.470411   -0.004189
      9          1           0       -2.027097   -1.169353    0.019423
     10          1           0       -2.696265    0.527534    0.047882
 ---------------------------------------------------------------------

 SCF Done:  E(RB2PLYPD3) =  -155.700886491     A.U. after   11 cycles
 E2(B2PLYPD3) =    -0.2252089772D+00 E(B2PLYPD3) =    -0.15592609546814D+03

 The electronic state is 1-A.
 Alpha  occ. eigenvalues --  -10.62354 -10.62286 -10.61324 -10.61070  -0.93222
 Alpha  occ. eigenvalues --   -0.85237  -0.70581  -0.64007  -0.55028  -0.54115
 Alpha  occ. eigenvalues --   -0.47088  -0.45643  -0.40998  -0.38309  -0.27781
 Alpha virt. eigenvalues --    0.01728   0.07033   0.07461   0.08102   0.09843
 Alpha virt. eigenvalues --    0.11706   0.12476   0.14837   0.15821   0.16195
 Alpha virt. eigenvalues --    0.18817   0.20497   0.21747   0.22823   0.23851

 Mulliken charges:
               1
     1  C   -0.177856
     2  C   -0.022414
     3  C   -0.029415
     4  C   -0.175592
     5  H    0.090983
     6  H    0.062755
     7  H    0.047831
     8  H    0.051929
     9  H    0.067262
    10  H    0.084516
 Sum of Mulliken charges =   0.00000

 Dipole moment (field-independent basis, Debye):
    X=             -0.0218    Y=             -0.0045    Z=              0.1450  Tot=              0.1467
 Quadrupole moment (field-independent basis, Debye-Ang):
   XX=            -23.3697   YY=            -23.1689   ZZ=            -29.1517
   XY=              0.1127   XZ=              0.1445   YZ=             -0.0515

 1\1\GINC-NODE07\SP\RB2PLYPD3-FC\def2QZVP\C4H6\BOITTIER\26-Aug-2020\0\\
 #p B2PLYPD3/Def2QZVP\\butadiene\\0,1\C,0,-3.846124,0.216324,0.008952\C
 ,0,-2.718977,-0.481371,0.061117\C,0,-1.38375,0.065794,0.024784\C,0,-0.
 266244,-0.659086,0.021175\H,0,-4.789094,-0.250344,-0.050905\H,0,-3.796
 658,1.294349,-0.04259\H,0,-2.771156,-1.575463,0.037086\H,0,-1.306518,1
 .142911,-0.011056\H,0,-0.268033,-1.731092,0.037208\H,0,0.696239,-0.184
 067,-0.032889\\Version=ES64L-G09RevD.01\State=1-A\HF=-155.7008865\MP2=
 -155.9260955\RMSD=4.116e-09\PG=C01 [X(C4H6)]\\@

 Normal termination of Gaussian 09 at Wed Aug 26 20:26:24 2020.
