 Gaussian 09, Revision D.01,
 Gaussian 09:  ES64L-G09RevD.01 24-Apr-2013

 --------------------
 #p B2PLYPD3/Def2QZVP
 --------------------

 ---------
 butadiene
 ---------
 Symbolic Z-matrix:
 Charge =  0 Multiplicity = 1

                         Standard orientation:
 ---------------------------------------------------------------------
 Center     Atomic      Atomic             Coordinates (Angstroms)
 Number     Number       Type             X           Y           Z
 ---------------------------------------------------------------------
      1          6           0       -1.855595   -0.116817    0.037048
      2          6           0       -0.630326    0.404575   -0.096629
      3          6           0        0.620350   -0.359358   -0.035325
      4          6           0        1.856925    0.078544    0.040919
      5          1           0       -2.815715    0.434439    0.082406
      6          1           0       -1.901991   -1.214596    0.306115
      7          1           0       -0.622355    1.488738   -0.126180
      8          1           0        0.456248   -1.429450   -0.204012
      9          1           0        2.179044    1.192125    0.312918
     10          1           0        2.756646   -0.512916   -0.047318
 ---------------------------------------------------------------------

 SCF Done:  E(RB2PLYPD3) =  -155.682723598     A.U. after   11 cycles
 E2(B2PLYPD3) =    -0.2267706441D+00 E(B2PLYPD3) =    -0.15590949424227D+03

 The electronic state is 1-A.
 Alpha  occ. eigenvalues --  -10.62999 -10.62887 -10.62585 -10.62520  -0.92807
 Alpha  occ. eigenvalues --   -0.85073  -0.69689  -0.63302  -0.55209  -0.52670
 Alpha  occ. eigenvalues --   -0.47935  -0.43500  -0.39826  -0.37975  -0.28191
 Alpha virt. eigenvalues --    0.01482   0.06975   0.07233   0.07852   0.09539
 Alpha virt. eigenvalues --    0.11224   0.12273   0.14372   0.15639   0.16586
 Alpha virt. eigenvalues --    0.19163   0.19940   0.21084   0.22018   0.22686

 Mulliken charges:
               1
     1  C   -0.158567
     2  C   -0.035145
     3  C   -0.041416
     4  C   -0.160575
     5  H    0.089052
     6  H    0.048604
     7  H    0.058937
     8  H    0.061594
     9  H    0.051636
    10  H    0.085880
 Sum of Mulliken charges =   0.00000

 Dipole moment (field-independent basis, Debye):
    X=             -0.0024    Y=              0.0239    Z=              0.1879  Tot=              0.1894
 Quadrupole moment (field-independent basis, Debye-Ang):
   XX=            -22.8224   YY=            -23.8708   ZZ=            -29.1900
   XY=             -0.2469   XZ=             -0.3692   YZ=              0.1859

 1\1\GINC-NODE15\SP\RB2PLYPD3-FC\def2QZVP\C4H6\BOITTIER\26-Aug-2020\0\\
 #p B2PLYPD3/Def2QZVP\\butadiene\\0,1\C,0,-3.85789,0.222775,-0.025528\C
 ,0,-2.74219,-0.501147,0.12331\C,0,-1.377528,0.031548,0.049313\C,0,-0.2
 36287,-0.616769,-0.013501\H,0,-4.899444,-0.153544,-0.061886\H,0,-3.712
 381,1.30565,-0.318574\H,0,-2.923331,-1.569186,0.176481\H,0,-1.352439,1
 .117308,0.194148\H,0,-0.113434,-1.775156,-0.260182\H,0,0.752832,-0.189
 401,0.06466\\Version=ES64L-G09RevD.01\State=1-A\HF=-155.6827236\MP2=-1
 55.9094942\RMSD=7.294e-09\PG=C01 [X(C4H6)]\\@

 Normal termination of Gaussian 09 at Wed Aug 26 14:35:46 2020.
