 Gaussian 09, Revision D.01,
 Gaussian 09:  ES64L-G09RevD.01 24-Apr-2013

 --------------------
 #p B2PLYPD3/Def2QZVP
 --------------------

 ---------
 butadiene
 ---------
 Symbolic Z-matrix:
 Charge =  0 Multiplicity = 1

                         Standard orientation:
 ---------------------------------------------------------------------
 Center     Atomic      Atomic             Coordinates (Angstroms)
 Number     Number       Type             X           Y           Z
 ---------------------------------------------------------------------
      1          6           0        1.834890   -0.127811    0.028604
      2          6           0        0.620170    0.413329   -0.067721
      3          6           0       -0.596898   -0.381441   -0.033308
      4          6           0       -1.845557    0.094324    0.018958
      5          1           0        2.653907    0.511670    0.114611
      6          1           0        2.067458   -1.170643    0.068148
      7          1           0        0.501116    1.516564    0.003393
      8          1           0       -0.505111   -1.455394   -0.049151
      9          1           0       -2.058078    1.146373    0.086891
     10          1           0       -2.734920   -0.538976    0.096910
 ---------------------------------------------------------------------

 SCF Done:  E(RB2PLYPD3) =  -155.697240042     A.U. after   11 cycles
 E2(B2PLYPD3) =    -0.2256157671D+00 E(B2PLYPD3) =    -0.15592285580871D+03

 The electronic state is 1-A.
 Alpha  occ. eigenvalues --  -10.62962 -10.62411 -10.61440 -10.61074  -0.92903
 Alpha  occ. eigenvalues --   -0.85063  -0.70510  -0.64018  -0.54761  -0.54189
 Alpha  occ. eigenvalues --   -0.46742  -0.45519  -0.40984  -0.38123  -0.27694
 Alpha virt. eigenvalues --    0.01678   0.07014   0.07462   0.08024   0.09586
 Alpha virt. eigenvalues --    0.11578   0.12497   0.14856   0.15761   0.16400
 Alpha virt. eigenvalues --    0.18914   0.20236   0.22074   0.22772   0.23536

 Mulliken charges:
               1
     1  C   -0.169621
     2  C   -0.036249
     3  C   -0.029469
     4  C   -0.172359
     5  H    0.081939
     6  H    0.072144
     7  H    0.056529
     8  H    0.056750
     9  H    0.059767
    10  H    0.080568
 Sum of Mulliken charges =   0.00000

 Dipole moment (field-independent basis, Debye):
    X=              0.0904    Y=             -0.0173    Z=              0.2248  Tot=              0.2429
 Quadrupole moment (field-independent basis, Debye-Ang):
   XX=            -23.3151   YY=            -23.1134   ZZ=            -29.2052
   XY=             -0.2800   XZ=              0.0643   YZ=              0.1114

 1\1\GINC-NODE04\SP\RB2PLYPD3-FC\def2QZVP\C4H6\BOITTIER\26-Aug-2020\0\\
 #p B2PLYPD3/Def2QZVP\\butadiene\\0,1\C,0,-3.832177,0.241795,0.051512\C
 ,0,-2.735216,-0.512331,-0.0235\C,0,-1.394778,0.050917,-0.014874\C,0,-0
 .251984,-0.639865,0.056373\H,0,-4.752562,-0.236293,0.158487\H,0,-3.872
 965,1.310196,0.053903\H,0,-2.816458,-1.615795,0.086618\H,0,-1.291737,1
 .122616,-0.068675\H,0,-0.232085,-1.709959,0.16168\H,0,0.737231,-0.1747
 93,0.1136\\Version=ES64L-G09RevD.01\State=1-A\HF=-155.69724\MP2=-155.9
 228558\RMSD=6.161e-09\PG=C01 [X(C4H6)]\\@

 Normal termination of Gaussian 09 at Wed Aug 26 08:42:18 2020.
