 Gaussian 09, Revision D.01,
 Gaussian 09:  ES64L-G09RevD.01 24-Apr-2013

 --------------------
 #p B2PLYPD3/Def2QZVP
 --------------------

 ---------
 butadiene
 ---------
 Symbolic Z-matrix:
 Charge =  0 Multiplicity = 1

                         Standard orientation:
 ---------------------------------------------------------------------
 Center     Atomic      Atomic             Coordinates (Angstroms)
 Number     Number       Type             X           Y           Z
 ---------------------------------------------------------------------
      1          6           0        1.869841    0.085245   -0.050468
      2          6           0        0.609526   -0.317698    0.098641
      3          6           0       -0.612101    0.406444    0.016515
      4          6           0       -1.850832   -0.141069   -0.078215
      5          1           0        2.555253   -0.701324   -0.090376
      6          1           0        2.100589    1.096597   -0.221107
      7          1           0        0.492352   -1.408055    0.172505
      8          1           0       -0.451715    1.547523    0.289724
      9          1           0       -1.964727   -1.224650   -0.067123
     10          1           0       -2.830360    0.492379   -0.002467
 ---------------------------------------------------------------------

 SCF Done:  E(RB2PLYPD3) =  -155.678229323     A.U. after   11 cycles
 E2(B2PLYPD3) =    -0.2275629793D+00 E(B2PLYPD3) =    -0.15590579230225D+03

 The electronic state is 1-A.
 Alpha  occ. eigenvalues --  -10.63864 -10.63289 -10.62214 -10.60876  -0.93145
 Alpha  occ. eigenvalues --   -0.84924  -0.70718  -0.62801  -0.54870  -0.53157
 Alpha  occ. eigenvalues --   -0.47040  -0.45318  -0.40639  -0.37385  -0.27684
 Alpha virt. eigenvalues --    0.00894   0.06933   0.07072   0.07753   0.09745
 Alpha virt. eigenvalues --    0.11493   0.12230   0.14814   0.15211   0.16161
 Alpha virt. eigenvalues --    0.18794   0.19628   0.21413   0.21735   0.24221

 Mulliken charges:
               1
     1  C   -0.180718
     2  C   -0.009650
     3  C   -0.035527
     4  C   -0.175953
     5  H    0.091520
     6  H    0.073921
     7  H    0.033385
     8  H    0.048106
     9  H    0.070605
    10  H    0.084311
 Sum of Mulliken charges =   0.00000

 Dipole moment (field-independent basis, Debye):
    X=             -0.0202    Y=             -0.1051    Z=              0.0987  Tot=              0.1455
 Quadrupole moment (field-independent basis, Debye-Ang):
   XX=            -23.6418   YY=            -23.4087   ZZ=            -29.2888
   XY=              0.1539   XZ=             -0.7357   YZ=              0.1047

 1\1\GINC-NODE17\SP\RB2PLYPD3-FC\def2QZVP\C4H6\BOITTIER\26-Aug-2020\0\\
 #p B2PLYPD3/Def2QZVP\\butadiene\\0,1\C,0,-3.875176,0.201539,0.074416\C
 ,0,-2.708705,-0.427236,-0.055884\C,0,-1.376825,0.071067,-0.019985\C,0,
 -0.253909,-0.682253,0.101539\H,0,-4.688832,-0.446821,0.161979\H,0,-3.9
 20155,1.245756,0.187475\H,0,-2.788181,-1.523418,-0.067372\H,0,-1.33565
 6,1.205372,-0.357752\H,0,-0.33454,-1.767684,0.152341\H,0,0.821449,-0.2
 38735,-0.014076\\Version=ES64L-G09RevD.01\State=1-A\HF=-155.6782293\MP
 2=-155.9057923\RMSD=7.063e-09\PG=C01 [X(C4H6)]\\@

 Normal termination of Gaussian 09 at Wed Aug 26 14:36:26 2020.
