 Gaussian 09, Revision D.01,
 Gaussian 09:  ES64L-G09RevD.01 24-Apr-2013

 --------------------
 #p B2PLYPD3/Def2QZVP
 --------------------

 ---------
 butadiene
 ---------
 Symbolic Z-matrix:
 Charge =  0 Multiplicity = 1

                         Standard orientation:
 ---------------------------------------------------------------------
 Center     Atomic      Atomic             Coordinates (Angstroms)
 Number     Number       Type             X           Y           Z
 ---------------------------------------------------------------------
      1          6           0       -1.840142   -0.118907   -0.002434
      2          6           0       -0.613398    0.402332    0.009632
      3          6           0        0.615441   -0.394916   -0.001524
      4          6           0        1.849542    0.110276   -0.014721
      5          1           0       -2.731469    0.505613   -0.012083
      6          1           0       -2.017047   -1.178721   -0.054100
      7          1           0       -0.523849    1.492257    0.067871
      8          1           0        0.489702   -1.462908    0.052673
      9          1           0        1.980027    1.161721   -0.060266
     10          1           0        2.733985   -0.510673    0.060181
 ---------------------------------------------------------------------

 SCF Done:  E(RB2PLYPD3) =  -155.700758554     A.U. after   11 cycles
 E2(B2PLYPD3) =    -0.2254531312D+00 E(B2PLYPD3) =    -0.15592621168499D+03

 The electronic state is 1-A.
 Alpha  occ. eigenvalues --  -10.62739 -10.62499 -10.61495 -10.61259  -0.92836
 Alpha  occ. eigenvalues --   -0.85082  -0.70079  -0.64182  -0.54575  -0.54122
 Alpha  occ. eigenvalues --   -0.46791  -0.45628  -0.41096  -0.37989  -0.27823
 Alpha virt. eigenvalues --    0.01812   0.07008   0.07510   0.08014   0.09584
 Alpha virt. eigenvalues --    0.11659   0.12501   0.14661   0.15876   0.16203
 Alpha virt. eigenvalues --    0.18864   0.20404   0.21680   0.22825   0.23802

 Mulliken charges:
               1
     1  C   -0.172763
     2  C   -0.033467
     3  C   -0.031703
     4  C   -0.175962
     5  H    0.083042
     6  H    0.065456
     7  H    0.054326
     8  H    0.056765
     9  H    0.066774
    10  H    0.087531
 Sum of Mulliken charges =   0.00000

 Dipole moment (field-independent basis, Debye):
    X=             -0.0211    Y=             -0.0073    Z=              0.0501  Tot=              0.0549
 Quadrupole moment (field-independent basis, Debye-Ang):
   XX=            -23.3270   YY=            -23.1505   ZZ=            -29.2403
   XY=              0.0797   XZ=              0.2189   YZ=             -0.0395

 1\1\GINC-NODE32\SP\RB2PLYPD3-FC\def2QZVP\C4H6\BOITTIER\26-Aug-2020\0\\
 #p B2PLYPD3/Def2QZVP\\butadiene\\0,1\C,0,-3.844025,0.225243,0.021909\C
 ,0,-2.727945,-0.503514,0.025934\C,0,-1.378168,0.065437,0.012889\C,0,-0
 .251896,-0.648063,0.041676\H,0,-4.8311,-0.232409,0.050517\H,0,-3.83181
 4,1.30072,0.041149\H,0,-2.831474,-1.593472,0.001033\H,0,-1.314706,1.13
 6786,-0.073928\H,0,-0.307825,-1.704224,0.11934\H,0,0.727434,-0.194679,
 -0.052046\\Version=ES64L-G09RevD.01\State=1-A\HF=-155.7007586\MP2=-155
 .9262117\RMSD=2.431e-09\PG=C01 [X(C4H6)]\\@

 Normal termination of Gaussian 09 at Wed Aug 26 11:01:58 2020.
