 Gaussian 09, Revision D.01,
 Gaussian 09:  ES64L-G09RevD.01 24-Apr-2013

 --------------------
 #p B2PLYPD3/Def2QZVP
 --------------------

 ---------
 butadiene
 ---------
 Symbolic Z-matrix:
 Charge =  0 Multiplicity = 1

                         Standard orientation:
 ---------------------------------------------------------------------
 Center     Atomic      Atomic             Coordinates (Angstroms)
 Number     Number       Type             X           Y           Z
 ---------------------------------------------------------------------
      1          6           0        1.832570   -0.118866    0.015286
      2          6           0        0.608311    0.416849   -0.028117
      3          6           0       -0.600565   -0.401947   -0.029207
      4          6           0       -1.832909    0.102429    0.031797
      5          1           0        2.689310    0.501283    0.055360
      6          1           0        1.973696   -1.181316    0.033863
      7          1           0        0.470505    1.482727   -0.037500
      8          1           0       -0.476184   -1.479246   -0.008095
      9          1           0       -1.961370    1.186520    0.033219
     10          1           0       -2.740396   -0.500754   -0.015402
 ---------------------------------------------------------------------

 SCF Done:  E(RB2PLYPD3) =  -155.700557847     A.U. after   11 cycles
 E2(B2PLYPD3) =    -0.2255706748D+00 E(B2PLYPD3) =    -0.15592612852216D+03

 The electronic state is 1-A.
 Alpha  occ. eigenvalues --  -10.62525 -10.62434 -10.61552 -10.61175  -0.92988
 Alpha  occ. eigenvalues --   -0.84939  -0.70026  -0.64310  -0.54666  -0.54007
 Alpha  occ. eigenvalues --   -0.46739  -0.45605  -0.41318  -0.38058  -0.27683
 Alpha virt. eigenvalues --    0.01853   0.07045   0.07419   0.08121   0.09463
 Alpha virt. eigenvalues --    0.11714   0.12541   0.14639   0.15824   0.16251
 Alpha virt. eigenvalues --    0.18766   0.20274   0.21745   0.23100   0.23872

 Mulliken charges:
               1
     1  C   -0.176581
     2  C   -0.034747
     3  C   -0.028005
     4  C   -0.173363
     5  H    0.086648
     6  H    0.068914
     7  H    0.057875
     8  H    0.054967
     9  H    0.058611
    10  H    0.085681
 Sum of Mulliken charges =   0.00000

 Dipole moment (field-independent basis, Debye):
    X=              0.0323    Y=              0.0006    Z=              0.0151  Tot=              0.0356
 Quadrupole moment (field-independent basis, Debye-Ang):
   XX=            -23.5188   YY=            -23.0572   ZZ=            -29.2524
   XY=             -0.0756   XZ=              0.2146   YZ=              0.0017

 1\1\GINC-NODE30\SP\RB2PLYPD3-FC\def2QZVP\C4H6\BOITTIER\26-Aug-2020\0\\
 #p B2PLYPD3/Def2QZVP\\butadiene\\0,1\C,0,-3.832535,0.231178,0.03752\C,
 0,-2.72461,-0.516734,0.008985\C,0,-1.38836,0.071231,-0.014295\C,0,-0.2
 66358,-0.644505,0.060682\H,0,-4.786519,-0.223658,0.094395\H,0,-3.78047
 1,1.301804,0.027013\H,0,-2.780512,-1.589887,0.028775\H,0,-1.317145,1.1
 53519,-0.022671\H,0,-0.334672,-1.733598,0.09177\H,0,0.734466,-0.215662
 ,-0.002843\\Version=ES64L-G09RevD.01\State=1-A\HF=-155.7005578\MP2=-15
 5.9261285\RMSD=5.821e-09\PG=C01 [X(C4H6)]\\@

 Normal termination of Gaussian 09 at Wed Aug 26 21:33:08 2020.
