 Gaussian 09, Revision D.01,
 Gaussian 09:  ES64L-G09RevD.01 24-Apr-2013

 --------------------
 #p B2PLYPD3/Def2QZVP
 --------------------

 ---------
 butadiene
 ---------
 Symbolic Z-matrix:
 Charge =  0 Multiplicity = 1

                         Standard orientation:
 ---------------------------------------------------------------------
 Center     Atomic      Atomic             Coordinates (Angstroms)
 Number     Number       Type             X           Y           Z
 ---------------------------------------------------------------------
      1          6           0        1.841927    0.108699    0.009480
      2          6           0        0.605888   -0.387769   -0.015278
      3          6           0       -0.612406    0.402902    0.002824
      4          6           0       -1.835147   -0.113912   -0.002445
      5          1           0        2.675125   -0.550463   -0.010966
      6          1           0        2.059990    1.149260    0.054763
      7          1           0        0.487486   -1.473025   -0.045900
      8          1           0       -0.514928    1.507815   -0.045090
      9          1           0       -2.003701   -1.198403    0.093384
     10          1           0       -2.705548    0.505296   -0.013681
 ---------------------------------------------------------------------

 SCF Done:  E(RB2PLYPD3) =  -155.700172214     A.U. after   11 cycles
 E2(B2PLYPD3) =    -0.2254206265D+00 E(B2PLYPD3) =    -0.15592559284090D+03

 The electronic state is 1-A.
 Alpha  occ. eigenvalues --  -10.62656 -10.62529 -10.61449 -10.61032  -0.92985
 Alpha  occ. eigenvalues --   -0.85179  -0.70319  -0.63707  -0.54772  -0.54133
 Alpha  occ. eigenvalues --   -0.46716  -0.45541  -0.40971  -0.38195  -0.27805
 Alpha virt. eigenvalues --    0.01816   0.07039   0.07389   0.08015   0.09702
 Alpha virt. eigenvalues --    0.11640   0.12415   0.14818   0.15870   0.16207
 Alpha virt. eigenvalues --    0.18798   0.20462   0.21738   0.22655   0.23821

 Mulliken charges:
               1
     1  C   -0.176344
     2  C   -0.029244
     3  C   -0.029861
     4  C   -0.172181
     5  H    0.084542
     6  H    0.069147
     7  H    0.053431
     8  H    0.051483
     9  H    0.062884
    10  H    0.086143
 Sum of Mulliken charges =   0.00000

 Dipole moment (field-independent basis, Debye):
    X=             -0.0051    Y=              0.0145    Z=              0.0295  Tot=              0.0333
 Quadrupole moment (field-independent basis, Debye-Ang):
   XX=            -23.3971   YY=            -23.0922   ZZ=            -29.2156
   XY=              0.1314   XZ=             -0.0507   YZ=             -0.0575

 1\1\GINC-NODE31\SP\RB2PLYPD3-FC\def2QZVP\C4H6\BOITTIER\26-Aug-2020\0\\
 #p B2PLYPD3/Def2QZVP\\butadiene\\0,1\C,0,-3.845042,0.22068,0.010204\C,
 0,-2.717864,-0.48846,0.048599\C,0,-1.3777,0.07046,0.012562\C,0,-0.2673
 12,-0.656782,0.031958\H,0,-4.782775,-0.277838,0.045817\H,0,-3.873314,1
 .282058,-0.060842\H,0,-2.795694,-1.576297,0.105966\H,0,-1.27551,1.1757
 92,0.033251\H,0,-0.296072,-1.75593,-0.037047\H,0,0.699967,-0.203454,0.
 029041\\Version=ES64L-G09RevD.01\State=1-A\HF=-155.7001722\MP2=-155.92
 55928\RMSD=4.598e-09\PG=C01 [X(C4H6)]\\@

 Normal termination of Gaussian 09 at Wed Aug 26 16:20:50 2020.
