 Gaussian 09, Revision D.01,
 Gaussian 09:  ES64L-G09RevD.01 24-Apr-2013

 --------------------
 #p B2PLYPD3/Def2QZVP
 --------------------

 ---------
 butadiene
 ---------
 Symbolic Z-matrix:
 Charge =  0 Multiplicity = 1

                         Standard orientation:
 ---------------------------------------------------------------------
 Center     Atomic      Atomic             Coordinates (Angstroms)
 Number     Number       Type             X           Y           Z
 ---------------------------------------------------------------------
      1          6           0        1.842156   -0.101677    0.024044
      2          6           0        0.603746    0.397628   -0.017136
      3          6           0       -0.598103   -0.414016   -0.013199
      4          6           0       -1.840918    0.109472    0.008991
      5          1           0        2.702222    0.536624    0.027082
      6          1           0        1.998858   -1.167080   -0.043758
      7          1           0        0.402234    1.472421   -0.013392
      8          1           0       -0.465420   -1.485934   -0.031710
      9          1           0       -1.967703    1.198857   -0.031257
     10          1           0       -2.711475   -0.503328    0.076835
 ---------------------------------------------------------------------

 SCF Done:  E(RB2PLYPD3) =  -155.699954368     A.U. after   11 cycles
 E2(B2PLYPD3) =    -0.2260504852D+00 E(B2PLYPD3) =    -0.15592600485290D+03

 The electronic state is 1-A.
 Alpha  occ. eigenvalues --  -10.62622 -10.62557 -10.61731 -10.61420  -0.92971
 Alpha  occ. eigenvalues --   -0.84730  -0.70337  -0.64076  -0.54772  -0.53716
 Alpha  occ. eigenvalues --   -0.46757  -0.45742  -0.41332  -0.38023  -0.27510
 Alpha virt. eigenvalues --    0.01554   0.07042   0.07344   0.08155   0.09493
 Alpha virt. eigenvalues --    0.11711   0.12479   0.14700   0.15846   0.16107
 Alpha virt. eigenvalues --    0.18744   0.20427   0.21573   0.23175   0.23759

 Mulliken charges:
               1
     1  C   -0.177653
     2  C   -0.026454
     3  C   -0.028227
     4  C   -0.180543
     5  H    0.087998
     6  H    0.067259
     7  H    0.051245
     8  H    0.053619
     9  H    0.062722
    10  H    0.090032
 Sum of Mulliken charges =   0.00000

 Dipole moment (field-independent basis, Debye):
    X=             -0.0100    Y=             -0.0220    Z=             -0.0383  Tot=              0.0453
 Quadrupole moment (field-independent basis, Debye-Ang):
   XX=            -23.5165   YY=            -23.1170   ZZ=            -29.3075
   XY=             -0.1458   XZ=             -0.1802   YZ=              0.0090

 1\1\GINC-NODE27\SP\RB2PLYPD3-FC\def2QZVP\C4H6\BOITTIER\26-Aug-2020\0\\
 #p B2PLYPD3/Def2QZVP\\butadiene\\0,1\C,0,-3.843883,0.221975,0.039332\C
 ,0,-2.717929,-0.496652,0.017769\C,0,-1.387788,0.080967,0.000345\C,0,-0
 .261773,-0.66025,0.042889\H,0,-4.806265,-0.24767,0.059443\H,0,-3.80304
 3,1.295414,-0.062136\H,0,-2.716596,-1.589521,0.055649\H,0,-1.322019,1.
 157949,-0.05198\H,0,-0.336685,-1.755151,0.037009\H,0,0.706431,-0.21537
 ,0.094453\\Version=ES64L-G09RevD.01\State=1-A\HF=-155.6999544\MP2=-155
 .9260049\RMSD=4.269e-09\PG=C01 [X(C4H6)]\\@

 Normal termination of Gaussian 09 at Wed Aug 26 10:22:05 2020.
