 Gaussian 09, Revision D.01,
 Gaussian 09:  ES64L-G09RevD.01 24-Apr-2013

 --------------------
 #p B2PLYPD3/Def2QZVP
 --------------------

 ---------
 butadiene
 ---------
 Symbolic Z-matrix:
 Charge =  0 Multiplicity = 1

                         Standard orientation:
 ---------------------------------------------------------------------
 Center     Atomic      Atomic             Coordinates (Angstroms)
 Number     Number       Type             X           Y           Z
 ---------------------------------------------------------------------
      1          6           0        1.839249   -0.109662    0.007607
      2          6           0        0.608081    0.412424   -0.033022
      3          6           0       -0.608971   -0.396873   -0.020234
      4          6           0       -1.847556    0.102038    0.020700
      5          1           0        2.760071    0.474914    0.093805
      6          1           0        1.994721   -1.195612    0.052689
      7          1           0        0.481558    1.497077   -0.005027
      8          1           0       -0.440577   -1.448866   -0.064648
      9          1           0       -2.032734    1.175403   -0.000995
     10          1           0       -2.707859   -0.550473    0.073866
 ---------------------------------------------------------------------

 SCF Done:  E(RB2PLYPD3) =  -155.699966989     A.U. after   11 cycles
 E2(B2PLYPD3) =    -0.2258953648D+00 E(B2PLYPD3) =    -0.15592586235427D+03

 The electronic state is 1-A.
 Alpha  occ. eigenvalues --  -10.62772 -10.62464 -10.61906 -10.61641  -0.92849
 Alpha  occ. eigenvalues --   -0.84771  -0.70042  -0.64182  -0.54662  -0.53571
 Alpha  occ. eigenvalues --   -0.46980  -0.45376  -0.40972  -0.38011  -0.27723
 Alpha virt. eigenvalues --    0.01708   0.06990   0.07392   0.08097   0.09478
 Alpha virt. eigenvalues --    0.11630   0.12470   0.14578   0.15790   0.16225
 Alpha virt. eigenvalues --    0.18854   0.20460   0.21675   0.22931   0.23537

 Mulliken charges:
               1
     1  C   -0.169503
     2  C   -0.030902
     3  C   -0.033732
     4  C   -0.176161
     5  H    0.083659
     6  H    0.058372
     7  H    0.055061
     8  H    0.059295
     9  H    0.067644
    10  H    0.086267
 Sum of Mulliken charges =   0.00000

 Dipole moment (field-independent basis, Debye):
    X=              0.0145    Y=             -0.0107    Z=              0.1000  Tot=              0.1016
 Quadrupole moment (field-independent basis, Debye-Ang):
   XX=            -23.3658   YY=            -23.1848   ZZ=            -29.3064
   XY=             -0.2147   XZ=              0.2191   YZ=              0.0170

 1\1\GINC-NODE33\SP\RB2PLYPD3-FC\def2QZVP\C4H6\BOITTIER\26-Aug-2020\0\\
 #p B2PLYPD3/Def2QZVP\\butadiene\\0,1\C,0,-3.842052,0.22665,0.031629\C,
 0,-2.725829,-0.510524,0.00674\C,0,-1.38244,0.065254,-0.004541\C,0,-0.2
 54298,-0.648081,0.051405\H,0,-4.852935,-0.178897,0.135166\H,0,-3.79833
 8,1.323655,0.044226\H,0,-2.797392,-1.598869,0.067146\H,0,-1.358051,1.1
 28584,-0.080386\H,0,-0.266397,-1.737402,0.061811\H,0,0.710089,-0.16070
 4,0.085134\\Version=ES64L-G09RevD.01\State=1-A\HF=-155.699967\MP2=-155
 .9258624\RMSD=3.260e-09\PG=C01 [X(C4H6)]\\@

 Normal termination of Gaussian 09 at Wed Aug 26 18:59:32 2020.
