 Gaussian 09, Revision D.01,
 Gaussian 09:  ES64L-G09RevD.01 24-Apr-2013

 --------------------
 #p B2PLYPD3/Def2QZVP
 --------------------

 ---------
 butadiene
 ---------
 Symbolic Z-matrix:
 Charge =  0 Multiplicity = 1

                         Standard orientation:
 ---------------------------------------------------------------------
 Center     Atomic      Atomic             Coordinates (Angstroms)
 Number     Number       Type             X           Y           Z
 ---------------------------------------------------------------------
      1          6           0        1.823742   -0.129837   -0.086821
      2          6           0        0.593916    0.415650    0.027412
      3          6           0       -0.593538   -0.358466    0.068069
      4          6           0       -1.843869    0.069781   -0.044578
      5          1           0        2.711239    0.557227    0.099323
      6          1           0        2.046061   -1.170753   -0.200352
      7          1           0        0.551317    1.488262    0.284129
      8          1           0       -0.293696   -1.400843    0.329279
      9          1           0       -2.192086    1.087501   -0.235328
     10          1           0       -2.704347   -0.544165   -0.061543
 ---------------------------------------------------------------------

 SCF Done:  E(RB2PLYPD3) =  -155.684549412     A.U. after   12 cycles
 E2(B2PLYPD3) =    -0.2267752392D+00 E(B2PLYPD3) =    -0.15591132465108D+03

 The electronic state is 1-A.
 Alpha  occ. eigenvalues --  -10.62736 -10.62596 -10.62210 -10.61507  -0.93392
 Alpha  occ. eigenvalues --   -0.84643  -0.71070  -0.63594  -0.55340  -0.53387
 Alpha  occ. eigenvalues --   -0.47127  -0.45096  -0.40741  -0.37153  -0.27734
 Alpha virt. eigenvalues --    0.01159   0.07125   0.07334   0.07656   0.09680
 Alpha virt. eigenvalues --    0.11318   0.12509   0.15032   0.15454   0.16112
 Alpha virt. eigenvalues --    0.19126   0.19464   0.21832   0.22025   0.22875

 Mulliken charges:
               1
     1  C   -0.182308
     2  C   -0.024028
     3  C   -0.036356
     4  C   -0.167478
     5  H    0.073057
     6  H    0.071741
     7  H    0.064301
     8  H    0.056427
     9  H    0.063566
    10  H    0.081079
 Sum of Mulliken charges =   0.00000

 Dipole moment (field-independent basis, Debye):
    X=             -0.0497    Y=             -0.0121    Z=              0.2273  Tot=              0.2330
 Quadrupole moment (field-independent basis, Debye-Ang):
   XX=            -23.1898   YY=            -23.6512   ZZ=            -29.0331
   XY=             -0.7263   XZ=              0.6867   YZ=              0.1097

 1\1\GINC-NODE25\SP\RB2PLYPD3-FC\def2QZVP\C4H6\BOITTIER\26-Aug-2020\0\\
 #p B2PLYPD3/Def2QZVP\\butadiene\\0,1\C,0,-3.821435,0.253892,-0.053246\
 C,0,-2.715514,-0.509287,0.079317\C,0,-1.402722,0.026934,0.08025\C,0,-0
 .257431,-0.634767,-0.019119\H,0,-4.820324,-0.244098,0.167168\H,0,-3.84
 4443,1.312288,-0.211645\H,0,-2.873116,-1.558648,0.382989\H,0,-1.496743
 ,1.117381,0.296514\H,0,-0.110343,-1.707192,-0.166305\H,0,0.703289,-0.1
 96192,-0.067166\\Version=ES64L-G09RevD.01\State=1-A\HF=-155.6845494\MP
 2=-155.9113247\RMSD=3.450e-09\PG=C01 [X(C4H6)]\\@

 Normal termination of Gaussian 09 at Wed Aug 26 15:54:29 2020.
