 Gaussian 09, Revision D.01,
 Gaussian 09:  ES64L-G09RevD.01 24-Apr-2013

 --------------------
 #p B2PLYPD3/Def2QZVP
 --------------------

 ---------
 butadiene
 ---------
 Symbolic Z-matrix:
 Charge =  0 Multiplicity = 1

                         Standard orientation:
 ---------------------------------------------------------------------
 Center     Atomic      Atomic             Coordinates (Angstroms)
 Number     Number       Type             X           Y           Z
 ---------------------------------------------------------------------
      1          6           0       -1.837881   -0.117974    0.023081
      2          6           0       -0.631165    0.415467   -0.036432
      3          6           0        0.607103   -0.389591   -0.050031
      4          6           0        1.858422    0.104327    0.010547
      5          1           0       -2.750536    0.488096    0.048329
      6          1           0       -1.892574   -1.229755    0.106374
      7          1           0       -0.502916    1.468071    0.014858
      8          1           0        0.438344   -1.418534   -0.070669
      9          1           0        2.035461    1.159770    0.051022
     10          1           0        2.693344   -0.541024    0.167098
 ---------------------------------------------------------------------

 SCF Done:  E(RB2PLYPD3) =  -155.696320873     A.U. after   11 cycles
 E2(B2PLYPD3) =    -0.2255151564D+00 E(B2PLYPD3) =    -0.15592183602914D+03

 The electronic state is 1-A.
 Alpha  occ. eigenvalues --  -10.62408 -10.62177 -10.61866 -10.61396  -0.92885
 Alpha  occ. eigenvalues --   -0.85030  -0.69974  -0.64644  -0.54638  -0.53785
 Alpha  occ. eigenvalues --   -0.47117  -0.45776  -0.41072  -0.37853  -0.27851
 Alpha virt. eigenvalues --    0.01818   0.06974   0.07496   0.08188   0.09449
 Alpha virt. eigenvalues --    0.11724   0.12519   0.14548   0.15659   0.16282
 Alpha virt. eigenvalues --    0.18725   0.20091   0.21761   0.23004   0.24014

 Mulliken charges:
               1
     1  C   -0.170631
     2  C   -0.031738
     3  C   -0.037741
     4  C   -0.177277
     5  H    0.089520
     6  H    0.058641
     7  H    0.057168
     8  H    0.059941
     9  H    0.066544
    10  H    0.085571
 Sum of Mulliken charges =   0.00000

 Dipole moment (field-independent basis, Debye):
    X=             -0.0386    Y=              0.0359    Z=              0.2361  Tot=              0.2419
 Quadrupole moment (field-independent basis, Debye-Ang):
   XX=            -23.5701   YY=            -23.1472   ZZ=            -29.2053
   XY=             -0.0235   XZ=              0.2473   YZ=             -0.0579

 1\1\GINC-NODE07\SP\RB2PLYPD3-FC\def2QZVP\C4H6\BOITTIER\26-Aug-2020\0\\
 #p B2PLYPD3/Def2QZVP\\butadiene\\0,1\C,0,-3.839644,0.226019,-0.00799\C
 ,0,-2.745761,-0.510002,0.069191\C,0,-1.384727,0.0636,0.055814\C,0,-0.2
 40681,-0.645365,0.011648\H,0,-4.845118,-0.209752,-0.012923\H,0,-3.6976
 43,1.326627,-0.128332\H,0,-2.805718,-1.569813,0.053044\H,0,-1.369004,1
 .106287,0.042119\H,0,-0.253053,-1.716234,0.006401\H,0,0.694132,-0.1631
 86,-0.166421\\Version=ES64L-G09RevD.01\State=1-A\HF=-155.6963209\MP2=-
 155.921836\RMSD=5.984e-09\PG=C01 [X(C4H6)]\\@

 Normal termination of Gaussian 09 at Wed Aug 26 09:37:09 2020.
