 Gaussian 09, Revision D.01,
 Gaussian 09:  ES64L-G09RevD.01 24-Apr-2013

 --------------------
 #p B2PLYPD3/Def2QZVP
 --------------------

 ---------
 butadiene
 ---------
 Symbolic Z-matrix:
 Charge =  0 Multiplicity = 1

                         Standard orientation:
 ---------------------------------------------------------------------
 Center     Atomic      Atomic             Coordinates (Angstroms)
 Number     Number       Type             X           Y           Z
 ---------------------------------------------------------------------
      1          6           0       -1.833541    0.127260    0.007315
      2          6           0       -0.600730   -0.424950   -0.020782
      3          6           0        0.598880    0.387755   -0.015995
      4          6           0        1.836179   -0.101198    0.012328
      5          1           0       -2.693394   -0.541047    0.076521
      6          1           0       -2.003786    1.209907    0.021293
      7          1           0       -0.472821   -1.486709   -0.005263
      8          1           0        0.451665    1.478205   -0.057741
      9          1           0        2.016565   -1.157020   -0.023820
     10          1           0        2.697040    0.563462    0.091813
 ---------------------------------------------------------------------

 SCF Done:  E(RB2PLYPD3) =  -155.699334166     A.U. after   11 cycles
 E2(B2PLYPD3) =    -0.2261118852D+00 E(B2PLYPD3) =    -0.15592544605077D+03

 The electronic state is 1-A.
 Alpha  occ. eigenvalues --  -10.62600 -10.62442 -10.62015 -10.61312  -0.92979
 Alpha  occ. eigenvalues --   -0.84681  -0.69976  -0.64134  -0.54214  -0.53987
 Alpha  occ. eigenvalues --   -0.46472  -0.45653  -0.41346  -0.38032  -0.27483
 Alpha virt. eigenvalues --    0.01655   0.06988   0.07359   0.08034   0.09482
 Alpha virt. eigenvalues --    0.11736   0.12306   0.14781   0.15744   0.16098
 Alpha virt. eigenvalues --    0.18704   0.20459   0.21491   0.22961   0.23883

 Mulliken charges:
               1
     1  C   -0.176140
     2  C   -0.041307
     3  C   -0.019487
     4  C   -0.181446
     5  H    0.082573
     6  H    0.072058
     7  H    0.060391
     8  H    0.051823
     9  H    0.066409
    10  H    0.085126
 Sum of Mulliken charges =   0.00000

 Dipole moment (field-independent basis, Debye):
    X=             -0.0149    Y=             -0.0230    Z=              0.0680  Tot=              0.0733
 Quadrupole moment (field-independent basis, Debye-Ang):
   XX=            -23.8028   YY=            -22.9222   ZZ=            -29.3286
   XY=             -0.2034   XZ=             -0.0808   YZ=              0.0041

 1\1\GINC-NODE39\SP\RB2PLYPD3-FC\def2QZVP\C4H6\BOITTIER\26-Aug-2020\0\\
 #p B2PLYPD3/Def2QZVP\\butadiene\\0,1\C,0,-3.831665,0.244399,0.028145\C
 ,0,-2.719781,-0.523162,0.017469\C,0,-1.392505,0.057884,0.000122\C,0,-0
 .264486,-0.646695,0.044017\H,0,-4.798306,-0.254315,0.115668\H,0,-3.802
 382,1.339906,0.010587\H,0,-2.78678,-1.589601,0.063858\H,0,-1.339388,1.
 155281,-0.073336\H,0,-0.279017,-1.718314,0.03865\H,0,0.703096,-0.14748
 7,0.105229\\Version=ES64L-G09RevD.01\State=1-A\HF=-155.6993342\MP2=-15
 5.9254461\RMSD=6.191e-09\PG=C01 [X(C4H6)]\\@

 Normal termination of Gaussian 09 at Wed Aug 26 18:33:57 2020.
