 Gaussian 09, Revision D.01,
 Gaussian 09:  ES64L-G09RevD.01 24-Apr-2013

 --------------------
 #p B2PLYPD3/Def2QZVP
 --------------------

 ---------
 butadiene
 ---------
 Symbolic Z-matrix:
 Charge =  0 Multiplicity = 1

                         Standard orientation:
 ---------------------------------------------------------------------
 Center     Atomic      Atomic             Coordinates (Angstroms)
 Number     Number       Type             X           Y           Z
 ---------------------------------------------------------------------
      1          6           0       -1.851934    0.083174   -0.068267
      2          6           0       -0.616734   -0.361869    0.064735
      3          6           0        0.590757    0.430526   -0.018566
      4          6           0        1.833189   -0.133466   -0.024655
      5          1           0       -2.624841   -0.600179    0.064239
      6          1           0       -2.129878    1.075861   -0.017957
      7          1           0       -0.400875   -1.430985    0.115228
      8          1           0        0.626624    1.607722    0.184065
      9          1           0        2.111301   -1.236305   -0.093855
     10          1           0        2.686000    0.473691    0.028800
 ---------------------------------------------------------------------

 SCF Done:  E(RB2PLYPD3) =  -155.678722141     A.U. after   11 cycles
 E2(B2PLYPD3) =    -0.2269205735D+00 E(B2PLYPD3) =    -0.15590564271424D+03

 The electronic state is 1-A.
 Alpha  occ. eigenvalues --  -10.64034 -10.62562 -10.62293 -10.60249  -0.92857
 Alpha  occ. eigenvalues --   -0.84972  -0.71001  -0.63009  -0.54900  -0.53896
 Alpha  occ. eigenvalues --   -0.46530  -0.45169  -0.40688  -0.37818  -0.27694
 Alpha virt. eigenvalues --    0.01270   0.07031   0.07106   0.07795   0.09451
 Alpha virt. eigenvalues --    0.11297   0.12549   0.14859   0.15446   0.16576
 Alpha virt. eigenvalues --    0.18859   0.19445   0.22302   0.22732   0.23505

 Mulliken charges:
               1
     1  C   -0.155896
     2  C   -0.036073
     3  C   -0.030135
     4  C   -0.176141
     5  H    0.075534
     6  H    0.071033
     7  H    0.058934
     8  H    0.050428
     9  H    0.059887
    10  H    0.082428
 Sum of Mulliken charges =   0.00000

 Dipole moment (field-independent basis, Debye):
    X=              0.0946    Y=             -0.0315    Z=              0.2824  Tot=              0.2994
 Quadrupole moment (field-independent basis, Debye-Ang):
   XX=            -23.2350   YY=            -23.2167   ZZ=            -29.2777
   XY=             -0.4030   XZ=             -0.1437   YZ=              0.2077

 1\1\GINC-NODE04\SP\RB2PLYPD3-FC\def2QZVP\C4H6\BOITTIER\26-Aug-2020\0\\
 #p B2PLYPD3/Def2QZVP\\butadiene\\0,1\C,0,-3.853064,0.203463,-0.038293\
 C,0,-2.720122,-0.459471,0.097475\C,0,-1.388034,0.098051,0.010443\C,0,-
 0.269841,-0.68387,0.007748\H,0,-4.737921,-0.326157,0.097524\H,0,-3.944
 564,1.230504,0.006712\H,0,-2.703587,-1.549757,0.153651\H,0,-1.137156,1
 .249831,0.206909\H,0,-0.198352,-1.81933,-0.055569\H,0,0.679735,-0.2428
 14,0.058317\\Version=ES64L-G09RevD.01\State=1-A\HF=-155.6787221\MP2=-1
 55.9056427\RMSD=7.179e-09\PG=C01 [X(C4H6)]\\@

 Normal termination of Gaussian 09 at Wed Aug 26 14:33:52 2020.
