 Gaussian 09, Revision D.01,
 Gaussian 09:  ES64L-G09RevD.01 24-Apr-2013

 --------------------
 #p B2PLYPD3/Def2QZVP
 --------------------

 ---------
 butadiene
 ---------
 Symbolic Z-matrix:
 Charge =  0 Multiplicity = 1

                         Standard orientation:
 ---------------------------------------------------------------------
 Center     Atomic      Atomic             Coordinates (Angstroms)
 Number     Number       Type             X           Y           Z
 ---------------------------------------------------------------------
      1          6           0        1.836207    0.096589   -0.021290
      2          6           0        0.601273   -0.396068    0.013445
      3          6           0       -0.606469    0.426230    0.017548
      4          6           0       -1.838784   -0.115568   -0.016565
      5          1           0        2.690482   -0.526726    0.069310
      6          1           0        2.057747    1.152344   -0.065877
      7          1           0        0.479016   -1.476076    0.010474
      8          1           0       -0.443466    1.514479    0.047978
      9          1           0       -1.974737   -1.211679   -0.031378
     10          1           0       -2.762405    0.480554    0.010667
 ---------------------------------------------------------------------

 SCF Done:  E(RB2PLYPD3) =  -155.699060473     A.U. after   11 cycles
 E2(B2PLYPD3) =    -0.2260481138D+00 E(B2PLYPD3) =    -0.15592510858634D+03

 The electronic state is 1-A.
 Alpha  occ. eigenvalues --  -10.63068 -10.62520 -10.62203 -10.61095  -0.92795
 Alpha  occ. eigenvalues --   -0.84715  -0.70018  -0.63984  -0.54659  -0.53581
 Alpha  occ. eigenvalues --   -0.46790  -0.45301  -0.41085  -0.37978  -0.27645
 Alpha virt. eigenvalues --    0.01713   0.07014   0.07319   0.08066   0.09425
 Alpha virt. eigenvalues --    0.11619   0.12476   0.14625   0.15857   0.16192
 Alpha virt. eigenvalues --    0.18812   0.20403   0.21787   0.22672   0.23742

 Mulliken charges:
               1
     1  C   -0.174823
     2  C   -0.024720
     3  C   -0.039312
     4  C   -0.169434
     5  H    0.083322
     6  H    0.061568
     7  H    0.055949
     8  H    0.058245
     9  H    0.064219
    10  H    0.084986
 Sum of Mulliken charges =   0.00000

 Dipole moment (field-independent basis, Debye):
    X=              0.0089    Y=              0.0024    Z=              0.0591  Tot=              0.0598
 Quadrupole moment (field-independent basis, Debye-Ang):
   XX=            -23.3907   YY=            -23.1225   ZZ=            -29.3369
   XY=              0.2728   XZ=              0.0882   YZ=             -0.0305

 1\1\GINC-NODE34\SP\RB2PLYPD3-FC\def2QZVP\C4H6\BOITTIER\26-Aug-2020\0\\
 #p B2PLYPD3/Def2QZVP\\butadiene\\0,1\C,0,-3.841183,0.214062,0.037761\C
 ,0,-2.716726,-0.496063,0.020421\C,0,-1.379447,0.092053,-0.00478\C,0,-0
 .266313,-0.663885,0.048128\H,0,-4.794949,-0.245621,-0.036658\H,0,-3.86
 6619,1.293351,0.05095\H,0,-2.793189,-1.579721,0.055238\H,0,-1.341629,1
 .19043,-0.067383\H,0,-0.332206,-1.765519,0.095285\H,0,0.75034,-0.24699
 5,0.005728\\Version=ES64L-G09RevD.01\State=1-A\HF=-155.6990605\MP2=-15
 5.9251086\RMSD=5.769e-09\PG=C01 [X(C4H6)]\\@

 Normal termination of Gaussian 09 at Wed Aug 26 11:04:55 2020.
