 Gaussian 09, Revision D.01,
 Gaussian 09:  ES64L-G09RevD.01 24-Apr-2013

 --------------------
 #p B2PLYPD3/Def2QZVP
 --------------------

 ---------
 butadiene
 ---------
 Symbolic Z-matrix:
 Charge =  0 Multiplicity = 1

                         Standard orientation:
 ---------------------------------------------------------------------
 Center     Atomic      Atomic             Coordinates (Angstroms)
 Number     Number       Type             X           Y           Z
 ---------------------------------------------------------------------
      1          6           0        1.811365    0.079056   -0.051366
      2          6           0        0.555546   -0.347455    0.034151
      3          6           0       -0.586142    0.415213    0.070780
      4          6           0       -1.803474   -0.116853   -0.100252
      5          1           0        2.628739   -0.586717    0.084466
      6          1           0        2.168800    1.133884   -0.265252
      7          1           0        0.396971   -1.459272    0.218855
      8          1           0       -0.524841    1.525058    0.273416
      9          1           0       -1.768929   -1.239324   -0.068602
     10          1           0       -2.764508    0.446611    0.037243
 ---------------------------------------------------------------------

 SCF Done:  E(RB2PLYPD3) =  -155.679336214     A.U. after   12 cycles
 E2(B2PLYPD3) =    -0.2277072820D+00 E(B2PLYPD3) =    -0.15590704349599D+03

 The electronic state is 1-A.
 Alpha  occ. eigenvalues --  -10.62505 -10.62436 -10.62323 -10.61812  -0.94311
 Alpha  occ. eigenvalues --   -0.84669  -0.70497  -0.62796  -0.55123  -0.53025
 Alpha  occ. eigenvalues --   -0.46892  -0.44072  -0.41233  -0.38110  -0.27430
 Alpha virt. eigenvalues --    0.00943   0.06867   0.07198   0.07693   0.09957
 Alpha virt. eigenvalues --    0.11469   0.12461   0.14814   0.15655   0.16087
 Alpha virt. eigenvalues --    0.18706   0.19714   0.21381   0.21539   0.24055

 Mulliken charges:
               1
     1  C   -0.181725
     2  C   -0.014481
     3  C   -0.031518
     4  C   -0.157254
     5  H    0.083591
     6  H    0.066141
     7  H    0.044876
     8  H    0.054941
     9  H    0.050601
    10  H    0.084829
 Sum of Mulliken charges =   0.00000

 Dipole moment (field-independent basis, Debye):
    X=              0.0453    Y=              0.0601    Z=              0.3216  Tot=              0.3303
 Quadrupole moment (field-independent basis, Debye-Ang):
   XX=            -23.5316   YY=            -23.5907   ZZ=            -29.1524
   XY=             -0.0803   XZ=             -0.4143   YZ=             -0.2217

 1\1\GINC-NODE30\SP\RB2PLYPD3-FC\def2QZVP\C4H6\BOITTIER\26-Aug-2020\0\\
 #p B2PLYPD3/Def2QZVP\\butadiene\\0,1\C,0,-3.819808,0.19956,0.072778\C,
 0,-2.666349,-0.455885,-0.006167\C,0,-1.402663,0.079044,-0.064513\C,0,-
 0.30482,-0.666958,0.11567\H,0,-4.748078,-0.304767,-0.044578\H,0,-3.972
 459,1.30724,0.262279\H,0,-2.719479,-1.581716,-0.164536\H,0,-1.257206,1
 .175826,-0.29361\H,0,-0.548526,-1.763645,0.111138\H,0,0.74346,-0.29625
 6,-0.038185\\Version=ES64L-G09RevD.01\State=1-A\HF=-155.6793362\MP2=-1
 55.9070435\RMSD=4.154e-09\PG=C01 [X(C4H6)]\\@

 Normal termination of Gaussian 09 at Wed Aug 26 13:43:26 2020.
