 Gaussian 09, Revision D.01,
 Gaussian 09:  ES64L-G09RevD.01 24-Apr-2013

 --------------------
 #p B2PLYPD3/Def2QZVP
 --------------------

 ---------
 butadiene
 ---------
 Symbolic Z-matrix:
 Charge =  0 Multiplicity = 1

                         Standard orientation:
 ---------------------------------------------------------------------
 Center     Atomic      Atomic             Coordinates (Angstroms)
 Number     Number       Type             X           Y           Z
 ---------------------------------------------------------------------
      1          6           0        1.828237    0.100530   -0.064294
      2          6           0        0.576365   -0.403570    0.076609
      3          6           0       -0.622493    0.438167    0.032793
      4          6           0       -1.809367   -0.120774   -0.083195
      5          1           0        2.652401   -0.530556   -0.030206
      6          1           0        2.142979    1.184334   -0.125997
      7          1           0        0.506634   -1.449611    0.205273
      8          1           0       -0.554500    1.492742    0.230777
      9          1           0       -1.825973   -1.190888   -0.115711
     10          1           0       -2.757997    0.407862    0.064379
 ---------------------------------------------------------------------

 SCF Done:  E(RB2PLYPD3) =  -155.689989746     A.U. after   11 cycles
 E2(B2PLYPD3) =    -0.2259062683D+00 E(B2PLYPD3) =    -0.15591589601470D+03

 The electronic state is 1-A.
 Alpha  occ. eigenvalues --  -10.62754 -10.62204 -10.61661 -10.61043  -0.93052
 Alpha  occ. eigenvalues --   -0.84866  -0.69777  -0.64585  -0.54742  -0.53975
 Alpha  occ. eigenvalues --   -0.46799  -0.45065  -0.41561  -0.37468  -0.27749
 Alpha virt. eigenvalues --    0.01874   0.07148   0.07450   0.07901   0.09297
 Alpha virt. eigenvalues --    0.11530   0.12584   0.14670   0.15808   0.16455
 Alpha virt. eigenvalues --    0.18941   0.19905   0.21621   0.22116   0.24310

 Mulliken charges:
               1
     1  C   -0.168424
     2  C   -0.057345
     3  C   -0.027623
     4  C   -0.161745
     5  H    0.078242
     6  H    0.062389
     7  H    0.068053
     8  H    0.070171
     9  H    0.056580
    10  H    0.079702
 Sum of Mulliken charges =   0.00000

 Dipole moment (field-independent basis, Debye):
    X=              0.0209    Y=             -0.0227    Z=              0.3052  Tot=              0.3067
 Quadrupole moment (field-independent basis, Debye-Ang):
   XX=            -23.5073   YY=            -23.1044   ZZ=            -29.1549
   XY=              0.0774   XZ=             -0.4357   YZ=              0.0751

 1\1\GINC-NODE36\SP\RB2PLYPD3-FC\def2QZVP\C4H6\BOITTIER\26-Aug-2020\0\\
 #p B2PLYPD3/Def2QZVP\\butadiene\\0,1\C,0,-3.835493,0.213064,0.083664\C
 ,0,-2.695586,-0.51238,-0.040822\C,0,-1.364908,0.101552,-0.031566\C,0,-
 0.29647,-0.656672,0.102875\H,0,-4.759711,-0.260674,0.075323\H,0,-3.950
 277,1.337284,0.10498\H,0,-2.815664,-1.55797,-0.129938\H,0,-1.244521,1.
 143181,-0.269189\H,0,-0.471679,-1.710452,0.175852\H,0,0.730198,-0.3126
 83,-0.066711\\Version=ES64L-G09RevD.01\State=1-A\HF=-155.6899897\MP2=-
 155.915896\RMSD=7.758e-09\PG=C01 [X(C4H6)]\\@

 Normal termination of Gaussian 09 at Wed Aug 26 12:13:19 2020.
