 Gaussian 09, Revision D.01,
 Gaussian 09:  ES64L-G09RevD.01 24-Apr-2013

 --------------------
 #p B2PLYPD3/Def2QZVP
 --------------------

 ---------
 butadiene
 ---------
 Symbolic Z-matrix:
 Charge =  0 Multiplicity = 1

                         Standard orientation:
 ---------------------------------------------------------------------
 Center     Atomic      Atomic             Coordinates (Angstroms)
 Number     Number       Type             X           Y           Z
 ---------------------------------------------------------------------
      1          6           0       -1.827545   -0.094199    0.038831
      2          6           0       -0.593689    0.384439   -0.041301
      3          6           0        0.600166   -0.424869   -0.070414
      4          6           0        1.831393    0.120379    0.015187
      5          1           0       -2.669654    0.585303    0.065712
      6          1           0       -2.038267   -1.180066    0.045266
      7          1           0       -0.417831    1.459095   -0.023923
      8          1           0        0.388460   -1.466079    0.013337
      9          1           0        1.915713    1.204408    0.071605
     10          1           0        2.759626   -0.517165    0.174187
 ---------------------------------------------------------------------

 SCF Done:  E(RB2PLYPD3) =  -155.694976251     A.U. after   11 cycles
 E2(B2PLYPD3) =    -0.2264663345D+00 E(B2PLYPD3) =    -0.15592144258531D+03

 The electronic state is 1-A.
 Alpha  occ. eigenvalues --  -10.62572 -10.62436 -10.62204 -10.61583  -0.93293
 Alpha  occ. eigenvalues --   -0.84582  -0.69901  -0.64217  -0.54201  -0.53489
 Alpha  occ. eigenvalues --   -0.46750  -0.45447  -0.40937  -0.38290  -0.27575
 Alpha virt. eigenvalues --    0.01581   0.06971   0.07284   0.08056   0.09472
 Alpha virt. eigenvalues --    0.11774   0.12328   0.14678   0.15684   0.15959
 Alpha virt. eigenvalues --    0.18647   0.20207   0.21520   0.22965   0.23957

 Mulliken charges:
               1
     1  C   -0.182194
     2  C   -0.018212
     3  C   -0.033285
     4  C   -0.171887
     5  H    0.085997
     6  H    0.062974
     7  H    0.047649
     8  H    0.059145
     9  H    0.066927
    10  H    0.082886
 Sum of Mulliken charges =   0.00000

 Dipole moment (field-independent basis, Debye):
    X=             -0.0199    Y=              0.0020    Z=              0.2363  Tot=              0.2372
 Quadrupole moment (field-independent basis, Debye-Ang):
   XX=            -23.8337   YY=            -23.1291   ZZ=            -29.3071
   XY=              0.2294   XZ=              0.4368   YZ=             -0.0792

 1\1\GINC-NODE18\SP\RB2PLYPD3-FC\def2QZVP\C4H6\BOITTIER\26-Aug-2020\0\\
 #p B2PLYPD3/Def2QZVP\\butadiene\\0,1\C,0,-3.832652,0.212922,-0.020794\
 C,0,-2.70791,-0.482904,0.072468\C,0,-1.384915,0.092244,0.074464\C,0,-0
 .276261,-0.673581,0.004165\H,0,-4.78597,-0.29968,-0.025142\H,0,-3.8391
 86,1.318318,-0.06092\H,0,-2.733741,-1.571568,0.088493\H,0,-1.401225,1.
 151597,-0.041539\H,0,-0.394066,-1.75572,-0.018403\H,0,0.752599,-0.2237
 86,-0.17609\\Version=ES64L-G09RevD.01\State=1-A\HF=-155.6949763\MP2=-1
 55.9214426\RMSD=7.081e-09\PG=C01 [X(C4H6)]\\@

 Normal termination of Gaussian 09 at Wed Aug 26 09:24:37 2020.
