 Gaussian 09, Revision D.01,
 Gaussian 09:  ES64L-G09RevD.01 24-Apr-2013

 --------------------
 #p B2PLYPD3/Def2QZVP
 --------------------

 ---------
 butadiene
 ---------
 Symbolic Z-matrix:
 Charge =  0 Multiplicity = 1

                         Standard orientation:
 ---------------------------------------------------------------------
 Center     Atomic      Atomic             Coordinates (Angstroms)
 Number     Number       Type             X           Y           Z
 ---------------------------------------------------------------------
      1          6           0       -1.836882    0.107727    0.006789
      2          6           0       -0.607833   -0.408385   -0.000883
      3          6           0        0.597875    0.409095   -0.013024
      4          6           0        1.837422   -0.112531   -0.001993
      5          1           0       -2.734047   -0.512149    0.047423
      6          1           0       -1.990764    1.186163   -0.035591
      7          1           0       -0.453476   -1.485508   -0.033781
      8          1           0        0.465341    1.473357    0.009663
      9          1           0        2.035039   -1.166068    0.005457
     10          1           0        2.734420    0.528761    0.061502
 ---------------------------------------------------------------------

 SCF Done:  E(RB2PLYPD3) =  -155.700165234     A.U. after   11 cycles
 E2(B2PLYPD3) =    -0.2259589716D+00 E(B2PLYPD3) =    -0.15592612420530D+03

 The electronic state is 1-A.
 Alpha  occ. eigenvalues --  -10.62633 -10.62571 -10.61773 -10.61679  -0.92909
 Alpha  occ. eigenvalues --   -0.84669  -0.69981  -0.64316  -0.54460  -0.53739
 Alpha  occ. eigenvalues --   -0.46718  -0.45497  -0.41151  -0.38039  -0.27601
 Alpha virt. eigenvalues --    0.01705   0.06983   0.07399   0.08060   0.09430
 Alpha virt. eigenvalues --    0.11667   0.12451   0.14668   0.15823   0.16160
 Alpha virt. eigenvalues --    0.18788   0.20512   0.21675   0.22942   0.23638

 Mulliken charges:
               1
     1  C   -0.173895
     2  C   -0.030736
     3  C   -0.033558
     4  C   -0.175181
     5  H    0.085137
     6  H    0.064145
     7  H    0.057016
     8  H    0.060026
     9  H    0.067542
    10  H    0.079504
 Sum of Mulliken charges =   0.00000

 Dipole moment (field-independent basis, Debye):
    X=             -0.0065    Y=             -0.0116    Z=              0.0391  Tot=              0.0413
 Quadrupole moment (field-independent basis, Debye-Ang):
   XX=            -23.4844   YY=            -23.0916   ZZ=            -29.3251
   XY=             -0.2729   XZ=              0.1591   YZ=              0.0181

 1\1\GINC-NODE02\SP\RB2PLYPD3-FC\def2QZVP\C4H6\BOITTIER\26-Aug-2020\0\\
 #p B2PLYPD3/Def2QZVP\\butadiene\\0,1\C,0,-3.837859,0.224404,0.023999\C
 ,0,-2.722765,-0.505976,0.034182\C,0,-1.388855,0.078742,0.003524\C,0,-0
 .264402,-0.658451,0.032586\H,0,-4.83246,-0.221214,0.078715\H,0,-3.7937
 5,1.3113,-0.048196\H,0,-2.766311,-1.593725,0.031094\H,0,-1.326198,1.14
 9611,-0.003177\H,0,-0.261052,-1.729753,0.069322\H,0,0.734116,-0.188904
 ,0.081376\\Version=ES64L-G09RevD.01\State=1-A\HF=-155.7001652\MP2=-155
 .9261242\RMSD=4.683e-09\PG=C01 [X(C4H6)]\\@

 Normal termination of Gaussian 09 at Wed Aug 26 20:49:03 2020.
