 Gaussian 09, Revision D.01,
 Gaussian 09:  ES64L-G09RevD.01 24-Apr-2013

 --------------------
 #p B2PLYPD3/Def2QZVP
 --------------------

 ---------
 butadiene
 ---------
 Symbolic Z-matrix:
 Charge =  0 Multiplicity = 1

                         Standard orientation:
 ---------------------------------------------------------------------
 Center     Atomic      Atomic             Coordinates (Angstroms)
 Number     Number       Type             X           Y           Z
 ---------------------------------------------------------------------
      1          6           0        1.826787   -0.100122   -0.072941
      2          6           0        0.563676    0.354429    0.032809
      3          6           0       -0.603156   -0.443897    0.077794
      4          6           0       -1.804844    0.146317   -0.091873
      5          1           0        2.590434    0.636636    0.008108
      6          1           0        2.117557   -1.108518   -0.130556
      7          1           0        0.572414    1.465518    0.320308
      8          1           0       -0.493635   -1.482210    0.214671
      9          1           0       -1.888336    1.209356   -0.100026
     10          1           0       -2.793215   -0.461139    0.012763
 ---------------------------------------------------------------------

 SCF Done:  E(RB2PLYPD3) =  -155.682204230     A.U. after   12 cycles
 E2(B2PLYPD3) =    -0.2271334803D+00 E(B2PLYPD3) =    -0.15590933771044D+03

 The electronic state is 1-A.
 Alpha  occ. eigenvalues --  -10.62718 -10.62521 -10.62354 -10.60822  -0.93479
 Alpha  occ. eigenvalues --   -0.84613  -0.70247  -0.64077  -0.54923  -0.53567
 Alpha  occ. eigenvalues --   -0.46866  -0.44586  -0.41801  -0.37366  -0.27372
 Alpha virt. eigenvalues --    0.01257   0.06971   0.07174   0.07777   0.09512
 Alpha virt. eigenvalues --    0.11573   0.12342   0.14897   0.15416   0.16342
 Alpha virt. eigenvalues --    0.18796   0.19688   0.21672   0.21711   0.24661

 Mulliken charges:
               1
     1  C   -0.190069
     2  C   -0.010741
     3  C   -0.055355
     4  C   -0.154904
     5  H    0.077497
     6  H    0.067877
     7  H    0.051082
     8  H    0.071223
     9  H    0.073591
    10  H    0.069799
 Sum of Mulliken charges =   0.00000

 Dipole moment (field-independent basis, Debye):
    X=             -0.0025    Y=             -0.0655    Z=              0.3614  Tot=              0.3672
 Quadrupole moment (field-independent basis, Debye-Ang):
   XX=            -23.9641   YY=            -23.0524   ZZ=            -29.1926
   XY=             -0.1708   XZ=             -0.0002   YZ=              0.1452

 1\1\GINC-NODE23\SP\RB2PLYPD3-FC\def2QZVP\C4H6\BOITTIER\26-Aug-2020\0\\
 #p B2PLYPD3/Def2QZVP\\butadiene\\0,1\C,0,-3.834986,0.204242,-0.047885\
 C,0,-2.673239,-0.465259,0.076056\C,0,-1.38221,0.112368,0.09694\C,0,-0.
 306192,-0.688755,-0.049966\H,0,-4.717858,-0.380795,0.056075\H,0,-3.940
 797,1.245895,-0.140036\H,0,-2.879627,-1.546581,0.400705\H,0,-1.303626,
 1.157507,0.198593\H,0,-0.414333,-1.749238,-0.022198\H,0,0.775319,-0.26
 4866,0.036529\\Version=ES64L-G09RevD.01\State=1-A\HF=-155.6822042\MP2=
 -155.9093377\RMSD=6.051e-09\PG=C01 [X(C4H6)]\\@

 Normal termination of Gaussian 09 at Wed Aug 26 11:44:59 2020.
