 Gaussian 09, Revision D.01,
 Gaussian 09:  ES64L-G09RevD.01 24-Apr-2013

 --------------------
 #p B2PLYPD3/Def2QZVP
 --------------------

 ---------
 butadiene
 ---------
 Symbolic Z-matrix:
 Charge =  0 Multiplicity = 1

                         Standard orientation:
 ---------------------------------------------------------------------
 Center     Atomic      Atomic             Coordinates (Angstroms)
 Number     Number       Type             X           Y           Z
 ---------------------------------------------------------------------
      1          6           0        1.822224   -0.098839   -0.048955
      2          6           0        0.594718    0.379198    0.022234
      3          6           0       -0.609577   -0.429754    0.058922
      4          6           0       -1.814141    0.129401   -0.038320
      5          1           0        2.673213    0.544467   -0.042324
      6          1           0        1.972086   -1.151067    0.025825
      7          1           0        0.490523    1.467068    0.125920
      8          1           0       -0.481396   -1.467593    0.034191
      9          1           0       -1.944864    1.233607   -0.019462
     10          1           0       -2.668906   -0.506518   -0.087437
 ---------------------------------------------------------------------

 SCF Done:  E(RB2PLYPD3) =  -155.697096701     A.U. after   11 cycles
 E2(B2PLYPD3) =    -0.2251757886D+00 E(B2PLYPD3) =    -0.15592227248933D+03

 The electronic state is 1-A.
 Alpha  occ. eigenvalues --  -10.62072 -10.62008 -10.61625 -10.60597  -0.93367
 Alpha  occ. eigenvalues --   -0.85256  -0.69974  -0.64358  -0.54716  -0.54261
 Alpha  occ. eigenvalues --   -0.46867  -0.45443  -0.41430  -0.38130  -0.27774
 Alpha virt. eigenvalues --    0.02065   0.07065   0.07412   0.08116   0.09556
 Alpha virt. eigenvalues --    0.11796   0.12433   0.14772   0.15618   0.16364
 Alpha virt. eigenvalues --    0.18671   0.20078   0.21598   0.23185   0.24310

 Mulliken charges:
               1
     1  C   -0.182674
     2  C   -0.013195
     3  C   -0.047918
     4  C   -0.168254
     5  H    0.084876
     6  H    0.060921
     7  H    0.048849
     8  H    0.063313
     9  H    0.070196
    10  H    0.083886
 Sum of Mulliken charges =   0.00000

 Dipole moment (field-independent basis, Debye):
    X=             -0.0570    Y=             -0.0335    Z=              0.0949  Tot=              0.1157
 Quadrupole moment (field-independent basis, Debye-Ang):
   XX=            -23.7955   YY=            -22.9449   ZZ=            -29.1211
   XY=              0.0227   XZ=              0.3207   YZ=              0.0905

 1\1\GINC-NODE18\SP\RB2PLYPD3-FC\def2QZVP\C4H6\BOITTIER\26-Aug-2020\0\\
 #p B2PLYPD3/Def2QZVP\\butadiene\\0,1\C,0,-3.828736,0.206334,-0.025507\
 C,0,-2.706645,-0.481961,0.0612\C,0,-1.376401,0.098081,0.070046\C,0,-0.
 292547,-0.671414,-0.008837\H,0,-4.78139,-0.272933,0.003196\H,0,-3.7866
 36,1.270249,0.013825\H,0,-2.79891,-1.566804,0.201455\H,0,-1.316205,1.1
 4066,0.010398\H,0,-0.362203,-1.779893,0.047177\H,0,0.662217,-0.201494,
 -0.079755\\Version=ES64L-G09RevD.01\State=1-A\HF=-155.6970967\MP2=-155
 .9222725\RMSD=7.417e-09\PG=C01 [X(C4H6)]\\@

 Normal termination of Gaussian 09 at Wed Aug 26 09:12:19 2020.
