 Gaussian 09, Revision D.01,
 Gaussian 09:  ES64L-G09RevD.01 24-Apr-2013

 --------------------
 #p B2PLYPD3/Def2QZVP
 --------------------

 ---------
 butadiene
 ---------
 Symbolic Z-matrix:
 Charge =  0 Multiplicity = 1

                         Standard orientation:
 ---------------------------------------------------------------------
 Center     Atomic      Atomic             Coordinates (Angstroms)
 Number     Number       Type             X           Y           Z
 ---------------------------------------------------------------------
      1          6           0       -1.877173    0.058932    0.043616
      2          6           0       -0.585854   -0.348031   -0.103927
      3          6           0        0.633077    0.435683   -0.022725
      4          6           0        1.871378   -0.121607    0.051780
      5          1           0       -2.748963   -0.565594    0.101001
      6          1           0       -2.179209    1.103632    0.293377
      7          1           0       -0.505936   -1.410835   -0.184912
      8          1           0        0.372530    1.548883   -0.281037
      9          1           0        1.974115   -1.220093    0.204195
     10          1           0        2.838893    0.394148    0.054906
 ---------------------------------------------------------------------

 SCF Done:  E(RB2PLYPD3) =  -155.680752479     A.U. after   11 cycles
 E2(B2PLYPD3) =    -0.2282748407D+00 E(B2PLYPD3) =    -0.15590902732012D+03

 The electronic state is 1-A.
 Alpha  occ. eigenvalues --  -10.64444 -10.63085 -10.62949 -10.62286  -0.92387
 Alpha  occ. eigenvalues --   -0.84166  -0.70759  -0.63375  -0.54984  -0.52477
 Alpha  occ. eigenvalues --   -0.47643  -0.44300  -0.40304  -0.37422  -0.27520
 Alpha virt. eigenvalues --    0.00704   0.07039   0.07243   0.07746   0.09258
 Alpha virt. eigenvalues --    0.11178   0.12544   0.14421   0.15250   0.16607
 Alpha virt. eigenvalues --    0.19101   0.19845   0.21176   0.22042   0.23155

 Mulliken charges:
               1
     1  C   -0.169743
     2  C   -0.028067
     3  C   -0.039520
     4  C   -0.167018
     5  H    0.084307
     6  H    0.049099
     7  H    0.055819
     8  H    0.060721
     9  H    0.064652
    10  H    0.089750
 Sum of Mulliken charges =   0.00000

 Dipole moment (field-independent basis, Debye):
    X=              0.0614    Y=             -0.1189    Z=              0.0953  Tot=              0.1642
 Quadrupole moment (field-independent basis, Debye-Ang):
   XX=            -22.6765   YY=            -23.8761   ZZ=            -29.3904
   XY=             -0.3560   XZ=             -0.4137   YZ=             -0.1660

 1\1\GINC-NODE24\SP\RB2PLYPD3-FC\def2QZVP\C4H6\BOITTIER\26-Aug-2020\0\\
 #p B2PLYPD3/Def2QZVP\\butadiene\\0,1\C,0,-3.891619,0.18832,0.070125\C,
 0,-2.698506,-0.456246,-0.056004\C,0,-1.355799,0.093785,-0.021399\C,0,-
 0.239676,-0.676232,0.082795\H,0,-4.862275,-0.261461,0.164291\H,0,-3.99
 4252,1.282956,0.2605\H,0,-2.815518,-1.518501,-0.076506\H,0,-1.411174,1
 .219762,-0.342234\H,0,-0.338002,-1.764704,0.29731\H,0,0.805886,-0.3474
 01,0.055084\\Version=ES64L-G09RevD.01\State=1-A\HF=-155.6807525\MP2=-1
 55.9090273\RMSD=7.133e-09\PG=C01 [X(C4H6)]\\@

 Normal termination of Gaussian 09 at Wed Aug 26 12:51:18 2020.
