 Gaussian 09, Revision D.01,
 Gaussian 09:  ES64L-G09RevD.01 24-Apr-2013

 --------------------
 #p B2PLYPD3/Def2QZVP
 --------------------

 ---------
 butadiene
 ---------
 Symbolic Z-matrix:
 Charge =  0 Multiplicity = 1

                         Standard orientation:
 ---------------------------------------------------------------------
 Center     Atomic      Atomic             Coordinates (Angstroms)
 Number     Number       Type             X           Y           Z
 ---------------------------------------------------------------------
      1          6           0       -1.842981   -0.107780   -0.000470
      2          6           0       -0.593528    0.419025   -0.015181
      3          6           0        0.597675   -0.361319   -0.063376
      4          6           0        1.841273    0.076651    0.039768
      5          1           0       -2.843137    0.381469   -0.026608
      6          1           0       -1.805261   -1.236037    0.319472
      7          1           0       -0.531039    1.538187   -0.101740
      8          1           0        0.394881   -1.469392   -0.083303
      9          1           0        2.094517    1.163860    0.229201
     10          1           0        2.675407   -0.537549   -0.101463
 ---------------------------------------------------------------------

 SCF Done:  E(RB2PLYPD3) =  -155.679662088     A.U. after   12 cycles
 E2(B2PLYPD3) =    -0.2279207001D+00 E(B2PLYPD3) =    -0.15590758278768D+03

 The electronic state is 1-A.
 Alpha  occ. eigenvalues --  -10.63277 -10.63164 -10.62898 -10.61733  -0.93282
 Alpha  occ. eigenvalues --   -0.84636  -0.70160  -0.62789  -0.55291  -0.52708
 Alpha  occ. eigenvalues --   -0.47517  -0.43516  -0.40593  -0.38130  -0.27511
 Alpha virt. eigenvalues --    0.00971   0.06947   0.07147   0.07779   0.09488
 Alpha virt. eigenvalues --    0.11414   0.12386   0.14441   0.15758   0.16435
 Alpha virt. eigenvalues --    0.18773   0.19636   0.21239   0.22138   0.23170

 Mulliken charges:
               1
     1  C   -0.170204
     2  C   -0.022848
     3  C   -0.027161
     4  C   -0.167646
     5  H    0.094473
     6  H    0.042051
     7  H    0.050461
     8  H    0.047963
     9  H    0.060718
    10  H    0.092194
 Sum of Mulliken charges =   0.00000

 Dipole moment (field-independent basis, Debye):
    X=              0.0492    Y=              0.0924    Z=              0.1369  Tot=              0.1723
 Quadrupole moment (field-independent basis, Debye-Ang):
   XX=            -23.0593   YY=            -23.8351   ZZ=            -29.2877
   XY=             -0.2685   XZ=             -0.1936   YZ=             -0.1028

 1\1\GINC-NODE18\SP\RB2PLYPD3-FC\def2QZVP\C4H6\BOITTIER\26-Aug-2020\0\\
 #p B2PLYPD3/Def2QZVP\\butadiene\\0,1\C,0,-3.844811,0.227519,0.010139\C
 ,0,-2.711624,-0.516049,0.053329\C,0,-1.398388,0.036544,0.069977\C,0,-0
 .25541,-0.624071,-0.008648\H,0,-4.916998,-0.070399,0.055104\H,0,-3.604
 557,1.314409,-0.360937\H,0,-2.852813,-1.622835,0.191204\H,0,-1.396669,
 1.162756,0.038488\H,0,-0.204552,-1.746675,-0.147263\H,0,0.676993,-0.16
 5646,0.10728\\Version=ES64L-G09RevD.01\State=1-A\HF=-155.6796621\MP2=-
 155.9075828\RMSD=3.645e-09\PG=C01 [X(C4H6)]\\@

 Normal termination of Gaussian 09 at Wed Aug 26 14:46:55 2020.
