 Gaussian 09, Revision D.01,
 Gaussian 09:  ES64L-G09RevD.01 24-Apr-2013

 --------------------
 #p B2PLYPD3/Def2QZVP
 --------------------

 ---------
 butadiene
 ---------
 Symbolic Z-matrix:
 Charge =  0 Multiplicity = 1

                         Standard orientation:
 ---------------------------------------------------------------------
 Center     Atomic      Atomic             Coordinates (Angstroms)
 Number     Number       Type             X           Y           Z
 ---------------------------------------------------------------------
      1          6           0       -1.844281    0.097691    0.019428
      2          6           0       -0.601197   -0.391366   -0.015654
      3          6           0        0.602522    0.405613   -0.022769
      4          6           0        1.842010   -0.114565    0.022946
      5          1           0       -2.699590   -0.525659   -0.058043
      6          1           0       -2.019458    1.161984    0.097225
      7          1           0       -0.417279   -1.470106   -0.020446
      8          1           0        0.464029    1.482033   -0.070309
      9          1           0        2.008955   -1.187158    0.035458
     10          1           0        2.669020    0.554674   -0.007589
 ---------------------------------------------------------------------

 SCF Done:  E(RB2PLYPD3) =  -155.699945991     A.U. after   11 cycles
 E2(B2PLYPD3) =    -0.2258592346D+00 E(B2PLYPD3) =    -0.15592580522559D+03

 The electronic state is 1-A.
 Alpha  occ. eigenvalues --  -10.62533 -10.62469 -10.61549 -10.61329  -0.93030
 Alpha  occ. eigenvalues --   -0.84858  -0.70582  -0.63944  -0.54789  -0.53910
 Alpha  occ. eigenvalues --   -0.46686  -0.46043  -0.41202  -0.38066  -0.27517
 Alpha virt. eigenvalues --    0.01494   0.07041   0.07380   0.08129   0.09665
 Alpha virt. eigenvalues --    0.11727   0.12387   0.14841   0.15768   0.16120
 Alpha virt. eigenvalues --    0.18805   0.20479   0.21621   0.22806   0.23839

 Mulliken charges:
               1
     1  C   -0.179064
     2  C   -0.025046
     3  C   -0.029115
     4  C   -0.181675
     5  H    0.089327
     6  H    0.064634
     7  H    0.050014
     8  H    0.052530
     9  H    0.069895
    10  H    0.088499
 Sum of Mulliken charges =   0.00000

 Dipole moment (field-independent basis, Debye):
    X=              0.0038    Y=              0.0146    Z=             -0.0461  Tot=              0.0485
 Quadrupole moment (field-independent basis, Debye-Ang):
   XX=            -23.5369   YY=            -23.0819   ZZ=            -29.2617
   XY=             -0.2181   XZ=              0.0083   YZ=              0.0486

 1\1\GINC-NODE28\SP\RB2PLYPD3-FC\def2QZVP\C4H6\BOITTIER\26-Aug-2020\0\\
 #p B2PLYPD3/Def2QZVP\\butadiene\\0,1\C,0,-3.846966,0.220613,0.037451\C
 ,0,-2.714983,-0.489256,0.018309\C,0,-1.385395,0.072529,-0.009232\C,0,-
 0.26238,-0.664992,0.053263\H,0,-4.80248,-0.236939,-0.023864\H,0,-3.823
 414,1.300731,0.084887\H,0,-2.732341,-1.583126,0.044271\H,0,-1.323994,1
 .154308,-0.087362\H,0,-0.295232,-1.74922,0.09632\H,0,0.673367,-0.16018
 1,0.005272\\Version=ES64L-G09RevD.01\State=1-A\HF=-155.699946\MP2=-155
 .9258052\RMSD=5.354e-09\PG=C01 [X(C4H6)]\\@

 Normal termination of Gaussian 09 at Wed Aug 26 22:08:43 2020.
