 Gaussian 09, Revision D.01,
 Gaussian 09:  ES64L-G09RevD.01 24-Apr-2013

 --------------------
 #p B2PLYPD3/Def2QZVP
 --------------------

 ---------
 butadiene
 ---------
 Symbolic Z-matrix:
 Charge =  0 Multiplicity = 1

                         Standard orientation:
 ---------------------------------------------------------------------
 Center     Atomic      Atomic             Coordinates (Angstroms)
 Number     Number       Type             X           Y           Z
 ---------------------------------------------------------------------
      1          6           0       -1.834367    0.112711    0.027435
      2          6           0       -0.609364   -0.434516   -0.058946
      3          6           0        0.586695    0.404380   -0.036937
      4          6           0        1.847767   -0.106207    0.014403
      5          1           0       -2.747684   -0.468310    0.118371
      6          1           0       -1.906118    1.230830    0.032665
      7          1           0       -0.434567   -1.514377   -0.024420
      8          1           0        0.432807    1.470368    0.007002
      9          1           0        2.044619   -1.139261    0.125003
     10          1           0        2.666564    0.562538    0.065649
 ---------------------------------------------------------------------

 SCF Done:  E(RB2PLYPD3) =  -155.696082712     A.U. after   11 cycles
 E2(B2PLYPD3) =    -0.2266939359D+00 E(B2PLYPD3) =    -0.15592277664799D+03

 The electronic state is 1-A.
 Alpha  occ. eigenvalues --  -10.62904 -10.62841 -10.62210 -10.61253  -0.92680
 Alpha  occ. eigenvalues --   -0.84409  -0.70112  -0.64223  -0.54499  -0.53635
 Alpha  occ. eigenvalues --   -0.46391  -0.45842  -0.41531  -0.37783  -0.27305
 Alpha virt. eigenvalues --    0.01464   0.07021   0.07308   0.08146   0.09125
 Alpha virt. eigenvalues --    0.11701   0.12484   0.14633   0.15943   0.16021
 Alpha virt. eigenvalues --    0.18677   0.20450   0.21504   0.22882   0.24169

 Mulliken charges:
               1
     1  C   -0.170858
     2  C   -0.031839
     3  C   -0.031226
     4  C   -0.184204
     5  H    0.088935
     6  H    0.060514
     7  H    0.057643
     8  H    0.056809
     9  H    0.070279
    10  H    0.083949
 Sum of Mulliken charges =   0.00000

 Dipole moment (field-independent basis, Debye):
    X=             -0.0421    Y=             -0.0218    Z=              0.2407  Tot=              0.2453
 Quadrupole moment (field-independent basis, Debye-Ang):
   XX=            -23.7183   YY=            -22.9988   ZZ=            -29.3957
   XY=             -0.1735   XZ=              0.0395   YZ=             -0.1122

 1\1\GINC-NODE24\SP\RB2PLYPD3-FC\def2QZVP\C4H6\BOITTIER\26-Aug-2020\0\\
 #p B2PLYPD3/Def2QZVP\\butadiene\\0,1\C,0,-3.83301,0.235011,0.050003\C,
 0,-2.729249,-0.529779,-0.016022\C,0,-1.399706,0.076111,-0.017369\C,0,-
 0.253325,-0.654963,0.053198\H,0,-4.836994,-0.165743,0.156847\H,0,-3.69
 8735,1.346959,0.019891\H,0,-2.755084,-1.621764,0.052884\H,0,-1.3556,1.
 153096,-0.00736\H,0,-0.248656,-1.702609,0.196724\H,0,0.674271,-0.14624
 ,0.085467\\Version=ES64L-G09RevD.01\State=1-A\HF=-155.6960827\MP2=-155
 .9227766\RMSD=7.834e-09\PG=C01 [X(C4H6)]\\@

 Normal termination of Gaussian 09 at Wed Aug 26 09:05:17 2020.
