 Gaussian 09, Revision D.01,
 Gaussian 09:  ES64L-G09RevD.01 24-Apr-2013

 --------------------
 #p B2PLYPD3/Def2QZVP
 --------------------

 ---------
 butadiene
 ---------
 Symbolic Z-matrix:
 Charge =  0 Multiplicity = 1

                         Standard orientation:
 ---------------------------------------------------------------------
 Center     Atomic      Atomic             Coordinates (Angstroms)
 Number     Number       Type             X           Y           Z
 ---------------------------------------------------------------------
      1          6           0        1.850144    0.097674    0.000403
      2          6           0        0.606927   -0.380522   -0.009571
      3          6           0       -0.618950    0.411441   -0.003432
      4          6           0       -1.840134   -0.116959   -0.001648
      5          1           0        2.734683   -0.540276    0.012721
      6          1           0        2.019118    1.179869    0.028113
      7          1           0        0.443910   -1.459403   -0.025175
      8          1           0       -0.512962    1.480200    0.021911
      9          1           0       -1.946887   -1.219594    0.078231
     10          1           0       -2.725779    0.489406   -0.030309
 ---------------------------------------------------------------------

 SCF Done:  E(RB2PLYPD3) =  -155.700047495     A.U. after   11 cycles
 E2(B2PLYPD3) =    -0.2257338936D+00 E(B2PLYPD3) =    -0.15592578138867D+03

 The electronic state is 1-A.
 Alpha  occ. eigenvalues --  -10.62606 -10.62407 -10.61743 -10.61739  -0.92955
 Alpha  occ. eigenvalues --   -0.84999  -0.69950  -0.63926  -0.54772  -0.53585
 Alpha  occ. eigenvalues --   -0.47028  -0.45236  -0.40926  -0.38101  -0.27855
 Alpha virt. eigenvalues --    0.01782   0.06991   0.07377   0.08059   0.09667
 Alpha virt. eigenvalues --    0.11651   0.12426   0.14535   0.15823   0.16168
 Alpha virt. eigenvalues --    0.18808   0.20475   0.21440   0.22764   0.23777

 Mulliken charges:
               1
     1  C   -0.175048
     2  C   -0.027126
     3  C   -0.031144
     4  C   -0.173160
     5  H    0.088535
     6  H    0.062614
     7  H    0.049954
     8  H    0.054163
     9  H    0.061383
    10  H    0.089829
 Sum of Mulliken charges =   0.00000

 Dipole moment (field-independent basis, Debye):
    X=             -0.0322    Y=              0.0338    Z=              0.0715  Tot=              0.0854
 Quadrupole moment (field-independent basis, Debye-Ang):
   XX=            -23.3719   YY=            -23.2219   ZZ=            -29.2878
   XY=             -0.0314   XZ=              0.0196   YZ=             -0.0378

 1\1\GINC-NODE29\SP\RB2PLYPD3-FC\def2QZVP\C4H6\BOITTIER\26-Aug-2020\0\\
 #p B2PLYPD3/Def2QZVP\\butadiene\\0,1\C,0,-3.85604,0.208834,0.016836\C,
 0,-2.717597,-0.482295,0.042299\C,0,-1.370493,0.078651,0.016439\C,0,-0.
 262693,-0.65827,0.0315\H,0,-4.839925,-0.261801,0.020596\H,0,-3.830045,
 1.302648,-0.041147\H,0,-2.748903,-1.572123,0.088077\H,0,-1.284897,1.14
 8116,-0.038691\H,0,-0.35389,-1.764096,-0.017611\H,0,0.716717,-0.21845,
 0.044953\\Version=ES64L-G09RevD.01\State=1-A\HF=-155.7000475\MP2=-155.
 9257814\RMSD=3.311e-09\PG=C01 [X(C4H6)]\\@

 Normal termination of Gaussian 09 at Wed Aug 26 16:21:18 2020.
