 Gaussian 09, Revision D.01,
 Gaussian 09:  ES64L-G09RevD.01 24-Apr-2013

 --------------------
 #p B2PLYPD3/Def2QZVP
 --------------------

 ---------
 butadiene
 ---------
 Symbolic Z-matrix:
 Charge =  0 Multiplicity = 1

                         Standard orientation:
 ---------------------------------------------------------------------
 Center     Atomic      Atomic             Coordinates (Angstroms)
 Number     Number       Type             X           Y           Z
 ---------------------------------------------------------------------
      1          6           0       -1.818182   -0.144430    0.008185
      2          6           0       -0.600816    0.438995   -0.031541
      3          6           0        0.583402   -0.347596   -0.119066
      4          6           0        1.839329    0.081473    0.030845
      5          1           0       -2.658225    0.472107    0.197891
      6          1           0       -1.802244   -1.275421    0.102200
      7          1           0       -0.547095    1.552288   -0.001672
      8          1           0        0.322541   -1.416245    0.073065
      9          1           0        1.988008    1.079735    0.086310
     10          1           0        2.674616   -0.583115    0.211665
 ---------------------------------------------------------------------

 SCF Done:  E(RB2PLYPD3) =  -155.682471991     A.U. after   11 cycles
 E2(B2PLYPD3) =    -0.2272179296D+00 E(B2PLYPD3) =    -0.15590968992100D+03

 The electronic state is 1-A.
 Alpha  occ. eigenvalues --  -10.62790 -10.62505 -10.61985 -10.60933  -0.93559
 Alpha  occ. eigenvalues --   -0.84993  -0.70600  -0.63572  -0.55155  -0.53718
 Alpha  occ. eigenvalues --   -0.46300  -0.45385  -0.41375  -0.38317  -0.27426
 Alpha virt. eigenvalues --    0.01173   0.07073   0.07167   0.08064   0.09311
 Alpha virt. eigenvalues --    0.11828   0.12578   0.14658   0.15386   0.16297
 Alpha virt. eigenvalues --    0.18671   0.19662   0.21589   0.23596   0.23693

 Mulliken charges:
               1
     1  C   -0.171236
     2  C   -0.032617
     3  C   -0.007905
     4  C   -0.179165
     5  H    0.088634
     6  H    0.058212
     7  H    0.043772
     8  H    0.042859
     9  H    0.069252
    10  H    0.088194
 Sum of Mulliken charges =   0.00000

 Dipole moment (field-independent basis, Debye):
    X=              0.0506    Y=              0.1409    Z=              0.5208  Tot=              0.5419
 Quadrupole moment (field-independent basis, Debye-Ang):
   XX=            -23.9761   YY=            -23.2655   ZZ=            -29.1527
   XY=             -0.1448   XZ=              0.0990   YZ=             -0.1842

 1\1\GINC-NODE39\SP\RB2PLYPD3-FC\def2QZVP\C4H6\BOITTIER\26-Aug-2020\0\\
 #p B2PLYPD3/Def2QZVP\\butadiene\\0,1\C,0,-3.81388,0.256991,-0.006418\C
 ,0,-2.721582,-0.533852,0.067037\C,0,-1.414036,0.029251,0.111739\C,0,-0
 .257661,-0.627432,-0.012721\H,0,-4.753142,-0.206983,-0.162281\H,0,-3.5
 94811,1.359536,-0.163377\H,0,-2.87007,-1.638435,0.099388\H,0,-1.479355
 ,1.115226,-0.139986\H,0,-0.292216,-1.637637,-0.012248\H,0,0.682232,-0.
 135815,-0.229493\\Version=ES64L-G09RevD.01\State=1-A\HF=-155.682472\MP
 2=-155.9096899\RMSD=6.116e-09\PG=C01 [X(C4H6)]\\@

 Normal termination of Gaussian 09 at Wed Aug 26 11:24:02 2020.
