 Gaussian 09, Revision D.01,
 Gaussian 09:  ES64L-G09RevD.01 24-Apr-2013

 --------------------
 #p B2PLYPD3/Def2QZVP
 --------------------

 ---------
 butadiene
 ---------
 Symbolic Z-matrix:
 Charge =  0 Multiplicity = 1

                         Standard orientation:
 ---------------------------------------------------------------------
 Center     Atomic      Atomic             Coordinates (Angstroms)
 Number     Number       Type             X           Y           Z
 ---------------------------------------------------------------------
      1          6           0        1.843736    0.109791    0.009637
      2          6           0        0.608666   -0.396330   -0.012224
      3          6           0       -0.610046    0.395449   -0.029484
      4          6           0       -1.833424   -0.114906    0.024555
      5          1           0        2.698300   -0.526206    0.076567
      6          1           0        2.025746    1.177380    0.003777
      7          1           0        0.486088   -1.457167   -0.044969
      8          1           0       -0.540598    1.488801   -0.023222
      9          1           0       -2.025180   -1.160741   -0.023545
     10          1           0       -2.697952    0.513905    0.056487
 ---------------------------------------------------------------------

 SCF Done:  E(RB2PLYPD3) =  -155.700713614     A.U. after   11 cycles
 E2(B2PLYPD3) =    -0.2251731316D+00 E(B2PLYPD3) =    -0.15592588674593D+03

 The electronic state is 1-A.
 Alpha  occ. eigenvalues --  -10.62449 -10.62363 -10.61336 -10.60988  -0.93045
 Alpha  occ. eigenvalues --   -0.85202  -0.70362  -0.64213  -0.54773  -0.54334
 Alpha  occ. eigenvalues --   -0.46724  -0.45693  -0.41268  -0.38112  -0.27762
 Alpha virt. eigenvalues --    0.01822   0.07023   0.07525   0.08056   0.09696
 Alpha virt. eigenvalues --    0.11664   0.12478   0.14805   0.15858   0.16319
 Alpha virt. eigenvalues --    0.18853   0.20380   0.21861   0.22753   0.23890

 Mulliken charges:
               1
     1  C   -0.174257
     2  C   -0.037415
     3  C   -0.026223
     4  C   -0.173742
     5  H    0.085772
     6  H    0.067250
     7  H    0.059109
     8  H    0.052649
     9  H    0.064658
    10  H    0.082199
 Sum of Mulliken charges =   0.00000

 Dipole moment (field-independent basis, Debye):
    X=             -0.0237    Y=             -0.0183    Z=              0.0091  Tot=              0.0313
 Quadrupole moment (field-independent basis, Debye-Ang):
   XX=            -23.3603   YY=            -23.0835   ZZ=            -29.1718
   XY=              0.1057   XZ=              0.1035   YZ=              0.0550

 1\1\GINC-NODE14\SP\RB2PLYPD3-FC\def2QZVP\C4H6\BOITTIER\26-Aug-2020\0\\
 #p B2PLYPD3/Def2QZVP\\butadiene\\0,1\C,0,-3.845697,0.221475,0.005621\C
 ,0,-2.720432,-0.49548,0.047892\C,0,-1.38015,0.066729,0.041803\C,0,-0.2
 67395,-0.654861,0.008329\H,0,-4.800076,-0.254052,-0.042184\H,0,-3.8346
 62,1.303996,-0.02498\H,0,-2.788617,-1.559478,0.116687\H,0,-1.253806,1.
 154132,-0.001473\H,0,-0.264787,-1.715909,0.092153\H,0,0.695182,-0.1915
 ,-0.042403\\Version=ES64L-G09RevD.01\State=1-A\HF=-155.7007136\MP2=-15
 5.9258867\RMSD=3.716e-09\PG=C01 [X(C4H6)]\\@

 Normal termination of Gaussian 09 at Wed Aug 26 21:50:57 2020.
