 Gaussian 09, Revision D.01,
 Gaussian 09:  ES64L-G09RevD.01 24-Apr-2013

 --------------------
 #p B2PLYPD3/Def2QZVP
 --------------------

 ---------
 butadiene
 ---------
 Symbolic Z-matrix:
 Charge =  0 Multiplicity = 1

                         Standard orientation:
 ---------------------------------------------------------------------
 Center     Atomic      Atomic             Coordinates (Angstroms)
 Number     Number       Type             X           Y           Z
 ---------------------------------------------------------------------
      1          6           0        1.837582    0.115262    0.011547
      2          6           0        0.601668   -0.405388   -0.032609
      3          6           0       -0.600064    0.378526   -0.011316
      4          6           0       -1.845869   -0.100535    0.022708
      5          1           0        2.750396   -0.507005    0.010948
      6          1           0        2.007391    1.175999    0.097218
      7          1           0        0.479342   -1.487076   -0.023109
      8          1           0       -0.456537    1.474462   -0.058237
      9          1           0       -2.065039   -1.146055    0.071830
     10          1           0       -2.675452    0.562479   -0.040635
 ---------------------------------------------------------------------

 SCF Done:  E(RB2PLYPD3) =  -155.699598970     A.U. after   11 cycles
 E2(B2PLYPD3) =    -0.2259251636D+00 E(B2PLYPD3) =    -0.15592552413313D+03

 The electronic state is 1-A.
 Alpha  occ. eigenvalues --  -10.62615 -10.62549 -10.61908 -10.61193  -0.93123
 Alpha  occ. eigenvalues --   -0.84848  -0.70556  -0.63906  -0.54651  -0.54035
 Alpha  occ. eigenvalues --   -0.46729  -0.45559  -0.41073  -0.38256  -0.27543
 Alpha virt. eigenvalues --    0.01438   0.06987   0.07430   0.07993   0.09764
 Alpha virt. eigenvalues --    0.11643   0.12426   0.14847   0.15849   0.16152
 Alpha virt. eigenvalues --    0.18835   0.20558   0.21733   0.22521   0.23667

 Mulliken charges:
               1
     1  C   -0.171903
     2  C   -0.031800
     3  C   -0.022854
     4  C   -0.180279
     5  H    0.082775
     6  H    0.065730
     7  H    0.055125
     8  H    0.048945
     9  H    0.067354
    10  H    0.086907
 Sum of Mulliken charges =   0.00000

 Dipole moment (field-independent basis, Debye):
    X=              0.0161    Y=             -0.0102    Z=              0.0299  Tot=              0.0355
 Quadrupole moment (field-independent basis, Debye-Ang):
   XX=            -23.3424   YY=            -23.1907   ZZ=            -29.2606
   XY=              0.2444   XZ=              0.2406   YZ=             -0.0555

 1\1\GINC-NODE14\SP\RB2PLYPD3-FC\def2QZVP\C4H6\BOITTIER\26-Aug-2020\0\\
 #p B2PLYPD3/Def2QZVP\\butadiene\\0,1\C,0,-3.838573,0.233307,0.002863\C
 ,0,-2.717898,-0.502028,0.065139\C,0,-1.393672,0.04946,0.027453\C,0,-0.
 255808,-0.648871,0.010514\H,0,-4.849329,-0.212371,0.016627\H,0,-3.8127
 57,1.304578,-0.111364\H,0,-2.794339,-1.587791,0.084613\H,0,-1.335438,1
 .154078,0.044935\H,0,-0.230494,-1.717744,-0.010229\H,0,0.680598,-0.146
 306,0.059298\\Version=ES64L-G09RevD.01\State=1-A\HF=-155.699599\MP2=-1
 55.9255241\RMSD=4.318e-09\PG=C01 [X(C4H6)]\\@

 Normal termination of Gaussian 09 at Wed Aug 26 16:34:15 2020.
