 Gaussian 09, Revision D.01,
 Gaussian 09:  ES64L-G09RevD.01 24-Apr-2013

 --------------------
 #p B2PLYPD3/Def2QZVP
 --------------------

 ---------
 butadiene
 ---------
 Symbolic Z-matrix:
 Charge =  0 Multiplicity = 1

                         Standard orientation:
 ---------------------------------------------------------------------
 Center     Atomic      Atomic             Coordinates (Angstroms)
 Number     Number       Type             X           Y           Z
 ---------------------------------------------------------------------
      1          6           0       -1.843610    0.107880   -0.029461
      2          6           0       -0.595908   -0.401481    0.023336
      3          6           0        0.611620    0.416769    0.006641
      4          6           0        1.834626   -0.118951   -0.017113
      5          1           0       -2.689207   -0.560304    0.025436
      6          1           0       -2.041102    1.181159   -0.044995
      7          1           0       -0.448562   -1.472877    0.085708
      8          1           0        0.474825    1.511300    0.094670
      9          1           0        1.945523   -1.196468   -0.075140
     10          1           0        2.718159    0.511885    0.013908
 ---------------------------------------------------------------------

 SCF Done:  E(RB2PLYPD3) =  -155.699733106     A.U. after   11 cycles
 E2(B2PLYPD3) =    -0.2262221470D+00 E(B2PLYPD3) =    -0.15592595525331D+03

 The electronic state is 1-A.
 Alpha  occ. eigenvalues --  -10.62758 -10.62700 -10.61725 -10.61600  -0.92790
 Alpha  occ. eigenvalues --   -0.84671  -0.69908  -0.63878  -0.54275  -0.53840
 Alpha  occ. eigenvalues --   -0.46391  -0.45768  -0.41252  -0.37885  -0.27577
 Alpha virt. eigenvalues --    0.01691   0.07043   0.07298   0.08020   0.09410
 Alpha virt. eigenvalues --    0.11706   0.12333   0.14705   0.15812   0.16027
 Alpha virt. eigenvalues --    0.18736   0.20392   0.21436   0.22827   0.23940

 Mulliken charges:
               1
     1  C   -0.178264
     2  C   -0.036118
     3  C   -0.025733
     4  C   -0.178582
     5  H    0.084722
     6  H    0.068809
     7  H    0.055958
     8  H    0.054259
     9  H    0.067036
    10  H    0.087913
 Sum of Mulliken charges =   0.00000

 Dipole moment (field-independent basis, Debye):
    X=              0.0246    Y=             -0.0001    Z=              0.1084  Tot=              0.1112
 Quadrupole moment (field-independent basis, Debye-Ang):
   XX=            -23.7180   YY=            -22.9751   ZZ=            -29.3635
   XY=             -0.1543   XZ=             -0.0734   YZ=              0.0476

 1\1\GINC-NODE19\SP\RB2PLYPD3-FC\def2QZVP\C4H6\BOITTIER\26-Aug-2020\0\\
 #p B2PLYPD3/Def2QZVP\\butadiene\\0,1\C,0,-3.846956,0.222918,-0.007008\
 C,0,-2.711518,-0.501878,0.059679\C,0,-1.376194,0.0843,0.024457\C,0,-0.
 270051,-0.66381,0.01523\H,0,-4.799085,-0.280115,0.063172\H,0,-3.847533
 ,1.31352,-0.048957\H,0,-2.75977,-1.580442,0.148347\H,0,-1.3129,1.18734
 8,0.085594\H,0,-0.355649,-1.744728,-0.016359\H,0,0.712928,-0.202269,0.
 031899\\Version=ES64L-G09RevD.01\State=1-A\HF=-155.6997331\MP2=-155.92
 59553\RMSD=4.893e-09\PG=C01 [X(C4H6)]\\@

 Normal termination of Gaussian 09 at Wed Aug 26 21:43:53 2020.
