 Gaussian 09, Revision D.01,
 Gaussian 09:  ES64L-G09RevD.01 24-Apr-2013

 --------------------
 #p B2PLYPD3/Def2QZVP
 --------------------

 ---------
 butadiene
 ---------
 Symbolic Z-matrix:
 Charge =  0 Multiplicity = 1

                         Standard orientation:
 ---------------------------------------------------------------------
 Center     Atomic      Atomic             Coordinates (Angstroms)
 Number     Number       Type             X           Y           Z
 ---------------------------------------------------------------------
      1          6           0        1.861855    0.098827    0.005932
      2          6           0        0.616458   -0.365213   -0.103777
      3          6           0       -0.607446    0.442399   -0.053500
      4          6           0       -1.852302   -0.122180    0.034909
      5          1           0        2.510605   -0.711615    0.234191
      6          1           0        2.226703    1.086430    0.163939
      7          1           0        0.430888   -1.449946    0.115951
      8          1           0       -0.510501    1.589246    0.010212
      9          1           0       -1.978723   -1.270262   -0.000944
     10          1           0       -2.790359    0.433156    0.175267
 ---------------------------------------------------------------------

 SCF Done:  E(RB2PLYPD3) =  -155.678865904     A.U. after   11 cycles
 E2(B2PLYPD3) =    -0.2281421751D+00 E(B2PLYPD3) =    -0.15590700807916D+03

 The electronic state is 1-A.
 Alpha  occ. eigenvalues --  -10.63991 -10.63261 -10.63146 -10.61236  -0.92385
 Alpha  occ. eigenvalues --   -0.84531  -0.69945  -0.62839  -0.54080  -0.53627
 Alpha  occ. eigenvalues --   -0.46432  -0.44684  -0.40363  -0.37665  -0.27603
 Alpha virt. eigenvalues --    0.01149   0.06837   0.07127   0.07844   0.08963
 Alpha virt. eigenvalues --    0.11256   0.12430   0.14783   0.15452   0.16232
 Alpha virt. eigenvalues --    0.18860   0.19760   0.21588   0.22341   0.24440

 Mulliken charges:
               1
     1  C   -0.166639
     2  C   -0.013195
     3  C   -0.047297
     4  C   -0.168625
     5  H    0.071113
     6  H    0.076931
     7  H    0.051595
     8  H    0.052293
     9  H    0.055162
    10  H    0.088663
 Sum of Mulliken charges =   0.00000

 Dipole moment (field-independent basis, Debye):
    X=             -0.0394    Y=              0.0583    Z=              0.5250  Tot=              0.5297
 Quadrupole moment (field-independent basis, Debye-Ang):
   XX=            -23.8416   YY=            -23.1581   ZZ=            -29.4290
   XY=              0.4970   XZ=              0.5461   YZ=             -0.0666

 1\1\GINC-NODE28\SP\RB2PLYPD3-FC\def2QZVP\C4H6\BOITTIER\26-Aug-2020\0\\
 #p B2PLYPD3/Def2QZVP\\butadiene\\0,1\C,0,-3.863236,0.217748,-0.006953\
 C,0,-2.724423,-0.46526,0.115469\C,0,-1.373036,0.103709,0.063188\C,0,-0
 .252445,-0.680481,-0.011339\H,0,-4.648698,-0.462848,-0.229738\H,0,-4.0
 40273,1.253454,-0.178455\H,0,-2.74002,-1.568265,-0.090682\H,0,-1.25787
 2,1.248023,-0.014264\H,0,-0.338755,-1.831755,0.038445\H,0,0.772032,-0.
 308229,-0.152493\\Version=ES64L-G09RevD.01\State=1-A\HF=-155.6788659\M
 P2=-155.9070081\RMSD=7.093e-09\PG=C01 [X(C4H6)]\\@

 Normal termination of Gaussian 09 at Wed Aug 26 12:00:29 2020.
