 Gaussian 09, Revision D.01,
 Gaussian 09:  ES64L-G09RevD.01 24-Apr-2013

 --------------------
 #p B2PLYPD3/Def2QZVP
 --------------------

 ---------
 butadiene
 ---------
 Symbolic Z-matrix:
 Charge =  0 Multiplicity = 1

                         Standard orientation:
 ---------------------------------------------------------------------
 Center     Atomic      Atomic             Coordinates (Angstroms)
 Number     Number       Type             X           Y           Z
 ---------------------------------------------------------------------
      1          6           0        1.831279   -0.126735   -0.044504
      2          6           0        0.614168    0.415204    0.050560
      3          6           0       -0.585669   -0.373079    0.022170
      4          6           0       -1.836004    0.096060   -0.017542
      5          1           0        2.720426    0.474010   -0.005879
      6          1           0        1.959553   -1.194942   -0.090633
      7          1           0        0.496102    1.497732    0.081000
      8          1           0       -0.568447   -1.438489    0.138644
      9          1           0       -2.076673    1.149903   -0.135767
     10          1           0       -2.673605   -0.556912   -0.051472
 ---------------------------------------------------------------------

 SCF Done:  E(RB2PLYPD3) =  -155.698298344     A.U. after   11 cycles
 E2(B2PLYPD3) =    -0.2256129647D+00 E(B2PLYPD3) =    -0.15592391130850D+03

 The electronic state is 1-A.
 Alpha  occ. eigenvalues --  -10.62611 -10.62110 -10.61470 -10.61132  -0.93240
 Alpha  occ. eigenvalues --   -0.85077  -0.70451  -0.64187  -0.54776  -0.54420
 Alpha  occ. eigenvalues --   -0.46612  -0.45302  -0.41466  -0.38192  -0.27599
 Alpha virt. eigenvalues --    0.01598   0.07066   0.07548   0.07961   0.09701
 Alpha virt. eigenvalues --    0.11620   0.12478   0.14811   0.15727   0.16480
 Alpha virt. eigenvalues --    0.18816   0.19974   0.22012   0.22240   0.24182

 Mulliken charges:
               1
     1  C   -0.167527
     2  C   -0.042384
     3  C   -0.022984
     4  C   -0.177036
     5  H    0.085023
     6  H    0.068776
     7  H    0.060558
     8  H    0.056546
     9  H    0.058690
    10  H    0.080337
 Sum of Mulliken charges =   0.00000

 Dipole moment (field-independent basis, Debye):
    X=              0.0415    Y=             -0.0139    Z=             -0.0130  Tot=              0.0457
 Quadrupole moment (field-independent basis, Debye-Ang):
   XX=            -23.3975   YY=            -23.1279   ZZ=            -29.1598
   XY=              0.0098   XZ=              0.1825   YZ=             -0.0914

 1\1\GINC-NODE20\SP\RB2PLYPD3-FC\def2QZVP\C4H6\BOITTIER\26-Aug-2020\0\\
 #p B2PLYPD3/Def2QZVP\\butadiene\\0,1\C,0,-3.828459,0.23615,-0.023156\C
 ,0,-2.727207,-0.511929,0.085087\C,0,-1.406077,0.048538,0.037148\C,0,-0
 .259749,-0.637128,0.008859\H,0,-4.810371,-0.195073,0.030358\H,0,-3.764
 215,1.30866,-0.095569\H,0,-2.804121,-1.597083,0.142169\H,0,-1.232332,1
 .102406,0.127345\H,0,-0.211581,-1.719557,-0.083399\H,0,0.680789,-0.145
 216,-0.041242\\Version=ES64L-G09RevD.01\State=1-A\HF=-155.6982983\MP2=
 -155.9239113\RMSD=6.032e-09\PG=C01 [X(C4H6)]\\@

 Normal termination of Gaussian 09 at Wed Aug 26 09:46:57 2020.
