 Gaussian 09, Revision D.01,
 Gaussian 09:  ES64L-G09RevD.01 24-Apr-2013

 --------------------
 #p B2PLYPD3/Def2QZVP
 --------------------

 ---------
 butadiene
 ---------
 Symbolic Z-matrix:
 Charge =  0 Multiplicity = 1

                         Standard orientation:
 ---------------------------------------------------------------------
 Center     Atomic      Atomic             Coordinates (Angstroms)
 Number     Number       Type             X           Y           Z
 ---------------------------------------------------------------------
      1          6           0       -1.836779    0.114356   -0.011537
      2          6           0       -0.606269   -0.423828    0.010760
      3          6           0        0.601629    0.394800    0.012483
      4          6           0        1.839648   -0.100383   -0.019118
      5          1           0       -2.731791   -0.471845    0.017275
      6          1           0       -1.957920    1.188446   -0.045747
      7          1           0       -0.431499   -1.482177    0.053327
      8          1           0        0.440941    1.474871    0.017506
      9          1           0        1.992188   -1.160401   -0.063924
     10          1           0        2.698706    0.541435    0.066040
 ---------------------------------------------------------------------

 SCF Done:  E(RB2PLYPD3) =  -155.700653095     A.U. after   11 cycles
 E2(B2PLYPD3) =    -0.2257091011D+00 E(B2PLYPD3) =    -0.15592636219587D+03

 The electronic state is 1-A.
 Alpha  occ. eigenvalues --  -10.62614 -10.62469 -10.61586 -10.61245  -0.92942
 Alpha  occ. eigenvalues --   -0.84835  -0.70257  -0.64278  -0.54736  -0.53844
 Alpha  occ. eigenvalues --   -0.46912  -0.45821  -0.41222  -0.37981  -0.27620
 Alpha virt. eigenvalues --    0.01714   0.07041   0.07399   0.08171   0.09464
 Alpha virt. eigenvalues --    0.11722   0.12537   0.14701   0.15810   0.16143
 Alpha virt. eigenvalues --    0.18775   0.20427   0.21726   0.23044   0.23824

 Mulliken charges:
               1
     1  C   -0.174479
     2  C   -0.036604
     3  C   -0.021713
     4  C   -0.181571
     5  H    0.087401
     6  H    0.065294
     7  H    0.057189
     8  H    0.051591
     9  H    0.064715
    10  H    0.088175
 Sum of Mulliken charges =   0.00000

 Dipole moment (field-independent basis, Debye):
    X=             -0.0318    Y=             -0.0090    Z=              0.0568  Tot=              0.0657
 Quadrupole moment (field-independent basis, Debye-Ang):
   XX=            -23.4808   YY=            -23.1112   ZZ=            -29.2621
   XY=             -0.2094   XZ=              0.0939   YZ=              0.0098

 1\1\GINC-NODE16\SP\RB2PLYPD3-FC\def2QZVP\C4H6\BOITTIER\26-Aug-2020\0\\
 #p B2PLYPD3/Def2QZVP\\butadiene\\0,1\C,0,-3.836798,0.23301,0.006226\C,
 0,-2.724831,-0.519375,0.047914\C,0,-1.388037,0.065224,0.027964\C,0,-0.
 261015,-0.647894,0.014499\H,0,-4.823517,-0.179225,0.050467\H,0,-3.7603
 87,1.309667,-0.060747\H,0,-2.745618,-1.590078,0.122901\H,0,-1.349303,1
 .156147,-0.000075\H,0,-0.304228,-1.718826,0.002146\H,0,0.700823,-0.171
 009,0.082402\\Version=ES64L-G09RevD.01\State=1-A\HF=-155.7006531\MP2=-
 155.9263622\RMSD=4.999e-09\PG=C01 [X(C4H6)]\\@

 Normal termination of Gaussian 09 at Wed Aug 26 21:31:00 2020.
