 Gaussian 09, Revision D.01,
 Gaussian 09:  ES64L-G09RevD.01 24-Apr-2013

 --------------------
 #p B2PLYPD3/Def2QZVP
 --------------------

 ---------
 butadiene
 ---------
 Symbolic Z-matrix:
 Charge =  0 Multiplicity = 1

                         Standard orientation:
 ---------------------------------------------------------------------
 Center     Atomic      Atomic             Coordinates (Angstroms)
 Number     Number       Type             X           Y           Z
 ---------------------------------------------------------------------
      1          6           0       -1.862898    0.106431   -0.056997
      2          6           0       -0.601592   -0.386468    0.037909
      3          6           0        0.613568    0.425092    0.037876
      4          6           0        1.838598   -0.134390   -0.029734
      5          1           0       -2.689900   -0.587796    0.020241
      6          1           0       -2.067140    1.132232   -0.024651
      7          1           0       -0.405541   -1.440323    0.078854
      8          1           0        0.542587    1.472107    0.126086
      9          1           0        2.006561   -1.188610   -0.026166
     10          1           0        2.687375    0.548405   -0.108695
 ---------------------------------------------------------------------

 SCF Done:  E(RB2PLYPD3) =  -155.696038346     A.U. after   11 cycles
 E2(B2PLYPD3) =    -0.2261681138D+00 E(B2PLYPD3) =    -0.15592220645945D+03

 The electronic state is 1-A.
 Alpha  occ. eigenvalues --  -10.62757 -10.62366 -10.61696 -10.61380  -0.92692
 Alpha  occ. eigenvalues --   -0.84618  -0.70373  -0.64815  -0.54511  -0.53836
 Alpha  occ. eigenvalues --   -0.46809  -0.46185  -0.41577  -0.37553  -0.27371
 Alpha virt. eigenvalues --    0.01385   0.06968   0.07580   0.08076   0.09337
 Alpha virt. eigenvalues --    0.11760   0.12357   0.14940   0.15674   0.16194
 Alpha virt. eigenvalues --    0.18782   0.20092   0.21757   0.23087   0.23950

 Mulliken charges:
               1
     1  C   -0.178625
     2  C   -0.039951
     3  C   -0.033536
     4  C   -0.180315
     5  H    0.082136
     6  H    0.073096
     7  H    0.059109
     8  H    0.064037
     9  H    0.073331
    10  H    0.080716
 Sum of Mulliken charges =   0.00000

 Dipole moment (field-independent basis, Debye):
    X=              0.0860    Y=              0.0257    Z=              0.1190  Tot=              0.1490
 Quadrupole moment (field-independent basis, Debye-Ang):
   XX=            -23.8306   YY=            -22.8594   ZZ=            -29.3181
   XY=             -0.2756   XZ=             -0.3614   YZ=             -0.0269

 1\1\GINC-NODE16\SP\RB2PLYPD3-FC\def2QZVP\C4H6\BOITTIER\26-Aug-2020\0\\
 #p B2PLYPD3/Def2QZVP\\butadiene\\0,1\C,0,-3.864953,0.221687,-0.031848\
 C,0,-2.712148,-0.487146,0.075143\C,0,-1.371037,0.092652,0.052795\C,0,-
 0.26676,-0.679344,-0.000888\H,0,-4.802732,-0.310456,0.064299\H,0,-3.88
 1511,1.267978,-0.026471\H,0,-2.708286,-1.557658,0.143777\H,0,-1.252388
 ,1.137312,0.113361\H,0,-0.290797,-1.746137,0.030412\H,0,0.690378,-0.16
 24,-0.098471\\Version=ES64L-G09RevD.01\State=1-A\HF=-155.6960383\MP2=-
 155.9222065\RMSD=4.242e-09\PG=C01 [X(C4H6)]\\@

 Normal termination of Gaussian 09 at Wed Aug 26 22:22:07 2020.
