 Gaussian 09, Revision D.01,
 Gaussian 09:  ES64L-G09RevD.01 24-Apr-2013

 --------------------
 #p B2PLYPD3/Def2QZVP
 --------------------

 ---------
 butadiene
 ---------
 Symbolic Z-matrix:
 Charge =  0 Multiplicity = 1

                         Standard orientation:
 ---------------------------------------------------------------------
 Center     Atomic      Atomic             Coordinates (Angstroms)
 Number     Number       Type             X           Y           Z
 ---------------------------------------------------------------------
      1          6           0        1.817597   -0.127641   -0.038661
      2          6           0        0.595739    0.422684    0.006549
      3          6           0       -0.593047   -0.388561    0.037190
      4          6           0       -1.832931    0.095622   -0.031591
      5          1           0        2.698967    0.536996    0.041364
      6          1           0        1.938922   -1.249144   -0.077631
      7          1           0        0.528207    1.526144    0.158658
      8          1           0       -0.422108   -1.443042    0.132663
      9          1           0       -2.018257    1.173200   -0.095209
     10          1           0       -2.649874   -0.556776   -0.000770
 ---------------------------------------------------------------------

 SCF Done:  E(RB2PLYPD3) =  -155.695297119     A.U. after   11 cycles
 E2(B2PLYPD3) =    -0.2262891706D+00 E(B2PLYPD3) =    -0.15592158628966D+03

 The electronic state is 1-A.
 Alpha  occ. eigenvalues --  -10.62661 -10.62254 -10.62174 -10.61117  -0.93194
 Alpha  occ. eigenvalues --   -0.84765  -0.69885  -0.63618  -0.54360  -0.53892
 Alpha  occ. eigenvalues --   -0.46157  -0.45436  -0.41466  -0.38000  -0.27571
 Alpha virt. eigenvalues --    0.01744   0.07088   0.07185   0.07932   0.09533
 Alpha virt. eigenvalues --    0.11731   0.12239   0.14685   0.15671   0.16078
 Alpha virt. eigenvalues --    0.18652   0.20217   0.21246   0.22699   0.24167

 Mulliken charges:
               1
     1  C   -0.179332
     2  C   -0.025416
     3  C   -0.032793
     4  C   -0.178092
     5  H    0.084010
     6  H    0.064633
     7  H    0.055309
     8  H    0.055560
     9  H    0.067797
    10  H    0.088323
 Sum of Mulliken charges =   0.00000

 Dipole moment (field-independent basis, Debye):
    X=             -0.0034    Y=             -0.0056    Z=              0.1742  Tot=              0.1743
 Quadrupole moment (field-independent basis, Debye-Ang):
   XX=            -23.9305   YY=            -22.9385   ZZ=            -29.2940
   XY=             -0.0112   XZ=              0.2304   YZ=              0.0656

 1\1\GINC-NODE08\SP\RB2PLYPD3-FC\def2QZVP\C4H6\BOITTIER\26-Aug-2020\0\\
 #p B2PLYPD3/Def2QZVP\\butadiene\\0,1\C,0,-3.817665,0.239951,-0.014431\
 C,0,-2.715939,-0.521475,0.050909\C,0,-1.399298,0.060524,0.051461\C,0,-
 0.2686,-0.64332,0.000444\H,0,-4.804612,-0.249902,0.090163\H,0,-3.73334
 1,1.362647,-0.094736\H,0,-2.849107,-1.612554,0.243616\H,0,-1.375026,1.
 131263,0.107986\H,0,-0.282707,-1.738217,-0.023397\H,0,0.653527,-0.1497
 54,0.00708\\Version=ES64L-G09RevD.01\State=1-A\HF=-155.6952971\MP2=-15
 5.9215863\RMSD=4.318e-09\PG=C01 [X(C4H6)]\\@

 Normal termination of Gaussian 09 at Wed Aug 26 09:25:18 2020.
