 Gaussian 09, Revision D.01,
 Gaussian 09:  ES64L-G09RevD.01 24-Apr-2013

 --------------------
 #p B2PLYPD3/Def2QZVP
 --------------------

 ---------
 butadiene
 ---------
 Symbolic Z-matrix:
 Charge =  0 Multiplicity = 1

                         Standard orientation:
 ---------------------------------------------------------------------
 Center     Atomic      Atomic             Coordinates (Angstroms)
 Number     Number       Type             X           Y           Z
 ---------------------------------------------------------------------
      1          6           0        1.846019    0.097517    0.016824
      2          6           0        0.597342   -0.382903   -0.012042
      3          6           0       -0.602939    0.407030   -0.026284
      4          6           0       -1.848557   -0.108347   -0.006896
      5          1           0        2.668063   -0.603512   -0.028398
      6          1           0        2.102729    1.181507   -0.025106
      7          1           0        0.522528   -1.447856    0.101605
      8          1           0       -0.429422    1.482757    0.054260
      9          1           0       -2.057770   -1.183396   -0.040617
     10          1           0       -2.757327    0.490714    0.108644
 ---------------------------------------------------------------------

 SCF Done:  E(RB2PLYPD3) =  -155.696378496     A.U. after   11 cycles
 E2(B2PLYPD3) =    -0.2264606992D+00 E(B2PLYPD3) =    -0.15592283919503D+03

 The electronic state is 1-A.
 Alpha  occ. eigenvalues --  -10.62921 -10.62281 -10.62190 -10.61852  -0.93021
 Alpha  occ. eigenvalues --   -0.84626  -0.70381  -0.63890  -0.54688  -0.53572
 Alpha  occ. eigenvalues --   -0.46664  -0.45161  -0.41142  -0.38072  -0.27506
 Alpha virt. eigenvalues --    0.01295   0.06995   0.07391   0.07980   0.09597
 Alpha virt. eigenvalues --    0.11544   0.12359   0.14740   0.15689   0.16205
 Alpha virt. eigenvalues --    0.18909   0.19943   0.21874   0.22575   0.23748

 Mulliken charges:
               1
     1  C   -0.176286
     2  C   -0.025299
     3  C   -0.038222
     4  C   -0.169343
     5  H    0.082153
     6  H    0.062850
     7  H    0.057795
     8  H    0.058846
     9  H    0.065319
    10  H    0.082187
 Sum of Mulliken charges =   0.00000

 Dipole moment (field-independent basis, Debye):
    X=             -0.0256    Y=             -0.0394    Z=              0.1210  Tot=              0.1298
 Quadrupole moment (field-independent basis, Debye-Ang):
   XX=            -23.3695   YY=            -23.2100   ZZ=            -29.3293
   XY=              0.2899   XZ=             -0.3752   YZ=              0.0576

 1\1\GINC-NODE03\SP\RB2PLYPD3-FC\def2QZVP\C4H6\BOITTIER\26-Aug-2020\0\\
 #p B2PLYPD3/Def2QZVP\\butadiene\\0,1\C,0,-3.850059,0.218492,0.003\C,0,
 -2.710748,-0.482218,0.045508\C,0,-1.385695,0.073643,0.034332\C,0,-0.25
 613,-0.662302,0.029689\H,0,-4.786597,-0.317771,0.07053\H,0,-3.902951,1
 .331963,0.011769\H,0,-2.833623,-1.545703,-0.035365\H,0,-1.359133,1.160
 015,-0.079135\H,0,-0.247787,-1.75598,0.096302\H,0,0.746461,-0.244283,-
 0.105066\\Version=ES64L-G09RevD.01\State=1-A\HF=-155.6963785\MP2=-155.
 9228392\RMSD=5.140e-09\PG=C01 [X(C4H6)]\\@

 Normal termination of Gaussian 09 at Wed Aug 26 08:59:19 2020.
