 Gaussian 09, Revision D.01,
 Gaussian 09:  ES64L-G09RevD.01 24-Apr-2013

 --------------------
 #p B2PLYPD3/Def2QZVP
 --------------------

 ---------
 butadiene
 ---------
 Symbolic Z-matrix:
 Charge =  0 Multiplicity = 1

                         Standard orientation:
 ---------------------------------------------------------------------
 Center     Atomic      Atomic             Coordinates (Angstroms)
 Number     Number       Type             X           Y           Z
 ---------------------------------------------------------------------
      1          6           0        1.848727    0.107117    0.001358
      2          6           0        0.611339   -0.418424   -0.029130
      3          6           0       -0.603681    0.401014   -0.041851
      4          6           0       -1.838646   -0.099966    0.013002
      5          1           0        2.753069   -0.512938    0.066349
      6          1           0        1.938034    1.198524    0.108980
      7          1           0        0.395423   -1.425450    0.066551
      8          1           0       -0.448804    1.462060   -0.029271
      9          1           0       -2.032967   -1.158331   -0.007430
     10          1           0       -2.711188    0.497693    0.134552
 ---------------------------------------------------------------------

 SCF Done:  E(RB2PLYPD3) =  -155.695744191     A.U. after   11 cycles
 E2(B2PLYPD3) =    -0.2257867020D+00 E(B2PLYPD3) =    -0.15592153089326D+03

 The electronic state is 1-A.
 Alpha  occ. eigenvalues --  -10.62409 -10.62277 -10.62116 -10.61273  -0.92976
 Alpha  occ. eigenvalues --   -0.84753  -0.70295  -0.64869  -0.54865  -0.53471
 Alpha  occ. eigenvalues --   -0.47298  -0.45779  -0.41088  -0.37859  -0.27652
 Alpha virt. eigenvalues --    0.01615   0.07000   0.07454   0.08272   0.09322
 Alpha virt. eigenvalues --    0.11719   0.12588   0.14593   0.15658   0.16264
 Alpha virt. eigenvalues --    0.18824   0.20311   0.21771   0.23198   0.23772

 Mulliken charges:
               1
     1  C   -0.171796
     2  C   -0.040300
     3  C   -0.023828
     4  C   -0.178071
     5  H    0.086525
     6  H    0.064590
     7  H    0.063513
     8  H    0.054460
     9  H    0.060848
    10  H    0.084058
 Sum of Mulliken charges =   0.00000

 Dipole moment (field-independent basis, Debye):
    X=             -0.0536    Y=             -0.0363    Z=              0.2653  Tot=              0.2731
 Quadrupole moment (field-independent basis, Debye-Ang):
   XX=            -23.4124   YY=            -23.2435   ZZ=            -29.2185
   XY=              0.2323   XZ=              0.0617   YZ=              0.0870

 1\1\GINC-NODE08\SP\RB2PLYPD3-FC\def2QZVP\C4H6\BOITTIER\26-Aug-2020\0\\
 #p B2PLYPD3/Def2QZVP\\butadiene\\0,1\C,0,-3.847785,0.228788,0.008511\C
 ,0,-2.727235,-0.512837,0.059629\C,0,-1.382841,0.07059,0.048186\C,0,-0.
 260488,-0.64929,0.013188\H,0,-4.850473,-0.217269,-0.038126\H,0,-3.7364
 31,1.313943,-0.135592\H,0,-2.699413,-1.544976,-0.001942\H,0,-1.341163,
 1.141056,-0.000085\H,0,-0.262869,-1.724073,0.069317\H,0,0.706176,-0.22
 5613,-0.125949\\Version=ES64L-G09RevD.01\State=1-A\HF=-155.6957442\MP2
 =-155.9215309\RMSD=5.525e-09\PG=C01 [X(C4H6)]\\@

 Normal termination of Gaussian 09 at Wed Aug 26 09:30:47 2020.
