 Gaussian 09, Revision D.01,
 Gaussian 09:  ES64L-G09RevD.01 24-Apr-2013

 --------------------
 #p B2PLYPD3/Def2QZVP
 --------------------

 ---------
 butadiene
 ---------
 Symbolic Z-matrix:
 Charge =  0 Multiplicity = 1

                         Standard orientation:
 ---------------------------------------------------------------------
 Center     Atomic      Atomic             Coordinates (Angstroms)
 Number     Number       Type             X           Y           Z
 ---------------------------------------------------------------------
      1          6           0        1.814295   -0.124657   -0.068834
      2          6           0        0.600216    0.472647    0.061466
      3          6           0       -0.603474   -0.396881    0.014084
      4          6           0       -1.826755    0.105608   -0.053319
      5          1           0        2.754729    0.380852    0.034276
      6          1           0        1.808444   -1.300551   -0.074033
      7          1           0        0.486534    1.589065    0.149363
      8          1           0       -0.353133   -1.438139    0.207877
      9          1           0       -2.076049    1.065293   -0.135310
     10          1           0       -2.526214   -0.636824    0.097442
 ---------------------------------------------------------------------

 SCF Done:  E(RB2PLYPD3) =  -155.676363736     A.U. after   11 cycles
 E2(B2PLYPD3) =    -0.2267862185D+00 E(B2PLYPD3) =    -0.15590314995503D+03

 The electronic state is 1-A.
 Alpha  occ. eigenvalues --  -10.63336 -10.62591 -10.62551 -10.59717  -0.92727
 Alpha  occ. eigenvalues --   -0.84860  -0.69835  -0.63956  -0.54839  -0.54071
 Alpha  occ. eigenvalues --   -0.47279  -0.44897  -0.40685  -0.37373  -0.27718
 Alpha virt. eigenvalues --    0.01909   0.06916   0.07237   0.08062   0.09040
 Alpha virt. eigenvalues --    0.11746   0.12414   0.14642   0.15506   0.16241
 Alpha virt. eigenvalues --    0.18592   0.19991   0.21329   0.22780   0.24430

 Mulliken charges:
               1
     1  C   -0.162482
     2  C   -0.052302
     3  C   -0.012878
     4  C   -0.185706
     5  H    0.088165
     6  H    0.045260
     7  H    0.057510
     8  H    0.061568
     9  H    0.081686
    10  H    0.079179
 Sum of Mulliken charges =   0.00000

 Dipole moment (field-independent basis, Debye):
    X=             -0.0212    Y=              0.1008    Z=              0.3035  Tot=              0.3205
 Quadrupole moment (field-independent basis, Debye-Ang):
   XX=            -24.1232   YY=            -22.8576   ZZ=            -29.2670
   XY=             -0.3321   XZ=              0.0076   YZ=             -0.2400

 1\1\GINC-NODE12\SP\RB2PLYPD3-FC\def2QZVP\C4H6\BOITTIER\26-Aug-2020\0\\
 #p B2PLYPD3/Def2QZVP\\butadiene\\0,1\C,0,-3.813095,0.246085,-0.042759\
 C,0,-2.729495,-0.561551,0.103087\C,0,-1.386319,0.069826,0.036485\C,0,-
 0.276838,-0.650996,-0.017555\H,0,-4.830252,-0.074831,0.071224\H,0,-3.5
 90626,1.400295,-0.075851\H,0,-2.823251,-1.677409,0.217581\H,0,-1.43982
 3,1.143655,0.205226\H,0,-0.208967,-1.641849,-0.076463\H,0,0.547963,-0.
 046888,0.116359\\Version=ES64L-G09RevD.01\State=1-A\HF=-155.6763637\MP
 2=-155.90315\RMSD=9.068e-09\PG=C01 [X(C4H6)]\\@

 Normal termination of Gaussian 09 at Wed Aug 26 13:58:15 2020.
