 Gaussian 09, Revision D.01,
 Gaussian 09:  ES64L-G09RevD.01 24-Apr-2013

 --------------------
 #p B2PLYPD3/Def2QZVP
 --------------------

 ---------
 butadiene
 ---------
 Symbolic Z-matrix:
 Charge =  0 Multiplicity = 1

                         Standard orientation:
 ---------------------------------------------------------------------
 Center     Atomic      Atomic             Coordinates (Angstroms)
 Number     Number       Type             X           Y           Z
 ---------------------------------------------------------------------
      1          6           0        1.829416    0.064291    0.089838
      2          6           0        0.602621   -0.348673   -0.061359
      3          6           0       -0.626818    0.450136   -0.069063
      4          6           0       -1.825809   -0.166160    0.042688
      5          1           0        2.777799   -0.488203    0.027495
      6          1           0        1.877817    1.160295   -0.050100
      7          1           0        0.437423   -1.379693   -0.127106
      8          1           0       -0.475057    1.468723   -0.060714
      9          1           0       -1.785906   -1.245012    0.025861
     10          1           0       -2.708537    0.486331    0.171938
 ---------------------------------------------------------------------

 SCF Done:  E(RB2PLYPD3) =  -155.683285756     A.U. after   11 cycles
 E2(B2PLYPD3) =    -0.2260590572D+00 E(B2PLYPD3) =    -0.15590934481368D+03

 The electronic state is 1-A.
 Alpha  occ. eigenvalues --  -10.62400 -10.62286 -10.61513 -10.61115  -0.93499
 Alpha  occ. eigenvalues --   -0.85234  -0.69634  -0.65188  -0.54545  -0.53917
 Alpha  occ. eigenvalues --   -0.47321  -0.45376  -0.40690  -0.37918  -0.27983
 Alpha virt. eigenvalues --    0.01818   0.06992   0.07563   0.08119   0.09437
 Alpha virt. eigenvalues --    0.11694   0.12666   0.14369   0.15775   0.16056
 Alpha virt. eigenvalues --    0.18658   0.19550   0.21389   0.23852   0.24072

 Mulliken charges:
               1
     1  C   -0.170542
     2  C   -0.009278
     3  C   -0.048255
     4  C   -0.175355
     5  H    0.085821
     6  H    0.039956
     7  H    0.045073
     8  H    0.062024
     9  H    0.078265
    10  H    0.092292
 Sum of Mulliken charges =   0.00000

 Dipole moment (field-independent basis, Debye):
    X=             -0.0964    Y=             -0.0041    Z=             -0.1026  Tot=              0.1409
 Quadrupole moment (field-independent basis, Debye-Ang):
   XX=            -23.7566   YY=            -23.3161   ZZ=            -29.1417
   XY=             -0.4594   XZ=             -0.6707   YZ=              0.0287

 1\1\GINC-NODE40\SP\RB2PLYPD3-FC\def2QZVP\C4H6\BOITTIER\26-Aug-2020\0\\
 #p B2PLYPD3/Def2QZVP\\butadiene\\0,1\C,0,-3.846281,0.164353,-0.059923\
 C,0,-2.708506,-0.451849,0.095605\C,0,-1.359352,0.12201,0.083604\C,0,-0
 .285863,-0.694599,-0.01964\H,0,-4.875542,-0.214291,0.016342\H,0,-3.703
 363,1.254642,0.058381\H,0,-2.723805,-1.49446,0.181289\H,0,-1.332596,1.
 151143,0.055511\H,0,-0.51176,-1.749728,0.018725\H,0,0.695605,-0.20739,
 -0.164578\\Version=ES64L-G09RevD.01\State=1-A\HF=-155.6832858\MP2=-155
 .9093448\RMSD=8.916e-09\PG=C01 [X(C4H6)]\\@

 Normal termination of Gaussian 09 at Wed Aug 26 13:10:50 2020.
