 Gaussian 09, Revision D.01,
 Gaussian 09:  ES64L-G09RevD.01 24-Apr-2013

 --------------------
 #p B2PLYPD3/Def2QZVP
 --------------------

 ---------
 butadiene
 ---------
 Symbolic Z-matrix:
 Charge =  0 Multiplicity = 1

                         Standard orientation:
 ---------------------------------------------------------------------
 Center     Atomic      Atomic             Coordinates (Angstroms)
 Number     Number       Type             X           Y           Z
 ---------------------------------------------------------------------
      1          6           0       -1.849280    0.107646    0.008333
      2          6           0       -0.611959   -0.396757   -0.016212
      3          6           0        0.611411    0.417047   -0.010049
      4          6           0        1.843347   -0.109793   -0.002749
      5          1           0       -2.679897   -0.576881    0.031120
      6          1           0       -2.054465    1.175501   -0.020672
      7          1           0       -0.445205   -1.461634    0.020781
      8          1           0        0.487729    1.473134    0.039852
      9          1           0        1.988679   -1.185750    0.019034
     10          1           0        2.742044    0.466774    0.033951
 ---------------------------------------------------------------------

 SCF Done:  E(RB2PLYPD3) =  -155.700496998     A.U. after   11 cycles
 E2(B2PLYPD3) =    -0.2255937833D+00 E(B2PLYPD3) =    -0.15592609078109D+03

 The electronic state is 1-A.
 Alpha  occ. eigenvalues --  -10.62594 -10.62472 -10.61553 -10.61483  -0.92739
 Alpha  occ. eigenvalues --   -0.84880  -0.70176  -0.64370  -0.54662  -0.53867
 Alpha  occ. eigenvalues --   -0.46913  -0.45776  -0.41109  -0.37867  -0.27725
 Alpha virt. eigenvalues --    0.01770   0.07013   0.07450   0.08171   0.09447
 Alpha virt. eigenvalues --    0.11671   0.12439   0.14698   0.15908   0.16108
 Alpha virt. eigenvalues --    0.18848   0.20533   0.21600   0.23022   0.23770

 Mulliken charges:
               1
     1  C   -0.178447
     2  C   -0.033562
     3  C   -0.034511
     4  C   -0.172358
     5  H    0.085514
     6  H    0.071426
     7  H    0.057369
     8  H    0.059363
     9  H    0.059854
    10  H    0.085352
 Sum of Mulliken charges =   0.00000

 Dipole moment (field-independent basis, Debye):
    X=              0.0271    Y=              0.0085    Z=              0.0940  Tot=              0.0982
 Quadrupole moment (field-independent basis, Debye-Ang):
   XX=            -23.4307   YY=            -23.0636   ZZ=            -29.2841
   XY=             -0.2324   XZ=              0.1092   YZ=             -0.0319

 1\1\GINC-NODE13\SP\RB2PLYPD3-FC\def2QZVP\C4H6\BOITTIER\26-Aug-2020\0\\
 #p B2PLYPD3/Def2QZVP\\butadiene\\0,1\C,0,-3.851103,0.22311,0.027178\C,
 0,-2.725258,-0.496915,0.021994\C,0,-1.375053,0.082426,0.005876\C,0,-0.
 258462,-0.657679,0.033213\H,0,-4.791585,-0.29914,0.069244\H,0,-3.86020
 9,1.309007,-0.036071\H,0,-2.75339,-1.572694,0.093027\H,0,-1.305887,1.1
 44528,0.02209\H,0,-0.309709,-1.740962,0.089334\H,0,0.729667,-0.251976,
 0.0542\\Version=ES64L-G09RevD.01\State=1-A\HF=-155.700497\MP2=-155.926
 0908\RMSD=2.260e-09\PG=C01 [X(C4H6)]\\@

 Normal termination of Gaussian 09 at Wed Aug 26 21:29:47 2020.
