 Gaussian 09, Revision D.01,
 Gaussian 09:  ES64L-G09RevD.01 24-Apr-2013

 --------------------
 #p B2PLYPD3/Def2QZVP
 --------------------

 ---------
 butadiene
 ---------
 Symbolic Z-matrix:
 Charge =  0 Multiplicity = 1

                         Standard orientation:
 ---------------------------------------------------------------------
 Center     Atomic      Atomic             Coordinates (Angstroms)
 Number     Number       Type             X           Y           Z
 ---------------------------------------------------------------------
      1          6           0       -1.835730    0.135710   -0.059326
      2          6           0       -0.635721   -0.419352    0.072108
      3          6           0        0.584789    0.316679    0.001485
      4          6           0        1.839280   -0.089523   -0.087615
      5          1           0       -2.765217   -0.386893    0.012324
      6          1           0       -1.877068    1.170050   -0.195610
      7          1           0       -0.502272   -1.484986    0.214324
      8          1           0        0.546144    1.463279    0.367138
      9          1           0        2.213194   -1.054911   -0.099589
     10          1           0        2.669516    0.632374    0.141504
 ---------------------------------------------------------------------

 SCF Done:  E(RB2PLYPD3) =  -155.678168760     A.U. after   12 cycles
 E2(B2PLYPD3) =    -0.2262316582D+00 E(B2PLYPD3) =    -0.15590440041859D+03

 The electronic state is 1-A.
 Alpha  occ. eigenvalues --  -10.63257 -10.62528 -10.61273 -10.61224  -0.93411
 Alpha  occ. eigenvalues --   -0.85421  -0.71137  -0.63340  -0.55682  -0.53585
 Alpha  occ. eigenvalues --   -0.47337  -0.45426  -0.40284  -0.37023  -0.28182
 Alpha virt. eigenvalues --    0.01334   0.06737   0.07259   0.07803   0.09805
 Alpha virt. eigenvalues --    0.11402   0.12614   0.14900   0.15436   0.16355
 Alpha virt. eigenvalues --    0.19100   0.19537   0.21777   0.21976   0.24010

 Mulliken charges:
               1
     1  C   -0.156981
     2  C   -0.051016
     3  C   -0.010294
     4  C   -0.170585
     5  H    0.089729
     6  H    0.070531
     7  H    0.056940
     8  H    0.043664
     9  H    0.062134
    10  H    0.065875
 Sum of Mulliken charges =   0.00000

 Dipole moment (field-independent basis, Debye):
    X=             -0.1264    Y=             -0.1666    Z=              0.3818  Tot=              0.4353
 Quadrupole moment (field-independent basis, Debye-Ang):
   XX=            -23.0152   YY=            -23.7661   ZZ=            -28.9373
   XY=             -0.3772   XZ=              0.6233   YZ=              0.1418

 1\1\GINC-NODE09\SP\RB2PLYPD3-FC\def2QZVP\C4H6\BOITTIER\26-Aug-2020\0\\
 #p B2PLYPD3/Def2QZVP\\butadiene\\0,1\C,0,-3.828264,0.245665,-0.039031\
 C,0,-2.745217,-0.509175,0.111355\C,0,-1.413911,-0.001281,0.033626\C,0,
 -0.250398,-0.623879,-0.039147\H,0,-4.835493,-0.103423,0.037255\H,0,-3.
 686302,1.268001,-0.196567\H,0,-2.80204,-1.578407,0.276049\H,0,-1.25089
 ,1.141668,0.375649\H,0,-0.052432,-1.640067,-0.029101\H,0,0.693432,-0.0
 5482,0.180581\\Version=ES64L-G09RevD.01\State=1-A\HF=-155.6781688\MP2=
 -155.9044004\RMSD=3.171e-09\PG=C01 [X(C4H6)]\\@

 Normal termination of Gaussian 09 at Wed Aug 26 12:40:17 2020.
