 Gaussian 09, Revision D.01,
 Gaussian 09:  ES64L-G09RevD.01 24-Apr-2013

 --------------------
 #p B2PLYPD3/Def2QZVP
 --------------------

 ---------
 butadiene
 ---------
 Symbolic Z-matrix:
 Charge =  0 Multiplicity = 1

                         Standard orientation:
 ---------------------------------------------------------------------
 Center     Atomic      Atomic             Coordinates (Angstroms)
 Number     Number       Type             X           Y           Z
 ---------------------------------------------------------------------
      1          6           0       -1.847980   -0.139340    0.029297
      2          6           0       -0.605670    0.461632   -0.067969
      3          6           0        0.616004   -0.355443   -0.050535
      4          6           0        1.843909    0.066567    0.084482
      5          1           0       -2.797632    0.406620    0.141992
      6          1           0       -1.957799   -1.231185    0.020027
      7          1           0       -0.333765    1.575533   -0.076764
      8          1           0        0.342182   -1.417736    0.020457
      9          1           0        1.990743    1.125964    0.076760
     10          1           0        2.718694   -0.659692   -0.154126
 ---------------------------------------------------------------------

 SCF Done:  E(RB2PLYPD3) =  -155.677908619     A.U. after   11 cycles
 E2(B2PLYPD3) =    -0.2280873261D+00 E(B2PLYPD3) =    -0.15590599594514D+03

 The electronic state is 1-A.
 Alpha  occ. eigenvalues --  -10.64400 -10.63267 -10.62251 -10.61661  -0.92817
 Alpha  occ. eigenvalues --   -0.84410  -0.69893  -0.63402  -0.53896  -0.52844
 Alpha  occ. eigenvalues --   -0.46863  -0.45439  -0.40087  -0.37727  -0.27739
 Alpha virt. eigenvalues --    0.01040   0.06869   0.07040   0.08019   0.09187
 Alpha virt. eigenvalues --    0.11734   0.12359   0.14501   0.15116   0.16140
 Alpha virt. eigenvalues --    0.18864   0.19172   0.21558   0.23071   0.23493

 Mulliken charges:
               1
     1  C   -0.169898
     2  C   -0.048969
     3  C    0.000745
     4  C   -0.173339
     5  H    0.087729
     6  H    0.069437
     7  H    0.046578
     8  H    0.048443
     9  H    0.056826
    10  H    0.082449
 Sum of Mulliken charges =   0.00000

 Dipole moment (field-independent basis, Debye):
    X=             -0.1809    Y=             -0.0287    Z=             -0.0659  Tot=              0.1947
 Quadrupole moment (field-independent basis, Debye-Ang):
   XX=            -23.7230   YY=            -23.4164   ZZ=            -29.4731
   XY=              0.5550   XZ=             -0.8347   YZ=              0.1505

 1\1\GINC-NODE12\SP\RB2PLYPD3-FC\def2QZVP\C4H6\BOITTIER\26-Aug-2020\0\\
 #p B2PLYPD3/Def2QZVP\\butadiene\\0,1\C,0,-3.84208,0.265578,-0.025103\C
 ,0,-2.732801,-0.551099,0.103349\C,0,-1.380861,0.024562,0.067633\C,0,-0
 .252179,-0.622,-0.0424\H,0,-4.876252,-0.098835,-0.12661\H,0,-3.747712,
 1.358504,-0.054764\H,0,-2.672008,-1.695042,0.153178\H,0,-1.452993,1.11
 5954,-0.042573\H,0,-0.304191,-1.689304,0.00342\H,0,0.741612,-0.062162,
 0.178041\\Version=ES64L-G09RevD.01\State=1-A\HF=-155.6779086\MP2=-155.
 9059959\RMSD=9.549e-09\PG=C01 [X(C4H6)]\\@

 Normal termination of Gaussian 09 at Wed Aug 26 12:30:33 2020.
