 Gaussian 09, Revision D.01,
 Gaussian 09:  ES64L-G09RevD.01 24-Apr-2013

 --------------------
 #p B2PLYPD3/Def2QZVP
 --------------------

 ---------
 butadiene
 ---------
 Symbolic Z-matrix:
 Charge =  0 Multiplicity = 1

                         Standard orientation:
 ---------------------------------------------------------------------
 Center     Atomic      Atomic             Coordinates (Angstroms)
 Number     Number       Type             X           Y           Z
 ---------------------------------------------------------------------
      1          6           0       -1.817685   -0.129135   -0.087089
      2          6           0       -0.600505    0.434559    0.117980
      3          6           0        0.583542   -0.361137    0.065088
      4          6           0        1.837321    0.087680   -0.054616
      5          1           0       -2.904583    0.323699   -0.157883
      6          1           0       -1.731198   -1.212709    0.078881
      7          1           0       -0.446540    1.562905   -0.006943
      8          1           0        0.475059   -1.423683    0.042269
      9          1           0        1.955859    1.177728   -0.063571
     10          1           0        2.635364   -0.619740   -0.140928
 ---------------------------------------------------------------------

 SCF Done:  E(RB2PLYPD3) =  -155.678078624     A.U. after   11 cycles
 E2(B2PLYPD3) =    -0.2282432221D+00 E(B2PLYPD3) =    -0.15590632184562D+03

 The electronic state is 1-A.
 Alpha  occ. eigenvalues --  -10.63618 -10.63327 -10.62095 -10.61416  -0.93517
 Alpha  occ. eigenvalues --   -0.84598  -0.69487  -0.63725  -0.54356  -0.53140
 Alpha  occ. eigenvalues --   -0.46372  -0.44339  -0.41041  -0.38470  -0.27421
 Alpha virt. eigenvalues --    0.01158   0.06994   0.07226   0.07804   0.09243
 Alpha virt. eigenvalues --    0.11508   0.12703   0.14085   0.15381   0.16468
 Alpha virt. eigenvalues --    0.18684   0.19206   0.21282   0.22242   0.25290

 Mulliken charges:
               1
     1  C   -0.161252
     2  C   -0.027875
     3  C   -0.010914
     4  C   -0.189977
     5  H    0.086187
     6  H    0.055429
     7  H    0.045500
     8  H    0.044274
     9  H    0.064718
    10  H    0.093909
 Sum of Mulliken charges =   0.00000

 Dipole moment (field-independent basis, Debye):
    X=             -0.1069    Y=             -0.0729    Z=             -0.1098  Tot=              0.1697
 Quadrupole moment (field-independent basis, Debye-Ang):
   XX=            -23.4850   YY=            -23.5201   ZZ=            -29.4089
   XY=             -0.3369   XZ=             -0.0835   YZ=             -0.2243

 1\1\GINC-NODE14\SP\RB2PLYPD3-FC\def2QZVP\C4H6\BOITTIER\26-Aug-2020\0\\
 #p B2PLYPD3/Def2QZVP\\butadiene\\0,1\C,0,-3.817748,0.239326,0.106877\C
 ,0,-2.72008,-0.537262,-0.075788\C,0,-1.41382,0.037801,-0.046056\C,0,-0
 .258815,-0.621436,0.092145\H,0,-4.967376,-0.011532,0.189609\H,0,-3.541
 503,1.284382,-0.094879\H,0,-2.767708,-1.670252,0.087127\H,0,-1.332609,
 1.102944,-0.058987\H,0,-0.334895,-1.714352,0.137779\H,0,0.652018,-0.06
 3828,0.157114\\Version=ES64L-G09RevD.01\State=1-A\HF=-155.6780786\MP2=
 -155.9063218\RMSD=9.136e-09\PG=C01 [X(C4H6)]\\@

 Normal termination of Gaussian 09 at Wed Aug 26 13:15:15 2020.
