 Gaussian 09, Revision D.01,
 Gaussian 09:  ES64L-G09RevD.01 24-Apr-2013

 --------------------
 #p B2PLYPD3/Def2QZVP
 --------------------

 ---------
 butadiene
 ---------
 Symbolic Z-matrix:
 Charge =  0 Multiplicity = 1

                         Standard orientation:
 ---------------------------------------------------------------------
 Center     Atomic      Atomic             Coordinates (Angstroms)
 Number     Number       Type             X           Y           Z
 ---------------------------------------------------------------------
      1          6           0       -1.846182   -0.113621   -0.005075
      2          6           0       -0.608981    0.410892    0.003009
      3          6           0        0.612624   -0.390861   -0.018682
      4          6           0        1.846516    0.103180    0.009159
      5          1           0       -2.738746    0.494763   -0.016161
      6          1           0       -1.973308   -1.192886    0.089344
      7          1           0       -0.464627    1.492122   -0.032368
      8          1           0        0.423445   -1.464389   -0.003260
      9          1           0        2.018336    1.170299    0.066886
     10          1           0        2.711035   -0.557448   -0.034908
 ---------------------------------------------------------------------

 SCF Done:  E(RB2PLYPD3) =  -155.700200856     A.U. after   11 cycles
 E2(B2PLYPD3) =    -0.2259488863D+00 E(B2PLYPD3) =    -0.15592614974277D+03

 The electronic state is 1-A.
 Alpha  occ. eigenvalues --  -10.62765 -10.62556 -10.61792 -10.61596  -0.92841
 Alpha  occ. eigenvalues --   -0.84844  -0.70103  -0.63917  -0.54565  -0.53661
 Alpha  occ. eigenvalues --   -0.46926  -0.45644  -0.40879  -0.38001  -0.27744
 Alpha virt. eigenvalues --    0.01672   0.07002   0.07354   0.08094   0.09533
 Alpha virt. eigenvalues --    0.11686   0.12402   0.14678   0.15746   0.16125
 Alpha virt. eigenvalues --    0.18792   0.20326   0.21637   0.22957   0.23674

 Mulliken charges:
               1
     1  C   -0.176597
     2  C   -0.030838
     3  C   -0.026522
     4  C   -0.177138
     5  H    0.088298
     6  H    0.063077
     7  H    0.052127
     8  H    0.051743
     9  H    0.067989
    10  H    0.087862
 Sum of Mulliken charges =   0.00000

 Dipole moment (field-independent basis, Debye):
    X=             -0.0065    Y=              0.0128    Z=              0.0582  Tot=              0.0599
 Quadrupole moment (field-independent basis, Debye-Ang):
   XX=            -23.4404   YY=            -23.1808   ZZ=            -29.3136
   XY=              0.1718   XZ=             -0.0686   YZ=             -0.0617

 1\1\GINC-NODE35\SP\RB2PLYPD3-FC\def2QZVP\C4H6\BOITTIER\26-Aug-2020\0\\
 #p B2PLYPD3/Def2QZVP\\butadiene\\0,1\C,0,-3.847829,0.230569,0.020117\C
 ,0,-2.725498,-0.508378,0.033321\C,0,-1.379296,0.060242,0.030336\C,0,-0
 .254799,-0.648835,0.022732\H,0,-4.8354,-0.206164,0.049998\H,0,-3.77865
 7,1.311157,-0.111923\H,0,-2.7783,-1.59604,0.106466\H,0,-1.371897,1.149
 104,-0.022713\H,0,-0.278392,-1.730791,0.00241\H,0,0.714812,-0.153787,0
 .046092\\Version=ES64L-G09RevD.01\State=1-A\HF=-155.7002009\MP2=-155.9
 261497\RMSD=4.804e-09\PG=C01 [X(C4H6)]\\@

 Normal termination of Gaussian 09 at Wed Aug 26 08:02:32 2020.
