 Gaussian 09, Revision D.01,
 Gaussian 09:  ES64L-G09RevD.01 24-Apr-2013

 --------------------
 #p B2PLYPD3/Def2QZVP
 --------------------

 ---------
 butadiene
 ---------
 Symbolic Z-matrix:
 Charge =  0 Multiplicity = 1

                         Standard orientation:
 ---------------------------------------------------------------------
 Center     Atomic      Atomic             Coordinates (Angstroms)
 Number     Number       Type             X           Y           Z
 ---------------------------------------------------------------------
      1          6           0        1.842638   -0.114968    0.045051
      2          6           0        0.609395    0.400136   -0.078111
      3          6           0       -0.596908   -0.381284   -0.038310
      4          6           0       -1.857025    0.087032    0.028951
      5          1           0        2.734049    0.534855    0.109442
      6          1           0        2.028099   -1.195927    0.016241
      7          1           0        0.470047    1.507504    0.020089
      8          1           0       -0.458065   -1.475008   -0.041534
      9          1           0       -2.007858    1.168471    0.035148
     10          1           0       -2.754870   -0.485398    0.115124
 ---------------------------------------------------------------------

 SCF Done:  E(RB2PLYPD3) =  -155.695987351     A.U. after   11 cycles
 E2(B2PLYPD3) =    -0.2267931268D+00 E(B2PLYPD3) =    -0.15592278047804D+03

 The electronic state is 1-A.
 Alpha  occ. eigenvalues --  -10.63107 -10.62859 -10.62324 -10.61700  -0.92941
 Alpha  occ. eigenvalues --   -0.84626  -0.70448  -0.63474  -0.54814  -0.53425
 Alpha  occ. eigenvalues --   -0.47025  -0.44864  -0.40735  -0.38263  -0.27545
 Alpha virt. eigenvalues --    0.01243   0.06998   0.07304   0.07951   0.09593
 Alpha virt. eigenvalues --    0.11556   0.12492   0.14553   0.15614   0.16383
 Alpha virt. eigenvalues --    0.18889   0.19935   0.21774   0.23049   0.23325

 Mulliken charges:
               1
     1  C   -0.170001
     2  C   -0.029057
     3  C   -0.023810
     4  C   -0.173704
     5  H    0.084456
     6  H    0.068259
     7  H    0.051297
     8  H    0.046553
     9  H    0.054718
    10  H    0.091290
 Sum of Mulliken charges =   0.00000

 Dipole moment (field-independent basis, Debye):
    X=              0.0426    Y=             -0.0216    Z=              0.1512  Tot=              0.1585
 Quadrupole moment (field-independent basis, Debye-Ang):
   XX=            -23.1297   YY=            -23.4078   ZZ=            -29.3713
   XY=             -0.1381   XZ=             -0.0195   YZ=              0.1164

 1\1\GINC-NODE20\SP\RB2PLYPD3-FC\def2QZVP\C4H6\BOITTIER\26-Aug-2020\0\\
 #p B2PLYPD3/Def2QZVP\\butadiene\\0,1\C,0,-3.84335,0.232635,0.066068\C,
 0,-2.724391,-0.501666,-0.034549\C,0,-1.396333,0.049213,-0.021809\C,0,-
 0.241583,-0.63676,0.066136\H,0,-4.837407,-0.24202,0.153148\H,0,-3.8300
 85,1.327424,-0.004353\H,0,-2.787466,-1.611423,0.106113\H,0,-1.334791,1
 .14907,-0.067044\H,0,-0.289095,-1.726604,0.113899\H,0,0.745485,-0.2336
 19,0.132475\\Version=ES64L-G09RevD.01\State=1-A\HF=-155.6959874\MP2=-1
 55.9227805\RMSD=5.278e-09\PG=C01 [X(C4H6)]\\@

 Normal termination of Gaussian 09 at Wed Aug 26 09:29:41 2020.
