 Gaussian 09, Revision D.01,
 Gaussian 09:  ES64L-G09RevD.01 24-Apr-2013

 --------------------
 #p B2PLYPD3/Def2QZVP
 --------------------

 ---------
 butadiene
 ---------
 Symbolic Z-matrix:
 Charge =  0 Multiplicity = 1

                         Standard orientation:
 ---------------------------------------------------------------------
 Center     Atomic      Atomic             Coordinates (Angstroms)
 Number     Number       Type             X           Y           Z
 ---------------------------------------------------------------------
      1          6           0       -1.830635    0.098042    0.014418
      2          6           0       -0.599373   -0.388075   -0.006781
      3          6           0        0.598604    0.416295   -0.010866
      4          6           0        1.832705   -0.113490    0.003562
      5          1           0       -2.667447   -0.573759   -0.034821
      6          1           0       -2.007449    1.163716    0.057606
      7          1           0       -0.447807   -1.458319   -0.062332
      8          1           0        0.422695    1.505783   -0.040259
      9          1           0        1.976203   -1.202399    0.088717
     10          1           0        2.716001    0.488341   -0.010906
 ---------------------------------------------------------------------

 SCF Done:  E(RB2PLYPD3) =  -155.700179562     A.U. after   11 cycles
 E2(B2PLYPD3) =    -0.2257457628D+00 E(B2PLYPD3) =    -0.15592592532520D+03

 The electronic state is 1-A.
 Alpha  occ. eigenvalues --  -10.62761 -10.62062 -10.61765 -10.61174  -0.93206
 Alpha  occ. eigenvalues --   -0.84897  -0.70270  -0.63886  -0.54767  -0.53779
 Alpha  occ. eigenvalues --   -0.46740  -0.45641  -0.41085  -0.38265  -0.27640
 Alpha virt. eigenvalues --    0.01727   0.07052   0.07296   0.08108   0.09648
 Alpha virt. eigenvalues --    0.11736   0.12395   0.14784   0.15861   0.16017
 Alpha virt. eigenvalues --    0.18715   0.20523   0.21528   0.22837   0.23913

 Mulliken charges:
               1
     1  C   -0.181880
     2  C   -0.017103
     3  C   -0.033661
     4  C   -0.175815
     5  H    0.087265
     6  H    0.066003
     7  H    0.051499
     8  H    0.050936
     9  H    0.064439
    10  H    0.088318
 Sum of Mulliken charges =   0.00000

 Dipole moment (field-independent basis, Debye):
    X=              0.0125    Y=             -0.0048    Z=             -0.0089  Tot=              0.0161
 Quadrupole moment (field-independent basis, Debye-Ang):
   XX=            -23.5852   YY=            -23.0919   ZZ=            -29.2443
   XY=             -0.1898   XZ=              0.1497   YZ=              0.0036

 1\1\GINC-NODE24\SP\RB2PLYPD3-FC\def2QZVP\C4H6\BOITTIER\26-Aug-2020\0\\
 #p B2PLYPD3/Def2QZVP\\butadiene\\0,1\C,0,-3.83385,0.217503,0.030269\C,
 0,-2.713133,-0.487301,0.027219\C,0,-1.387601,0.0824,0.003077\C,0,-0.27
 2044,-0.664775,0.036936\H,0,-4.780118,-0.289992,-0.001691\H,0,-3.81142
 3,1.298318,0.041435\H,0,-2.761248,-1.568326,0.003753\H,0,-1.360077,1.1
 84298,-0.059006\H,0,-0.331185,-1.758491,0.15464\H,0,0.706884,-0.236463
 ,0.007426\\Version=ES64L-G09RevD.01\State=1-A\HF=-155.7001796\MP2=-155
 .9259253\RMSD=5.225e-09\PG=C01 [X(C4H6)]\\@

 Normal termination of Gaussian 09 at Wed Aug 26 19:07:24 2020.
