 Gaussian 09, Revision D.01,
 Gaussian 09:  ES64L-G09RevD.01 24-Apr-2013

 --------------------
 #p B2PLYPD3/Def2QZVP
 --------------------

 ---------
 butadiene
 ---------
 Symbolic Z-matrix:
 Charge =  0 Multiplicity = 1

                         Standard orientation:
 ---------------------------------------------------------------------
 Center     Atomic      Atomic             Coordinates (Angstroms)
 Number     Number       Type             X           Y           Z
 ---------------------------------------------------------------------
      1          6           0       -1.835759    0.102464    0.050154
      2          6           0       -0.592189   -0.415722   -0.055710
      3          6           0        0.607948    0.400452   -0.014111
      4          6           0        1.837805   -0.100750    0.022632
      5          1           0       -2.766590   -0.498089    0.073795
      6          1           0       -1.931407    1.205915   -0.064500
      7          1           0       -0.439485   -1.447072   -0.028368
      8          1           0        0.371158    1.436525   -0.092358
      9          1           0        2.027908   -1.167123   -0.018822
     10          1           0        2.631587    0.551183    0.112464
 ---------------------------------------------------------------------

 SCF Done:  E(RB2PLYPD3) =  -155.692878441     A.U. after   11 cycles
 E2(B2PLYPD3) =    -0.2259582180D+00 E(B2PLYPD3) =    -0.15591883665894D+03

 The electronic state is 1-A.
 Alpha  occ. eigenvalues --  -10.62349 -10.62192 -10.62088 -10.60972  -0.93222
 Alpha  occ. eigenvalues --   -0.84773  -0.70375  -0.64739  -0.54844  -0.53694
 Alpha  occ. eigenvalues --   -0.47084  -0.45732  -0.41330  -0.37938  -0.27547
 Alpha virt. eigenvalues --    0.01581   0.07037   0.07395   0.08282   0.09370
 Alpha virt. eigenvalues --    0.11733   0.12494   0.14707   0.15552   0.16374
 Alpha virt. eigenvalues --    0.18623   0.19860   0.21910   0.23286   0.24035

 Mulliken charges:
               1
     1  C   -0.174513
     2  C   -0.032496
     3  C   -0.026186
     4  C   -0.183774
     5  H    0.084597
     6  H    0.056130
     7  H    0.059433
     8  H    0.056197
     9  H    0.071229
    10  H    0.089383
 Sum of Mulliken charges =   0.00000

 Dipole moment (field-independent basis, Debye):
    X=              0.0350    Y=             -0.0403    Z=             -0.0645  Tot=              0.0837
 Quadrupole moment (field-independent basis, Debye-Ang):
   XX=            -23.5673   YY=            -23.1641   ZZ=            -29.2121
   XY=             -0.1910   XZ=              0.1416   YZ=             -0.1228

 1\1\GINC-NODE24\SP\RB2PLYPD3-FC\def2QZVP\C4H6\BOITTIER\26-Aug-2020\0\\
 #p B2PLYPD3/Def2QZVP\\butadiene\\0,1\C,0,-3.838509,0.230053,0.064326\C
 ,0,-2.713269,-0.513817,-0.017426\C,0,-1.382251,0.066177,-0.003319\C,0,
 -0.266772,-0.65299,0.056732\H,0,-4.864599,-0.185759,0.107998\H,0,-3.72
 7959,1.32683,-0.093023\H,0,-2.754705,-1.553756,0.050089\H,0,-1.422759,
 1.124419,-0.122159\H,0,-0.278236,-1.736908,0.056973\H,0,0.634645,-0.15
 691,0.124019\\Version=ES64L-G09RevD.01\State=1-A\HF=-155.6928784\MP2=-
 155.9188367\RMSD=7.882e-09\PG=C01 [X(C4H6)]\\@

 Normal termination of Gaussian 09 at Wed Aug 26 08:58:29 2020.
