 Gaussian 09, Revision D.01,
 Gaussian 09:  ES64L-G09RevD.01 24-Apr-2013

 --------------------
 #p B2PLYPD3/Def2QZVP
 --------------------

 ---------
 butadiene
 ---------
 Symbolic Z-matrix:
 Charge =  0 Multiplicity = 1

                         Standard orientation:
 ---------------------------------------------------------------------
 Center     Atomic      Atomic             Coordinates (Angstroms)
 Number     Number       Type             X           Y           Z
 ---------------------------------------------------------------------
      1          6           0        1.826197    0.095013    0.052476
      2          6           0        0.585357   -0.392938   -0.023647
      3          6           0       -0.583444    0.425298   -0.060638
      4          6           0       -1.827092   -0.113493    0.029542
      5          1           0        2.697298   -0.581551    0.050612
      6          1           0        2.020693    1.158787   -0.060605
      7          1           0        0.455894   -1.468630   -0.096387
      8          1           0       -0.408828    1.526122   -0.008573
      9          1           0       -2.018069   -1.187155   -0.000036
     10          1           0       -2.753098    0.469147    0.128599
 ---------------------------------------------------------------------

 SCF Done:  E(RB2PLYPD3) =  -155.695063094     A.U. after   11 cycles
 E2(B2PLYPD3) =    -0.2269469093D+00 E(B2PLYPD3) =    -0.15592201000375D+03

 The electronic state is 1-A.
 Alpha  occ. eigenvalues --  -10.63212 -10.62311 -10.62297 -10.61626  -0.93236
 Alpha  occ. eigenvalues --   -0.84314  -0.70192  -0.63920  -0.54544  -0.53447
 Alpha  occ. eigenvalues --   -0.46323  -0.45153  -0.41403  -0.38239  -0.27239
 Alpha virt. eigenvalues --    0.01300   0.07011   0.07241   0.07972   0.09342
 Alpha virt. eigenvalues --    0.11649   0.12478   0.14722   0.15650   0.16329
 Alpha virt. eigenvalues --    0.18761   0.20136   0.21791   0.22991   0.23565

 Mulliken charges:
               1
     1  C   -0.177635
     2  C   -0.019744
     3  C   -0.033802
     4  C   -0.170965
     5  H    0.079794
     6  H    0.064256
     7  H    0.056120
     8  H    0.056450
     9  H    0.065239
    10  H    0.080288
 Sum of Mulliken charges =   0.00000

 Dipole moment (field-independent basis, Debye):
    X=             -0.0632    Y=             -0.0448    Z=             -0.0585  Tot=              0.0971
 Quadrupole moment (field-independent basis, Debye-Ang):
   XX=            -23.5726   YY=            -23.1521   ZZ=            -29.3702
   XY=              0.3377   XZ=             -0.4659   YZ=              0.0863

 1\1\GINC-NODE01\SP\RB2PLYPD3-FC\def2QZVP\C4H6\BOITTIER\26-Aug-2020\0\\
 #p B2PLYPD3/Def2QZVP\\butadiene\\0,1\C,0,-3.828945,0.216994,-0.027725\
 C,0,-2.700609,-0.49176,0.062275\C,0,-1.399225,0.094167,0.070392\C,0,-0
 .27893,-0.670341,-0.004156\H,0,-4.811102,-0.284278,-0.002166\H,0,-3.82
 0311,1.301433,0.05069\H,0,-2.773904,-1.5698,0.170082\H,0,-1.365427,1.2
 05988,-0.0175\H,0,-0.291756,-1.759273,0.060341\H,0,0.73885,-0.274661,-
 0.123865\\Version=ES64L-G09RevD.01\State=1-A\HF=-155.6950631\MP2=-155.
 92201\RMSD=7.123e-09\PG=C01 [X(C4H6)]\\@

 Normal termination of Gaussian 09 at Wed Aug 26 09:01:06 2020.
