 Gaussian 09, Revision D.01,
 Gaussian 09:  ES64L-G09RevD.01 24-Apr-2013

 --------------------
 #p B2PLYPD3/Def2QZVP
 --------------------

 ---------
 butadiene
 ---------
 Symbolic Z-matrix:
 Charge =  0 Multiplicity = 1

                         Standard orientation:
 ---------------------------------------------------------------------
 Center     Atomic      Atomic             Coordinates (Angstroms)
 Number     Number       Type             X           Y           Z
 ---------------------------------------------------------------------
      1          6           0        1.863485   -0.094341    0.047356
      2          6           0        0.606323    0.375129   -0.051341
      3          6           0       -0.614043   -0.419033   -0.032808
      4          6           0       -1.856735    0.114678    0.022258
      5          1           0        2.739656    0.561543    0.080758
      6          1           0        2.054381   -1.131550    0.015055
      7          1           0        0.475275    1.475181   -0.080724
      8          1           0       -0.431129   -1.502620   -0.107360
      9          1           0       -2.032379    1.211405    0.034932
     10          1           0       -2.799987   -0.472559    0.144546
 ---------------------------------------------------------------------

 SCF Done:  E(RB2PLYPD3) =  -155.694798190     A.U. after   11 cycles
 E2(B2PLYPD3) =    -0.2269780325D+00 E(B2PLYPD3) =    -0.15592177622240D+03

 The electronic state is 1-A.
 Alpha  occ. eigenvalues --  -10.63438 -10.62981 -10.62813 -10.61593  -0.92567
 Alpha  occ. eigenvalues --   -0.84430  -0.70262  -0.63739  -0.54432  -0.53321
 Alpha  occ. eigenvalues --   -0.47055  -0.45041  -0.40902  -0.37734  -0.27549
 Alpha virt. eigenvalues --    0.01232   0.06919   0.07345   0.07928   0.09469
 Alpha virt. eigenvalues --    0.11502   0.12446   0.14507   0.15761   0.16234
 Alpha virt. eigenvalues --    0.18907   0.20235   0.21866   0.22613   0.23278

 Mulliken charges:
               1
     1  C   -0.177705
     2  C   -0.021368
     3  C   -0.040809
     4  C   -0.164944
     5  H    0.086220
     6  H    0.064485
     7  H    0.049260
     8  H    0.057364
     9  H    0.064028
    10  H    0.083471
 Sum of Mulliken charges =   0.00000

 Dipole moment (field-independent basis, Debye):
    X=             -0.0222    Y=             -0.0044    Z=              0.0211  Tot=              0.0310
 Quadrupole moment (field-independent basis, Debye-Ang):
   XX=            -23.1414   YY=            -23.3667   ZZ=            -29.4450
   XY=             -0.3221   XZ=             -0.2335   YZ=              0.0509

 1\1\GINC-NODE36\SP\RB2PLYPD3-FC\def2QZVP\C4H6\BOITTIER\26-Aug-2020\0\\
 #p B2PLYPD3/Def2QZVP\\butadiene\\0,1\C,0,-3.868711,0.213168,0.062751\C
 ,0,-2.717079,-0.478587,-0.013527\C,0,-1.373488,0.082707,-0.01993\C,0,-
 0.247218,-0.663835,0.059787\H,0,-4.848667,-0.272316,0.11722\H,0,-3.869
 585,1.265853,-0.008949\H,0,-2.786583,-1.584558,-0.001355\H,0,-1.358274
 ,1.177959,-0.13555\H,0,-0.272133,-1.773005,0.114034\H,0,0.786802,-0.25
 2097,0.163717\\Version=ES64L-G09RevD.01\State=1-A\HF=-155.6947982\MP2=
 -155.9217762\RMSD=4.143e-09\PG=C01 [X(C4H6)]\\@

 Normal termination of Gaussian 09 at Wed Aug 26 08:44:03 2020.
