 Gaussian 09, Revision D.01,
 Gaussian 09:  ES64L-G09RevD.01 24-Apr-2013

 --------------------
 #p B2PLYPD3/Def2QZVP
 --------------------

 ---------
 butadiene
 ---------
 Symbolic Z-matrix:
 Charge =  0 Multiplicity = 1

                         Standard orientation:
 ---------------------------------------------------------------------
 Center     Atomic      Atomic             Coordinates (Angstroms)
 Number     Number       Type             X           Y           Z
 ---------------------------------------------------------------------
      1          6           0       -1.824644   -0.107061    0.011346
      2          6           0       -0.592130    0.389494   -0.008102
      3          6           0        0.603400   -0.410662   -0.030286
      4          6           0        1.824068    0.116487    0.024317
      5          1           0       -2.708814    0.538578    0.057361
      6          1           0       -2.014501   -1.163191   -0.005819
      7          1           0       -0.501290    1.497369   -0.038212
      8          1           0        0.470641   -1.493966   -0.013172
      9          1           0        1.970780    1.186335   -0.034210
     10          1           0        2.719016   -0.494674    0.050409
 ---------------------------------------------------------------------

 SCF Done:  E(RB2PLYPD3) =  -155.700018570     A.U. after   11 cycles
 E2(B2PLYPD3) =    -0.2257031166D+00 E(B2PLYPD3) =    -0.15592572168691D+03

 The electronic state is 1-A.
 Alpha  occ. eigenvalues --  -10.62535 -10.62468 -10.61471 -10.61339  -0.93283
 Alpha  occ. eigenvalues --   -0.84980  -0.70067  -0.63872  -0.54592  -0.54072
 Alpha  occ. eigenvalues --   -0.46484  -0.45278  -0.41181  -0.38388  -0.27665
 Alpha virt. eigenvalues --    0.01819   0.07022   0.07333   0.07972   0.09666
 Alpha virt. eigenvalues --    0.11682   0.12466   0.14731   0.15802   0.16280
 Alpha virt. eigenvalues --    0.18703   0.20337   0.21783   0.22738   0.23888

 Mulliken charges:
               1
     1  C   -0.177446
     2  C   -0.019853
     3  C   -0.034026
     4  C   -0.170957
     5  H    0.082533
     6  H    0.063791
     7  H    0.049661
     8  H    0.055982
     9  H    0.066599
    10  H    0.083717
 Sum of Mulliken charges =   0.00000

 Dipole moment (field-independent basis, Debye):
    X=              0.0190    Y=             -0.0178    Z=             -0.0160  Tot=              0.0306
 Quadrupole moment (field-independent basis, Debye-Ang):
   XX=            -23.4960   YY=            -23.1063   ZZ=            -29.2377
   XY=              0.1205   XZ=             -0.0478   YZ=             -0.0720

 1\1\GINC-NODE17\SP\RB2PLYPD3-FC\def2QZVP\C4H6\BOITTIER\26-Aug-2020\0\\
 #p B2PLYPD3/Def2QZVP\\butadiene\\0,1\C,0,-3.829195,0.217629,0.005243\C
 ,0,-2.706256,-0.49195,0.044491\C,0,-1.386046,0.079956,0.042306\C,0,-0.
 280551,-0.660071,0.008558\H,0,-4.815392,-0.259294,-0.020902\H,0,-3.825
 588,1.290648,-0.013955\H,0,-2.816403,-1.596392,0.11246\H,0,-1.32151,1.
 168238,-0.011939\H,0,-0.328782,-1.736237,0.103768\H,0,0.709762,-0.2214
 26,-0.036165\\Version=ES64L-G09RevD.01\State=1-A\HF=-155.7000186\MP2=-
 155.9257217\RMSD=4.612e-09\PG=C01 [X(C4H6)]\\@

 Normal termination of Gaussian 09 at Wed Aug 26 19:48:58 2020.
