 Gaussian 09, Revision D.01,
 Gaussian 09:  ES64L-G09RevD.01 24-Apr-2013

 --------------------
 #p B2PLYPD3/Def2QZVP
 --------------------

 ---------
 butadiene
 ---------
 Symbolic Z-matrix:
 Charge =  0 Multiplicity = 1

                         Standard orientation:
 ---------------------------------------------------------------------
 Center     Atomic      Atomic             Coordinates (Angstroms)
 Number     Number       Type             X           Y           Z
 ---------------------------------------------------------------------
      1          6           0        1.839938    0.058526   -0.067278
      2          6           0        0.602526   -0.325494    0.063272
      3          6           0       -0.586187    0.421647   -0.002743
      4          6           0       -1.838351   -0.144815   -0.026496
      5          1           0        2.690347   -0.630413    0.028140
      6          1           0        2.082454    1.142309   -0.163213
      7          1           0        0.455126   -1.374929    0.285687
      8          1           0       -0.499985    1.471103    0.287396
      9          1           0       -2.102023   -1.154742   -0.256716
     10          1           0       -2.733470    0.487479    0.018179
 ---------------------------------------------------------------------

 SCF Done:  E(RB2PLYPD3) =  -155.686541180     A.U. after   12 cycles
 E2(B2PLYPD3) =    -0.2266078487D+00 E(B2PLYPD3) =    -0.15591314902826D+03

 The electronic state is 1-A.
 Alpha  occ. eigenvalues --  -10.63044 -10.62413 -10.61559 -10.61398  -0.93649
 Alpha  occ. eigenvalues --   -0.84741  -0.71091  -0.63597  -0.54986  -0.53672
 Alpha  occ. eigenvalues --   -0.47332  -0.44949  -0.41196  -0.37324  -0.27694
 Alpha virt. eigenvalues --    0.00951   0.07113   0.07527   0.07696   0.09769
 Alpha virt. eigenvalues --    0.11423   0.12337   0.14939   0.15300   0.16332
 Alpha virt. eigenvalues --    0.18566   0.19672   0.21909   0.22195   0.23539

 Mulliken charges:
               1
     1  C   -0.167289
     2  C   -0.022957
     3  C   -0.047957
     4  C   -0.177531
     5  H    0.086559
     6  H    0.056173
     7  H    0.052961
     8  H    0.068920
     9  H    0.077282
    10  H    0.073839
 Sum of Mulliken charges =   0.00000

 Dipole moment (field-independent basis, Debye):
    X=             -0.0806    Y=             -0.0639    Z=              0.1958  Tot=              0.2212
 Quadrupole moment (field-independent basis, Debye-Ang):
   XX=            -23.2205   YY=            -23.5888   ZZ=            -29.0068
   XY=              0.3122   XZ=              0.2411   YZ=              0.2237

 1\1\GINC-NODE01\SP\RB2PLYPD3-FC\def2QZVP\C4H6\BOITTIER\26-Aug-2020\0\\
 #p B2PLYPD3/Def2QZVP\\butadiene\\0,1\C,0,-3.847632,0.184662,0.07609\C,
 0,-2.703077,-0.427454,-0.028833\C,0,-1.396589,0.090014,0.001712\C,0,-0
 .270249,-0.69563,0.060705\H,0,-4.811069,-0.339667,0.014394\H,0,-3.8855
 34,1.298132,0.11285\H,0,-2.753086,-1.496423,-0.194104\H,0,-1.289521,1.
 120344,-0.344591\H,0,-0.195966,-1.723106,0.345753\H,0,0.725838,-0.2426
 2,-0.014278\\Version=ES64L-G09RevD.01\State=1-A\HF=-155.6865412\MP2=-1
 55.913149\RMSD=4.957e-09\PG=C01 [X(C4H6)]\\@

 Normal termination of Gaussian 09 at Wed Aug 26 15:29:54 2020.
