 Gaussian 09, Revision D.01,
 Gaussian 09:  ES64L-G09RevD.01 24-Apr-2013

 --------------------
 #p B2PLYPD3/Def2QZVP
 --------------------

 ---------
 butadiene
 ---------
 Symbolic Z-matrix:
 Charge =  0 Multiplicity = 1

                         Standard orientation:
 ---------------------------------------------------------------------
 Center     Atomic      Atomic             Coordinates (Angstroms)
 Number     Number       Type             X           Y           Z
 ---------------------------------------------------------------------
      1          6           0        1.862863   -0.132123    0.014154
      2          6           0        0.653996    0.421412    0.006727
      3          6           0       -0.616121   -0.346513   -0.063370
      4          6           0       -1.863973    0.082641    0.002433
      5          1           0        2.757875    0.428985    0.141485
      6          1           0        1.766041   -1.289470   -0.092620
      7          1           0        0.507982    1.572411   -0.038051
      8          1           0       -0.435396   -1.397821    0.019018
      9          1           0       -2.156614    1.135888   -0.060761
     10          1           0       -2.660474   -0.602492    0.271270
 ---------------------------------------------------------------------

 SCF Done:  E(RB2PLYPD3) =  -155.682448503     A.U. after   11 cycles
 E2(B2PLYPD3) =    -0.2267458678D+00 E(B2PLYPD3) =    -0.15590919437093D+03

 The electronic state is 1-A.
 Alpha  occ. eigenvalues --  -10.63552 -10.62533 -10.62464 -10.61667  -0.92676
 Alpha  occ. eigenvalues --   -0.85342  -0.69791  -0.62835  -0.55316  -0.52630
 Alpha  occ. eigenvalues --   -0.47865  -0.44450  -0.40096  -0.37623  -0.28211
 Alpha virt. eigenvalues --    0.01682   0.06946   0.07156   0.07986   0.09497
 Alpha virt. eigenvalues --    0.11562   0.12310   0.14359   0.15455   0.15928
 Alpha virt. eigenvalues --    0.18770   0.20274   0.20754   0.22374   0.24406

 Mulliken charges:
               1
     1  C   -0.171665
     2  C   -0.033311
     3  C   -0.021186
     4  C   -0.172006
     5  H    0.105972
     6  H    0.055657
     7  H    0.038416
     8  H    0.048663
     9  H    0.065680
    10  H    0.083777
 Sum of Mulliken charges =   0.00000

 Dipole moment (field-independent basis, Debye):
    X=              0.0081    Y=              0.0616    Z=              0.1844  Tot=              0.1946
 Quadrupole moment (field-independent basis, Debye-Ang):
   XX=            -23.4487   YY=            -23.5488   ZZ=            -29.2655
   XY=              0.1444   XZ=             -0.4145   YZ=             -0.1726

 1\1\GINC-NODE38\SP\RB2PLYPD3-FC\def2QZVP\C4H6\BOITTIER\26-Aug-2020\0\\
 #p B2PLYPD3/Def2QZVP\\butadiene\\0,1\C,0,-3.858997,0.240104,0.033584\C
 ,0,-2.764507,-0.514802,0.03854\C,0,-1.380241,0.020166,-0.035185\C,0,-0
 .225949,-0.61807,0.041639\H,0,-4.838099,-0.155534,0.163712\H,0,-3.5625
 61,1.361625,-0.087009\H,0,-2.820329,-1.674161,0.008632\H,0,-1.375992,1
 .087863,0.033399\H,0,-0.120362,-1.706843,-0.007215\H,0,0.676712,-0.078
 082,0.305664\\Version=ES64L-G09RevD.01\State=1-A\HF=-155.6824485\MP2=-
 155.9091944\RMSD=4.361e-09\PG=C01 [X(C4H6)]\\@

 Normal termination of Gaussian 09 at Wed Aug 26 14:09:17 2020.
