 Gaussian 09, Revision D.01,
 Gaussian 09:  ES64L-G09RevD.01 24-Apr-2013

 --------------------
 #p B2PLYPD3/Def2QZVP
 --------------------

 ---------
 butadiene
 ---------
 Symbolic Z-matrix:
 Charge =  0 Multiplicity = 1

                         Standard orientation:
 ---------------------------------------------------------------------
 Center     Atomic      Atomic             Coordinates (Angstroms)
 Number     Number       Type             X           Y           Z
 ---------------------------------------------------------------------
      1          6           0        1.844638   -0.121230    0.003474
      2          6           0        0.617685    0.415571   -0.012278
      3          6           0       -0.602795   -0.396365   -0.004464
      4          6           0       -1.849044    0.107929   -0.000136
      5          1           0        2.729833    0.521899    0.004455
      6          1           0        1.972609   -1.193235    0.059284
      7          1           0        0.469931    1.477426   -0.040509
      8          1           0       -0.488936   -1.480239   -0.014131
      9          1           0       -2.033841    1.192059    0.097070
     10          1           0       -2.712502   -0.553345   -0.025748
 ---------------------------------------------------------------------

 SCF Done:  E(RB2PLYPD3) =  -155.699866093     A.U. after   11 cycles
 E2(B2PLYPD3) =    -0.2261513910D+00 E(B2PLYPD3) =    -0.15592601748431D+03

 The electronic state is 1-A.
 Alpha  occ. eigenvalues --  -10.62757 -10.62615 -10.61886 -10.61768  -0.92683
 Alpha  occ. eigenvalues --   -0.84688  -0.69811  -0.64083  -0.54179  -0.53836
 Alpha  occ. eigenvalues --   -0.46565  -0.45613  -0.41194  -0.37871  -0.27628
 Alpha virt. eigenvalues --    0.01677   0.06980   0.07385   0.08028   0.09411
 Alpha virt. eigenvalues --    0.11692   0.12313   0.14640   0.15876   0.16029
 Alpha virt. eigenvalues --    0.18770   0.20541   0.21298   0.22813   0.23916

 Mulliken charges:
               1
     1  C   -0.174047
     2  C   -0.035876
     3  C   -0.030697
     4  C   -0.178893
     5  H    0.085874
     6  H    0.069900
     7  H    0.059801
     8  H    0.053478
     9  H    0.064933
    10  H    0.085526
 Sum of Mulliken charges =   0.00000

 Dipole moment (field-independent basis, Debye):
    X=              0.0229    Y=             -0.0003    Z=              0.0687  Tot=              0.0724
 Quadrupole moment (field-independent basis, Debye-Ang):
   XX=            -23.6443   YY=            -23.0067   ZZ=            -29.3797
   XY=             -0.0810   XZ=              0.0016   YZ=              0.0364

 1\1\GINC-NODE36\SP\RB2PLYPD3-FC\def2QZVP\C4H6\BOITTIER\26-Aug-2020\0\\
 #p B2PLYPD3/Def2QZVP\\butadiene\\0,1\C,0,-3.844272,0.233264,0.022224\C
 ,0,-2.732569,-0.513678,0.025358\C,0,-1.387003,0.067791,0.010528\C,0,-0
 .250452,-0.650001,0.032768\H,0,-4.829824,-0.241614,0.041294\H,0,-3.779
 123,1.312122,0.044771\H,0,-2.776345,-1.585231,0.030101\H,0,-1.306089,1
 .153804,-0.032709\H,0,-0.261293,-1.746217,0.163646\H,0,0.716853,-0.154
 16,-0.011521\\Version=ES64L-G09RevD.01\State=1-A\HF=-155.6998661\MP2=-
 155.9260175\RMSD=4.062e-09\PG=C01 [X(C4H6)]\\@

 Normal termination of Gaussian 09 at Wed Aug 26 18:51:08 2020.
