 Gaussian 09, Revision D.01,
 Gaussian 09:  ES64L-G09RevD.01 24-Apr-2013

 --------------------
 #p B2PLYPD3/Def2QZVP
 --------------------

 ---------
 butadiene
 ---------
 Symbolic Z-matrix:
 Charge =  0 Multiplicity = 1

                         Standard orientation:
 ---------------------------------------------------------------------
 Center     Atomic      Atomic             Coordinates (Angstroms)
 Number     Number       Type             X           Y           Z
 ---------------------------------------------------------------------
      1          6           0        1.832779    0.101769   -0.021815
      2          6           0        0.595009   -0.389684    0.001138
      3          6           0       -0.603158    0.399062    0.017420
      4          6           0       -1.819966   -0.114181   -0.013955
      5          1           0        2.694467   -0.524310    0.029759
      6          1           0        1.988775    1.172050   -0.021121
      7          1           0        0.443265   -1.463990    0.096031
      8          1           0       -0.477281    1.499791    0.047162
      9          1           0       -1.967326   -1.194534   -0.058375
     10          1           0       -2.709892    0.529197    0.009813
 ---------------------------------------------------------------------

 SCF Done:  E(RB2PLYPD3) =  -155.700170751     A.U. after   11 cycles
 E2(B2PLYPD3) =    -0.2255528356D+00 E(B2PLYPD3) =    -0.15592572358660D+03

 The electronic state is 1-A.
 Alpha  occ. eigenvalues --  -10.62348 -10.62266 -10.61581 -10.61255  -0.93429
 Alpha  occ. eigenvalues --   -0.85091  -0.70195  -0.63757  -0.54712  -0.53976
 Alpha  occ. eigenvalues --   -0.46779  -0.45377  -0.41014  -0.38428  -0.27764
 Alpha virt. eigenvalues --    0.01818   0.07045   0.07306   0.08018   0.09802
 Alpha virt. eigenvalues --    0.11731   0.12429   0.14753   0.15729   0.16164
 Alpha virt. eigenvalues --    0.18702   0.20388   0.21641   0.22747   0.23904

 Mulliken charges:
               1
     1  C   -0.179063
     2  C   -0.025023
     3  C   -0.022615
     4  C   -0.174555
     5  H    0.088462
     6  H    0.063701
     7  H    0.050791
     8  H    0.047828
     9  H    0.064687
    10  H    0.085787
 Sum of Mulliken charges =   0.00000

 Dipole moment (field-independent basis, Debye):
    X=             -0.0154    Y=             -0.0017    Z=              0.1042  Tot=              0.1053
 Quadrupole moment (field-independent basis, Debye-Ang):
   XX=            -23.5291   YY=            -23.1613   ZZ=            -29.1952
   XY=              0.0831   XZ=              0.1771   YZ=             -0.0327

 1\1\GINC-NODE16\SP\RB2PLYPD3-FC\def2QZVP\C4H6\BOITTIER\26-Aug-2020\0\\
 #p B2PLYPD3/Def2QZVP\\butadiene\\0,1\C,0,-3.835468,0.218409,0.035763\C
 ,0,-2.707481,-0.489926,0.029916\C,0,-1.386105,0.067572,-0.003988\C,0,-
 0.282584,-0.656905,0.044998\H,0,-4.79656,-0.242082,-0.001524\H,0,-3.79
 4647,1.298809,0.005659\H,0,-2.753393,-1.576106,-0.035435\H,0,-1.310194
 ,1.17165,-0.063859\H,0,-0.333643,-1.744452,0.119058\H,0,0.709276,-0.18
 6577,0.00659\\Version=ES64L-G09RevD.01\State=1-A\HF=-155.7001708\MP2=-
 155.9257236\RMSD=4.489e-09\PG=C01 [X(C4H6)]\\@

 Normal termination of Gaussian 09 at Wed Aug 26 22:01:11 2020.
