 Gaussian 09, Revision D.01,
 Gaussian 09:  ES64L-G09RevD.01 24-Apr-2013

 --------------------
 #p B2PLYPD3/Def2QZVP
 --------------------

 ---------
 butadiene
 ---------
 Symbolic Z-matrix:
 Charge =  0 Multiplicity = 1

                         Standard orientation:
 ---------------------------------------------------------------------
 Center     Atomic      Atomic             Coordinates (Angstroms)
 Number     Number       Type             X           Y           Z
 ---------------------------------------------------------------------
      1          6           0        1.869758   -0.152426    0.068776
      2          6           0        0.618832    0.449119   -0.088379
      3          6           0       -0.620308   -0.344218   -0.048785
      4          6           0       -1.900140    0.053354    0.075543
      5          1           0        2.740621    0.435843   -0.020442
      6          1           0        2.042749   -1.152826    0.194535
      7          1           0        0.487565    1.528055   -0.114697
      8          1           0       -0.363953   -1.409484   -0.197329
      9          1           0       -2.025321    1.184543    0.202383
     10          1           0       -2.690519   -0.621105   -0.107375
 ---------------------------------------------------------------------

 SCF Done:  E(RB2PLYPD3) =  -155.681800787     A.U. after   12 cycles
 E2(B2PLYPD3) =    -0.2277854959D+00 E(B2PLYPD3) =    -0.15590958628302D+03

 The electronic state is 1-A.
 Alpha  occ. eigenvalues --  -10.63957 -10.62912 -10.62131 -10.62005  -0.92052
 Alpha  occ. eigenvalues --   -0.84361  -0.71282  -0.63652  -0.54932  -0.53012
 Alpha  occ. eigenvalues --   -0.47935  -0.45678  -0.40627  -0.37041  -0.27342
 Alpha virt. eigenvalues --    0.00522   0.07002   0.07427   0.08057   0.09430
 Alpha virt. eigenvalues --    0.11586   0.12234   0.14697   0.15649   0.16115
 Alpha virt. eigenvalues --    0.19129   0.20155   0.20879   0.22300   0.23552

 Mulliken charges:
               1
     1  C   -0.171054
     2  C   -0.055304
     3  C   -0.011652
     4  C   -0.188503
     5  H    0.085186
     6  H    0.075695
     7  H    0.058808
     8  H    0.045614
     9  H    0.058892
    10  H    0.102318
 Sum of Mulliken charges =   0.00000

 Dipole moment (field-independent basis, Debye):
    X=              0.2017    Y=             -0.0412    Z=             -0.1234  Tot=              0.2400
 Quadrupole moment (field-independent basis, Debye-Ang):
   XX=            -23.4323   YY=            -23.2912   ZZ=            -29.4361
   XY=             -0.2850   XZ=              0.3849   YZ=              0.1405

 1\1\GINC-NODE38\SP\RB2PLYPD3-FC\def2QZVP\C4H6\BOITTIER\26-Aug-2020\0\\
 #p B2PLYPD3/Def2QZVP\\butadiene\\0,1\C,0,-3.866313,0.275537,0.086468\C
 ,0,-2.7457,-0.546845,-0.052399\C,0,-1.38328,0.009901,-0.036092\C,0,-0.
 195889,-0.608952,0.100341\H,0,-4.829688,-0.147735,0.014556\H,0,-3.8547
 9,1.293972,0.182374\H,0,-2.811958,-1.632019,-0.046583\H,0,-1.443413,1.
 099157,-0.216319\H,0,-0.276803,-1.739904,0.2608\H,0,0.702532,-0.094356
 ,-0.102347\\Version=ES64L-G09RevD.01\State=1-A\HF=-155.6818008\MP2=-15
 5.9095863\RMSD=5.410e-09\PG=C01 [X(C4H6)]\\@

 Normal termination of Gaussian 09 at Wed Aug 26 11:53:07 2020.
