 Gaussian 09, Revision D.01,
 Gaussian 09:  ES64L-G09RevD.01 24-Apr-2013

 --------------------
 #p B2PLYPD3/Def2QZVP
 --------------------

 ---------
 butadiene
 ---------
 Symbolic Z-matrix:
 Charge =  0 Multiplicity = 1

                         Standard orientation:
 ---------------------------------------------------------------------
 Center     Atomic      Atomic             Coordinates (Angstroms)
 Number     Number       Type             X           Y           Z
 ---------------------------------------------------------------------
      1          6           0       -1.837431   -0.102742    0.020698
      2          6           0       -0.600134    0.369873   -0.009908
      3          6           0        0.606282   -0.396094   -0.026951
      4          6           0        1.845074    0.121242    0.010199
      5          1           0       -2.727220    0.554149   -0.031314
      6          1           0       -2.016040   -1.156127    0.004753
      7          1           0       -0.491791    1.462569    0.041593
      8          1           0        0.474967   -1.445000   -0.017425
      9          1           0        2.008441    1.210452   -0.043437
     10          1           0        2.668894   -0.579722    0.081605
 ---------------------------------------------------------------------

 SCF Done:  E(RB2PLYPD3) =  -155.697631502     A.U. after   11 cycles
 E2(B2PLYPD3) =    -0.2258452611D+00 E(B2PLYPD3) =    -0.15592347676292D+03

 The electronic state is 1-A.
 Alpha  occ. eigenvalues --  -10.62197 -10.62134 -10.61969 -10.61442  -0.93373
 Alpha  occ. eigenvalues --   -0.84996  -0.70323  -0.64087  -0.54654  -0.53864
 Alpha  occ. eigenvalues --   -0.46504  -0.45755  -0.41046  -0.38385  -0.27611
 Alpha virt. eigenvalues --    0.01490   0.06940   0.07474   0.07965   0.09917
 Alpha virt. eigenvalues --    0.11748   0.12271   0.14774   0.15722   0.16128
 Alpha virt. eigenvalues --    0.18739   0.20140   0.21623   0.22688   0.24018

 Mulliken charges:
               1
     1  C   -0.176879
     2  C   -0.014614
     3  C   -0.038140
     4  C   -0.179349
     5  H    0.084234
     6  H    0.061340
     7  H    0.045984
     8  H    0.055484
     9  H    0.074137
    10  H    0.087804
 Sum of Mulliken charges =   0.00000

 Dipole moment (field-independent basis, Debye):
    X=              0.0021    Y=             -0.0416    Z=              0.0007  Tot=              0.0416
 Quadrupole moment (field-independent basis, Debye-Ang):
   XX=            -23.6330   YY=            -23.1032   ZZ=            -29.2350
   XY=              0.0256   XZ=              0.2320   YZ=             -0.0842

 1\1\GINC-NODE25\SP\RB2PLYPD3-FC\def2QZVP\C4H6\BOITTIER\26-Aug-2020\0\\
 #p B2PLYPD3/Def2QZVP\\butadiene\\0,1\C,0,-3.843414,0.21439,-0.000395\C
 ,0,-2.710742,-0.471252,0.046033\C,0,-1.38647,0.066032,0.038019\C,0,-0.
 260733,-0.666052,0.018204\H,0,-4.836243,-0.270197,0.073097\H,0,-3.8301
 79,1.28268,-0.019262\H,0,-2.800355,-1.566746,0.030646\H,0,-1.327657,1.
 120607,-0.006148\H,0,-0.294987,-1.764571,0.107793\H,0,0.674987,-0.1269
 28,-0.076139\\Version=ES64L-G09RevD.01\State=1-A\HF=-155.6976315\MP2=-
 155.9234768\RMSD=6.121e-09\PG=C01 [X(C4H6)]\\@

 Normal termination of Gaussian 09 at Wed Aug 26 09:06:09 2020.
