 Gaussian 09, Revision D.01,
 Gaussian 09:  ES64L-G09RevD.01 24-Apr-2013

 --------------------
 #p B2PLYPD3/Def2QZVP
 --------------------

 ---------
 butadiene
 ---------
 Symbolic Z-matrix:
 Charge =  0 Multiplicity = 1

                         Standard orientation:
 ---------------------------------------------------------------------
 Center     Atomic      Atomic             Coordinates (Angstroms)
 Number     Number       Type             X           Y           Z
 ---------------------------------------------------------------------
      1          6           0       -1.850884   -0.141417    0.017141
      2          6           0       -0.631945    0.415755   -0.043260
      3          6           0        0.609619   -0.359301   -0.034307
      4          6           0        1.867839    0.086642    0.044898
      5          1           0       -2.738000    0.524515    0.178851
      6          1           0       -1.942509   -1.241254   -0.009851
      7          1           0       -0.504097    1.523156   -0.051168
      8          1           0        0.486087   -1.441268   -0.058090
      9          1           0        1.992120    1.163428   -0.040339
     10          1           0        2.738619   -0.538653    0.073763
 ---------------------------------------------------------------------

 SCF Done:  E(RB2PLYPD3) =  -155.694671679     A.U. after   11 cycles
 E2(B2PLYPD3) =    -0.2266186669D+00 E(B2PLYPD3) =    -0.15592129034638D+03

 The electronic state is 1-A.
 Alpha  occ. eigenvalues --  -10.63257 -10.62616 -10.62564 -10.61485  -0.92684
 Alpha  occ. eigenvalues --   -0.84898  -0.69822  -0.63469  -0.54300  -0.53687
 Alpha  occ. eigenvalues --   -0.46976  -0.45048  -0.40861  -0.37804  -0.27782
 Alpha virt. eigenvalues --    0.01506   0.06933   0.07331   0.07913   0.09609
 Alpha virt. eigenvalues --    0.11634   0.12356   0.14460   0.15843   0.15972
 Alpha virt. eigenvalues --    0.18813   0.20236   0.21081   0.22933   0.23865

 Mulliken charges:
               1
     1  C   -0.172490
     2  C   -0.035669
     3  C   -0.018706
     4  C   -0.179091
     5  H    0.089499
     6  H    0.072616
     7  H    0.049468
     8  H    0.043249
     9  H    0.057644
    10  H    0.093480
 Sum of Mulliken charges =   0.00000

 Dipole moment (field-independent basis, Debye):
    X=             -0.0364    Y=             -0.0175    Z=              0.0309  Tot=              0.0508
 Quadrupole moment (field-independent basis, Debye-Ang):
   XX=            -23.5376   YY=            -23.2419   ZZ=            -29.3840
   XY=             -0.1831   XZ=             -0.3983   YZ=              0.0330

 1\1\GINC-NODE32\SP\RB2PLYPD3-FC\def2QZVP\C4H6\BOITTIER\26-Aug-2020\0\\
 #p B2PLYPD3/Def2QZVP\\butadiene\\0,1\C,0,-3.849576,0.243638,-0.007066\
 C,0,-2.74542,-0.513822,0.076574\C,0,-1.388452,0.034033,0.048877\C,0,-0
 .226482,-0.62519,-0.010352\H,0,-4.838713,-0.263575,-0.151751\H,0,-3.74
 9426,1.343032,-0.015287\H,0,-2.811171,-1.625814,0.120085\H,0,-1.322824
 ,1.121254,0.037865\H,0,-0.290378,-1.703958,0.109464\H,0,0.739359,-0.16
 124,-0.054935\\Version=ES64L-G09RevD.01\State=1-A\HF=-155.6946717\MP2=
 -155.9212903\RMSD=6.460e-09\PG=C01 [X(C4H6)]\\@

 Normal termination of Gaussian 09 at Wed Aug 26 08:56:27 2020.
