 Gaussian 09, Revision D.01,
 Gaussian 09:  ES64L-G09RevD.01 24-Apr-2013

 --------------------
 #p B2PLYPD3/Def2QZVP
 --------------------

 ---------
 butadiene
 ---------
 Symbolic Z-matrix:
 Charge =  0 Multiplicity = 1

                         Standard orientation:
 ---------------------------------------------------------------------
 Center     Atomic      Atomic             Coordinates (Angstroms)
 Number     Number       Type             X           Y           Z
 ---------------------------------------------------------------------
      1          6           0        1.823607    0.109489   -0.011687
      2          6           0        0.612716   -0.396146    0.002297
      3          6           0       -0.602653    0.430526    0.008709
      4          6           0       -1.823063   -0.124023    0.002059
      5          1           0        2.659558   -0.559429    0.047761
      6          1           0        2.015095    1.182034   -0.089062
      7          1           0        0.463035   -1.474717    0.030805
      8          1           0       -0.514425    1.499558    0.108373
      9          1           0       -1.879088   -1.220572   -0.033009
     10          1           0       -2.807817    0.454048   -0.073136
 ---------------------------------------------------------------------

 SCF Done:  E(RB2PLYPD3) =  -155.695816294     A.U. after   11 cycles
 E2(B2PLYPD3) =    -0.2258434645D+00 E(B2PLYPD3) =    -0.15592165975864D+03

 The electronic state is 1-A.
 Alpha  occ. eigenvalues --  -10.62602 -10.62357 -10.62293 -10.61076  -0.93033
 Alpha  occ. eigenvalues --   -0.84972  -0.69143  -0.64134  -0.54171  -0.53853
 Alpha  occ. eigenvalues --   -0.46517  -0.45125  -0.41025  -0.38084  -0.27886
 Alpha virt. eigenvalues --    0.02150   0.07001   0.07333   0.07951   0.09351
 Alpha virt. eigenvalues --    0.11686   0.12420   0.14456   0.15632   0.16281
 Alpha virt. eigenvalues --    0.18662   0.19974   0.21682   0.22851   0.24080

 Mulliken charges:
               1
     1  C   -0.175930
     2  C   -0.029094
     3  C   -0.036972
     4  C   -0.169503
     5  H    0.083894
     6  H    0.069974
     7  H    0.054968
     8  H    0.062658
     9  H    0.058290
    10  H    0.081714
 Sum of Mulliken charges =   0.00000

 Dipole moment (field-independent basis, Debye):
    X=              0.0264    Y=              0.0092    Z=             -0.0036  Tot=              0.0282
 Quadrupole moment (field-independent basis, Debye-Ang):
   XX=            -23.7353   YY=            -23.0351   ZZ=            -29.2848
   XY=              0.0138   XZ=              0.2096   YZ=             -0.0464

 1\1\GINC-NODE05\SP\RB2PLYPD3-FC\def2QZVP\C4H6\BOITTIER\26-Aug-2020\0\\
 #p B2PLYPD3/Def2QZVP\\butadiene\\0,1\C,0,-3.826838,0.213067,0.027059\C
 ,0,-2.724299,-0.498624,0.031812\C,0,-1.38206,0.099909,0.005334\C,0,-0.
 27875,-0.660984,0.032169\H,0,-4.76789,-0.299181,-0.015637\H,0,-3.82576
 4,1.304369,0.07252\H,0,-2.767495,-1.587043,0.035234\H,0,-1.280304,1.16
 4341,-0.125724\H,0,-0.417185,-1.748693,0.099354\H,0,0.792752,-0.263929
 ,0.093744\\Version=ES64L-G09RevD.01\State=1-A\HF=-155.6958163\MP2=-155
 .9216598\RMSD=6.466e-09\PG=C01 [X(C4H6)]\\@

 Normal termination of Gaussian 09 at Wed Aug 26 10:57:00 2020.
