 Gaussian 09, Revision D.01,
 Gaussian 09:  ES64L-G09RevD.01 24-Apr-2013

 --------------------
 #p B2PLYPD3/Def2QZVP
 --------------------

 ---------
 butadiene
 ---------
 Symbolic Z-matrix:
 Charge =  0 Multiplicity = 1

                         Standard orientation:
 ---------------------------------------------------------------------
 Center     Atomic      Atomic             Coordinates (Angstroms)
 Number     Number       Type             X           Y           Z
 ---------------------------------------------------------------------
      1          6           0       -1.845732   -0.126830    0.006379
      2          6           0       -0.623256    0.410969   -0.037256
      3          6           0        0.604167   -0.384899   -0.006387
      4          6           0        1.839508    0.102388    0.017972
      5          1           0       -2.659395    0.533417    0.000323
      6          1           0       -1.977215   -1.188231    0.172364
      7          1           0       -0.456806    1.508774   -0.032870
      8          1           0        0.534504   -1.465946   -0.103495
      9          1           0        2.075208    1.155988    0.127168
     10          1           0        2.635580   -0.553771   -0.047737
 ---------------------------------------------------------------------

 SCF Done:  E(RB2PLYPD3) =  -155.696156166     A.U. after   11 cycles
 E2(B2PLYPD3) =    -0.2253991255D+00 E(B2PLYPD3) =    -0.15592155529151D+03

 The electronic state is 1-A.
 Alpha  occ. eigenvalues --  -10.62865 -10.62271 -10.61217 -10.60759  -0.92848
 Alpha  occ. eigenvalues --   -0.85345  -0.70420  -0.63654  -0.54816  -0.54303
 Alpha  occ. eigenvalues --   -0.46610  -0.46055  -0.41065  -0.37924  -0.27785
 Alpha virt. eigenvalues --    0.01799   0.07100   0.07396   0.08091   0.09554
 Alpha virt. eigenvalues --    0.11696   0.12337   0.14965   0.15721   0.16185
 Alpha virt. eigenvalues --    0.18766   0.20282   0.21684   0.22621   0.24224

 Mulliken charges:
               1
     1  C   -0.175178
     2  C   -0.039464
     3  C   -0.022847
     4  C   -0.180952
     5  H    0.089527
     6  H    0.074830
     7  H    0.053271
     8  H    0.051438
     9  H    0.064038
    10  H    0.085337
 Sum of Mulliken charges =   0.00000

 Dipole moment (field-independent basis, Debye):
    X=              0.0219    Y=              0.0079    Z=              0.0948  Tot=              0.0976
 Quadrupole moment (field-independent basis, Debye-Ang):
   XX=            -23.6581   YY=            -22.9717   ZZ=            -29.1573
   XY=              0.0956   XZ=             -0.3043   YZ=              0.0638

 1\1\GINC-NODE32\SP\RB2PLYPD3-FC\def2QZVP\C4H6\BOITTIER\26-Aug-2020\0\\
 #p B2PLYPD3/Def2QZVP\\butadiene\\0,1\C,0,-3.842235,0.239773,0.006646\C
 ,0,-2.735874,-0.507061,0.06817\C,0,-1.385735,0.055034,0.022367\C,0,-0.
 257713,-0.64612,0.014722\H,0,-4.761027,-0.263677,0.025876\H,0,-3.78152
 3,1.303086,-0.185943\H,0,-2.768822,-1.616688,0.091472\H,0,-1.260506,1.
 133153,0.092539\H,0,-0.214682,-1.727289,-0.06758\H,0,0.643089,-0.14175
 1,0.067269\\Version=ES64L-G09RevD.01\State=1-A\HF=-155.6961562\MP2=-15
 5.9215553\RMSD=6.010e-09\PG=C01 [X(C4H6)]\\@

 Normal termination of Gaussian 09 at Wed Aug 26 09:14:18 2020.
