 Gaussian 09, Revision D.01,
 Gaussian 09:  ES64L-G09RevD.01 24-Apr-2013

 --------------------
 #p B2PLYPD3/Def2QZVP
 --------------------

 ---------
 butadiene
 ---------
 Symbolic Z-matrix:
 Charge =  0 Multiplicity = 1

                         Standard orientation:
 ---------------------------------------------------------------------
 Center     Atomic      Atomic             Coordinates (Angstroms)
 Number     Number       Type             X           Y           Z
 ---------------------------------------------------------------------
      1          6           0        1.817779    0.079289   -0.071299
      2          6           0        0.590876   -0.382012    0.050989
      3          6           0       -0.573200    0.453926    0.047584
      4          6           0       -1.810364   -0.153584   -0.031458
      5          1           0        2.650094   -0.628579    0.089532
      6          1           0        2.050567    1.131008   -0.306411
      7          1           0        0.436743   -1.395422    0.262598
      8          1           0       -0.458226    1.572757    0.347606
      9          1           0       -2.093630   -1.185544   -0.238194
     10          1           0       -2.736091    0.520066   -0.130024
 ---------------------------------------------------------------------

 SCF Done:  E(RB2PLYPD3) =  -155.678339259     A.U. after   12 cycles
 E2(B2PLYPD3) =    -0.2277867124D+00 E(B2PLYPD3) =    -0.15590612597139D+03

 The electronic state is 1-A.
 Alpha  occ. eigenvalues --  -10.64095 -10.63025 -10.61534 -10.61376  -0.93205
 Alpha  occ. eigenvalues --   -0.84016  -0.69739  -0.63742  -0.54582  -0.52855
 Alpha  occ. eigenvalues --   -0.46518  -0.44849  -0.40728  -0.37466  -0.27361
 Alpha virt. eigenvalues --    0.01278   0.06906   0.07186   0.07559   0.09170
 Alpha virt. eigenvalues --    0.11334   0.12323   0.14797   0.15421   0.16043
 Alpha virt. eigenvalues --    0.18701   0.19513   0.21701   0.22383   0.23281

 Mulliken charges:
               1
     1  C   -0.182231
     2  C   -0.023716
     3  C   -0.050648
     4  C   -0.178470
     5  H    0.077983
     6  H    0.071183
     7  H    0.070530
     8  H    0.075883
     9  H    0.076972
    10  H    0.062513
 Sum of Mulliken charges =   0.00000

 Dipole moment (field-independent basis, Debye):
    X=             -0.0206    Y=             -0.0663    Z=              0.0777  Tot=              0.1042
 Quadrupole moment (field-independent basis, Debye-Ang):
   XX=            -24.2024   YY=            -23.0843   ZZ=            -29.1573
   XY=              0.6355   XZ=              0.5183   YZ=             -0.0432

 1\1\GINC-NODE32\SP\RB2PLYPD3-FC\def2QZVP\C4H6\BOITTIER\26-Aug-2020\0\\
 #p B2PLYPD3/Def2QZVP\\butadiene\\0,1\C,0,-3.819871,0.207139,0.079525\C
 ,0,-2.70152,-0.480663,-0.016711\C,0,-1.401266,0.12156,-0.040023\C,0,-0
 .299932,-0.703461,0.070858\H,0,-4.77049,-0.338024,-0.057631\H,0,-3.850
 795,1.29254,0.270655\H,0,-2.740627,-1.512759,-0.186373\H,0,-1.304772,1
 .228942,-0.385582\H,0,-0.21498,-1.760946,0.320715\H,0,0.735915,-0.2119
 33,0.14774\\Version=ES64L-G09RevD.01\State=1-A\HF=-155.6783393\MP2=-15
 5.906126\RMSD=4.699e-09\PG=C01 [X(C4H6)]\\@

 Normal termination of Gaussian 09 at Wed Aug 26 14:47:27 2020.
