 Gaussian 09, Revision D.01,
 Gaussian 09:  ES64L-G09RevD.01 24-Apr-2013

 --------------------
 #p B2PLYPD3/Def2QZVP
 --------------------

 ---------
 butadiene
 ---------
 Symbolic Z-matrix:
 Charge =  0 Multiplicity = 1

                         Standard orientation:
 ---------------------------------------------------------------------
 Center     Atomic      Atomic             Coordinates (Angstroms)
 Number     Number       Type             X           Y           Z
 ---------------------------------------------------------------------
      1          6           0        1.846180    0.108264    0.003350
      2          6           0        0.609892   -0.391882   -0.023978
      3          6           0       -0.618327    0.415796   -0.010743
      4          6           0       -1.846533   -0.118860    0.012311
      5          1           0        2.707006   -0.567635    0.087301
      6          1           0        2.062013    1.159265    0.021797
      7          1           0        0.442988   -1.469310   -0.006535
      8          1           0       -0.482173    1.495498   -0.039193
      9          1           0       -1.954085   -1.198107   -0.014605
     10          1           0       -2.723027    0.500382    0.065597
 ---------------------------------------------------------------------

 SCF Done:  E(RB2PLYPD3) =  -155.700349203     A.U. after   11 cycles
 E2(B2PLYPD3) =    -0.2258306622D+00 E(B2PLYPD3) =    -0.15592617986546D+03

 The electronic state is 1-A.
 Alpha  occ. eigenvalues --  -10.62738 -10.62684 -10.61597 -10.61582  -0.92700
 Alpha  occ. eigenvalues --   -0.84884  -0.69987  -0.64016  -0.54583  -0.53661
 Alpha  occ. eigenvalues --   -0.46836  -0.45771  -0.40915  -0.37888  -0.27767
 Alpha virt. eigenvalues --    0.01784   0.06981   0.07392   0.08081   0.09469
 Alpha virt. eigenvalues --    0.11693   0.12384   0.14703   0.15804   0.16043
 Alpha virt. eigenvalues --    0.18808   0.20542   0.21491   0.22941   0.23815

 Mulliken charges:
               1
     1  C   -0.175796
     2  C   -0.030139
     3  C   -0.032571
     4  C   -0.177544
     5  H    0.082134
     6  H    0.069835
     7  H    0.053743
     8  H    0.054684
     9  H    0.065711
    10  H    0.089943
 Sum of Mulliken charges =   0.00000

 Dipole moment (field-independent basis, Debye):
    X=             -0.0146    Y=              0.0291    Z=              0.0806  Tot=              0.0869
 Quadrupole moment (field-independent basis, Debye-Ang):
   XX=            -23.5506   YY=            -23.0616   ZZ=            -29.3202
   XY=              0.2079   XZ=              0.1632   YZ=             -0.0191

 1\1\GINC-NODE27\SP\RB2PLYPD3-FC\def2QZVP\C4H6\BOITTIER\26-Aug-2020\0\\
 #p B2PLYPD3/Def2QZVP\\butadiene\\0,1\C,0,-3.850504,0.220225,0.010769\C
 ,0,-2.723513,-0.491977,0.055062\C,0,-1.370703,0.082484,0.024389\C,0,-0
 .257918,-0.663545,0.0192\H,0,-4.818441,-0.292874,-0.05804\H,0,-3.87498
 1,1.292019,-0.035977\H,0,-2.75196,-1.581964,0.066474\H,0,-1.311576,1.1
 69502,0.024015\H,0,-0.345012,-1.74354,0.07482\H,0,0.715078,-0.212598,-
 0.047641\\Version=ES64L-G09RevD.01\State=1-A\HF=-155.7003492\MP2=-155.
 9261799\RMSD=3.878e-09\PG=C01 [X(C4H6)]\\@

 Normal termination of Gaussian 09 at Wed Aug 26 19:05:21 2020.
