 Gaussian 09, Revision D.01,
 Gaussian 09:  ES64L-G09RevD.01 24-Apr-2013

 --------------------
 #p B2PLYPD3/Def2QZVP
 --------------------

 ---------
 butadiene
 ---------
 Symbolic Z-matrix:
 Charge =  0 Multiplicity = 1

                         Standard orientation:
 ---------------------------------------------------------------------
 Center     Atomic      Atomic             Coordinates (Angstroms)
 Number     Number       Type             X           Y           Z
 ---------------------------------------------------------------------
      1          6           0        1.829898   -0.114043   -0.021260
      2          6           0        0.601956    0.413529    0.017708
      3          6           0       -0.595216   -0.387173    0.037239
      4          6           0       -1.831499    0.102407   -0.014039
      5          1           0        2.729963    0.486170   -0.031637
      6          1           0        1.969692   -1.184384    0.018668
      7          1           0        0.431555    1.479142    0.002859
      8          1           0       -0.453601   -1.445105   -0.037347
      9          1           0       -2.025216    1.152233   -0.014263
     10          1           0       -2.683227   -0.576373   -0.056170
 ---------------------------------------------------------------------

 SCF Done:  E(RB2PLYPD3) =  -155.700583064     A.U. after   11 cycles
 E2(B2PLYPD3) =    -0.2255157561D+00 E(B2PLYPD3) =    -0.15592609881988D+03

 The electronic state is 1-A.
 Alpha  occ. eigenvalues --  -10.62389 -10.62016 -10.61564 -10.61310  -0.93317
 Alpha  occ. eigenvalues --   -0.84903  -0.70348  -0.64438  -0.54642  -0.54059
 Alpha  occ. eigenvalues --   -0.46746  -0.45812  -0.41209  -0.38299  -0.27609
 Alpha virt. eigenvalues --    0.01700   0.07020   0.07455   0.08124   0.09628
 Alpha virt. eigenvalues --    0.11757   0.12473   0.14833   0.15747   0.16131
 Alpha virt. eigenvalues --    0.18742   0.20323   0.21800   0.22979   0.23979

 Mulliken charges:
               1
     1  C   -0.174460
     2  C   -0.033673
     3  C   -0.021346
     4  C   -0.181690
     5  H    0.085314
     6  H    0.064972
     7  H    0.054723
     8  H    0.055328
     9  H    0.067412
    10  H    0.083419
 Sum of Mulliken charges =   0.00000

 Dipole moment (field-independent basis, Debye):
    X=              0.0150    Y=              0.0035    Z=             -0.0651  Tot=              0.0669
 Quadrupole moment (field-independent basis, Debye-Ang):
   XX=            -23.5143   YY=            -23.1125   ZZ=            -29.1992
   XY=             -0.2352   XZ=              0.1758   YZ=              0.0370

 1\1\GINC-NODE15\SP\RB2PLYPD3-FC\def2QZVP\C4H6\BOITTIER\26-Aug-2020\0\\
 #p B2PLYPD3/Def2QZVP\\butadiene\\0,1\C,0,-3.829372,0.232861,-0.003637\
 C,0,-2.718623,-0.509192,0.053699\C,0,-1.394963,0.058789,0.046859\C,0,-
 0.269568,-0.650461,0.012726\H,0,-4.824185,-0.192274,0.00575\H,0,-3.770
 541,1.311421,0.00015\H,0,-2.746357,-1.587882,0.074833\H,0,-1.340845,1.
 121688,-0.063386\H,0,-0.271406,-1.717427,0.047957\H,0,0.691818,-0.1410
 2,-0.05181\\Version=ES64L-G09RevD.01\State=1-A\HF=-155.7005831\MP2=-15
 5.9260988\RMSD=3.836e-09\PG=C01 [X(C4H6)]\\@

 Normal termination of Gaussian 09 at Wed Aug 26 16:36:38 2020.
