 Gaussian 09, Revision D.01,
 Gaussian 09:  ES64L-G09RevD.01 24-Apr-2013

 --------------------
 #p B2PLYPD3/Def2QZVP
 --------------------

 ---------
 butadiene
 ---------
 Symbolic Z-matrix:
 Charge =  0 Multiplicity = 1

                         Standard orientation:
 ---------------------------------------------------------------------
 Center     Atomic      Atomic             Coordinates (Angstroms)
 Number     Number       Type             X           Y           Z
 ---------------------------------------------------------------------
      1          6           0       -1.818880   -0.120893    0.032224
      2          6           0       -0.603947    0.428004   -0.034973
      3          6           0        0.613499   -0.389180   -0.051023
      4          6           0        1.840665    0.095272    0.015669
      5          1           0       -2.749070    0.429879    0.086940
      6          1           0       -1.997937   -1.217189    0.035059
      7          1           0       -0.580725    1.535005   -0.014260
      8          1           0        0.431491   -1.479965   -0.089267
      9          1           0        1.974200    1.176017   -0.005850
     10          1           0        2.734020   -0.522964    0.215995
 ---------------------------------------------------------------------

 SCF Done:  E(RB2PLYPD3) =  -155.695602587     A.U. after   11 cycles
 E2(B2PLYPD3) =    -0.2260943216D+00 E(B2PLYPD3) =    -0.15592169690848D+03

 The electronic state is 1-A.
 Alpha  occ. eigenvalues --  -10.63024 -10.62823 -10.61792 -10.61597  -0.92888
 Alpha  occ. eigenvalues --   -0.84967  -0.69556  -0.63672  -0.54576  -0.53589
 Alpha  occ. eigenvalues --   -0.46787  -0.44590  -0.40951  -0.38038  -0.27862
 Alpha virt. eigenvalues --    0.01959   0.07024   0.07267   0.07928   0.09412
 Alpha virt. eigenvalues --    0.11563   0.12523   0.14347   0.15803   0.16388
 Alpha virt. eigenvalues --    0.18811   0.20043   0.21848   0.22894   0.23499

 Mulliken charges:
               1
     1  C   -0.166475
     2  C   -0.035295
     3  C   -0.027973
     4  C   -0.169462
     5  H    0.080822
     6  H    0.054551
     7  H    0.055646
     8  H    0.057170
     9  H    0.064095
    10  H    0.086920
 Sum of Mulliken charges =   0.00000

 Dipole moment (field-independent basis, Debye):
    X=             -0.0819    Y=              0.0093    Z=              0.1502  Tot=              0.1714
 Quadrupole moment (field-independent basis, Debye-Ang):
   XX=            -23.3855   YY=            -23.2393   ZZ=            -29.2781
   XY=              0.0876   XZ=              0.2979   YZ=             -0.0570

 1\1\GINC-NODE07\SP\RB2PLYPD3-FC\def2QZVP\C4H6\BOITTIER\26-Aug-2020\0\\
 #p B2PLYPD3/Def2QZVP\\butadiene\\0,1\C,0,-3.824028,0.227551,-0.014808\
 C,0,-2.725496,-0.526054,0.069878\C,0,-1.382193,0.061846,0.058391\C,0,-
 0.261024,-0.634883,0.00713\H,0,-4.837577,-0.150622,-0.050889\H,0,-3.80
 5546,1.337541,-0.053712\H,0,-2.899383,-1.619642,0.085673\H,0,-1.367334
 ,1.16827,0.060727\H,0,-0.321423,-1.720883,0.064216\H,0,0.726644,-0.192
 065,-0.2139\\Version=ES64L-G09RevD.01\State=1-A\HF=-155.6956026\MP2=-1
 55.9216969\RMSD=4.716e-09\PG=C01 [X(C4H6)]\\@

 Normal termination of Gaussian 09 at Wed Aug 26 08:47:16 2020.
