 Gaussian 09, Revision D.01,
 Gaussian 09:  ES64L-G09RevD.01 24-Apr-2013

 --------------------
 #p B2PLYPD3/Def2QZVP
 --------------------

 ---------
 butadiene
 ---------
 Symbolic Z-matrix:
 Charge =  0 Multiplicity = 1

                         Standard orientation:
 ---------------------------------------------------------------------
 Center     Atomic      Atomic             Coordinates (Angstroms)
 Number     Number       Type             X           Y           Z
 ---------------------------------------------------------------------
      1          6           0        1.817932   -0.136145    0.009351
      2          6           0        0.618437    0.426258   -0.010235
      3          6           0       -0.594176   -0.366255   -0.031158
      4          6           0       -1.835520    0.085828   -0.001232
      5          1           0        2.678369    0.503090   -0.043307
      6          1           0        1.942564   -1.231978    0.127891
      7          1           0        0.476578    1.499432   -0.000422
      8          1           0       -0.442747   -1.421044   -0.036855
      9          1           0       -1.981982    1.165595    0.104041
     10          1           0       -2.712820   -0.573209    0.048298
 ---------------------------------------------------------------------

 SCF Done:  E(RB2PLYPD3) =  -155.697930215     A.U. after   11 cycles
 E2(B2PLYPD3) =    -0.2254257103D+00 E(B2PLYPD3) =    -0.15592335592501D+03

 The electronic state is 1-A.
 Alpha  occ. eigenvalues --  -10.62330 -10.61781 -10.61669 -10.61409  -0.93385
 Alpha  occ. eigenvalues --   -0.85170  -0.69851  -0.64122  -0.54528  -0.53884
 Alpha  occ. eigenvalues --   -0.46975  -0.45345  -0.40979  -0.38287  -0.27864
 Alpha virt. eigenvalues --    0.01949   0.07003   0.07338   0.08084   0.09718
 Alpha virt. eigenvalues --    0.11791   0.12332   0.14723   0.15821   0.16041
 Alpha virt. eigenvalues --    0.18671   0.20383   0.21356   0.22831   0.24054

 Mulliken charges:
               1
     1  C   -0.174566
     2  C   -0.037543
     3  C   -0.016422
     4  C   -0.177995
     5  H    0.086362
     6  H    0.071130
     7  H    0.054852
     8  H    0.050074
     9  H    0.057095
    10  H    0.087013
 Sum of Mulliken charges =   0.00000

 Dipole moment (field-independent basis, Debye):
    X=              0.0806    Y=             -0.0055    Z=              0.1617  Tot=              0.1807
 Quadrupole moment (field-independent basis, Debye-Ang):
   XX=            -23.7617   YY=            -23.0792   ZZ=            -29.1655
   XY=              0.0297   XZ=             -0.2351   YZ=             -0.0730

 1\1\GINC-NODE11\SP\RB2PLYPD3-FC\def2QZVP\C4H6\BOITTIER\26-Aug-2020\0\\
 #p B2PLYPD3/Def2QZVP\\butadiene\\0,1\C,0,-3.814686,0.246401,0.027813\C
 ,0,-2.735799,-0.52267,0.026093\C,0,-1.400526,0.03833,-0.009533\C,0,-0.
 260608,-0.628564,0.03574\H,0,-4.776029,-0.228926,-0.012542\H,0,-3.7402
 71,1.349348,0.119489\H,0,-2.789095,-1.603306,0.062248\H,0,-1.359945,1.
 102705,-0.041165\H,0,-0.310486,-1.714189,0.167502\H,0,0.72088,-0.13686
 9,0.072551\\Version=ES64L-G09RevD.01\State=1-A\HF=-155.6979302\MP2=-15
 5.9233559\RMSD=5.859e-09\PG=C01 [X(C4H6)]\\@

 Normal termination of Gaussian 09 at Wed Aug 26 09:26:17 2020.
