 Gaussian 09, Revision D.01,
 Gaussian 09:  ES64L-G09RevD.01 24-Apr-2013

 --------------------
 #p B2PLYPD3/Def2QZVP
 --------------------

 ---------
 butadiene
 ---------
 Symbolic Z-matrix:
 Charge =  0 Multiplicity = 1

                         Standard orientation:
 ---------------------------------------------------------------------
 Center     Atomic      Atomic             Coordinates (Angstroms)
 Number     Number       Type             X           Y           Z
 ---------------------------------------------------------------------
      1          6           0       -1.823038   -0.123424   -0.045543
      2          6           0       -0.585317    0.426362    0.047158
      3          6           0        0.594430   -0.397535    0.041164
      4          6           0        1.828619    0.093650   -0.038825
      5          1           0       -2.722171    0.485833    0.003888
      6          1           0       -2.030795   -1.157658   -0.090165
      7          1           0       -0.485922    1.491258    0.055792
      8          1           0        0.474936   -1.472559    0.118104
      9          1           0        1.985220    1.189989   -0.063365
     10          1           0        2.690569   -0.531182   -0.047979
 ---------------------------------------------------------------------

 SCF Done:  E(RB2PLYPD3) =  -155.697928627     A.U. after   11 cycles
 E2(B2PLYPD3) =    -0.2260071304D+00 E(B2PLYPD3) =    -0.15592393575783D+03

 The electronic state is 1-A.
 Alpha  occ. eigenvalues --  -10.62704 -10.62253 -10.61551 -10.61366  -0.93141
 Alpha  occ. eigenvalues --   -0.84618  -0.70359  -0.64450  -0.54901  -0.53850
 Alpha  occ. eigenvalues --   -0.46692  -0.45244  -0.41690  -0.38082  -0.27341
 Alpha virt. eigenvalues --    0.01552   0.07049   0.07439   0.08044   0.09477
 Alpha virt. eigenvalues --    0.11667   0.12513   0.14755   0.15850   0.16380
 Alpha virt. eigenvalues --    0.18794   0.20256   0.21913   0.22738   0.23755

 Mulliken charges:
               1
     1  C   -0.173019
     2  C   -0.039171
     3  C   -0.026130
     4  C   -0.176329
     5  H    0.075703
     6  H    0.068791
     7  H    0.065175
     8  H    0.058123
     9  H    0.059643
    10  H    0.087214
 Sum of Mulliken charges =   0.00000

 Dipole moment (field-independent basis, Debye):
    X=             -0.0249    Y=             -0.0396    Z=              0.0410  Tot=              0.0622
 Quadrupole moment (field-independent basis, Debye-Ang):
   XX=            -23.5433   YY=            -23.0085   ZZ=            -29.2665
   XY=              0.1986   XZ=             -0.0531   YZ=              0.0000

 1\1\GINC-NODE14\SP\RB2PLYPD3-FC\def2QZVP\C4H6\BOITTIER\26-Aug-2020\0\\
 #p B2PLYPD3/Def2QZVP\\butadiene\\0,1\C,0,-3.823082,0.241867,0.062373\C
 ,0,-2.707503,-0.528115,-0.011266\C,0,-1.396635,0.065205,-0.02681\C,0,-
 0.273237,-0.641479,0.070433\H,0,-4.818864,-0.1933,0.028827\H,0,-3.8374
 68,1.297518,0.076063\H,0,-2.805151,-1.592961,0.01167\H,0,-1.317156,1.1
 41178,-0.135627\H,0,-0.320314,-1.746741,0.127585\H,0,0.688724,-0.18537
 ,0.063176\\Version=ES64L-G09RevD.01\State=1-A\HF=-155.6979286\MP2=-155
 .9239358\RMSD=7.252e-09\PG=C01 [X(C4H6)]\\@

 Normal termination of Gaussian 09 at Wed Aug 26 09:29:12 2020.
