 Gaussian 09, Revision D.01,
 Gaussian 09:  ES64L-G09RevD.01 24-Apr-2013

 --------------------
 #p B2PLYPD3/Def2QZVP
 --------------------

 ---------
 butadiene
 ---------
 Symbolic Z-matrix:
 Charge =  0 Multiplicity = 1

                         Standard orientation:
 ---------------------------------------------------------------------
 Center     Atomic      Atomic             Coordinates (Angstroms)
 Number     Number       Type             X           Y           Z
 ---------------------------------------------------------------------
      1          6           0        1.818107    0.120720   -0.000182
      2          6           0        0.610614   -0.414262   -0.006301
      3          6           0       -0.584411    0.366612   -0.019760
      4          6           0       -1.828216   -0.103045    0.003715
      5          1           0        2.722455   -0.471861   -0.023901
      6          1           0        1.926692    1.203235    0.107084
      7          1           0        0.487987   -1.460657    0.002116
      8          1           0       -0.500739    1.463350   -0.025039
      9          1           0       -2.043343   -1.118315    0.066820
     10          1           0       -2.689614    0.564091    0.008088
 ---------------------------------------------------------------------

 SCF Done:  E(RB2PLYPD3) =  -155.698268359     A.U. after   11 cycles
 E2(B2PLYPD3) =    -0.2250828552D+00 E(B2PLYPD3) =    -0.15592335121413D+03

 The electronic state is 1-A.
 Alpha  occ. eigenvalues --  -10.62181 -10.61825 -10.61441 -10.60858  -0.93645
 Alpha  occ. eigenvalues --   -0.85239  -0.70434  -0.64462  -0.55098  -0.54214
 Alpha  occ. eigenvalues --   -0.46741  -0.45444  -0.41336  -0.38525  -0.27680
 Alpha virt. eigenvalues --    0.01789   0.06990   0.07537   0.08027   0.09882
 Alpha virt. eigenvalues --    0.11732   0.12523   0.14870   0.15898   0.16243
 Alpha virt. eigenvalues --    0.18731   0.20546   0.21708   0.22568   0.24110

 Mulliken charges:
               1
     1  C   -0.168293
     2  C   -0.038450
     3  C   -0.014316
     4  C   -0.181572
     5  H    0.084787
     6  H    0.064475
     7  H    0.060002
     8  H    0.047397
     9  H    0.064921
    10  H    0.081048
 Sum of Mulliken charges =   0.00000

 Dipole moment (field-independent basis, Debye):
    X=              0.0390    Y=             -0.0578    Z=              0.1123  Tot=              0.1322
 Quadrupole moment (field-independent basis, Debye-Ang):
   XX=            -23.4277   YY=            -23.1613   ZZ=            -29.0785
   XY=              0.0413   XZ=             -0.0330   YZ=              0.0505

 1\1\GINC-NODE17\SP\RB2PLYPD3-FC\def2QZVP\C4H6\BOITTIER\26-Aug-2020\0\\
 #p B2PLYPD3/Def2QZVP\\butadiene\\0,1\C,0,-3.816357,0.232816,0.015472\C
 ,0,-2.724482,-0.509754,0.041552\C,0,-1.408658,0.043887,0.030634\C,0,-0
 .269468,-0.641965,0.024996\H,0,-4.812265,-0.186644,0.057675\H,0,-3.729
 357,1.313037,-0.128363\H,0,-2.791701,-1.56085,0.068576\H,0,-1.294095,1
 .13738,-0.001158\H,0,-0.240348,-1.680894,-0.003536\H,0,0.697656,-0.140
 847,-0.000452\\Version=ES64L-G09RevD.01\State=1-A\HF=-155.6982684\MP2=
 -155.9233512\RMSD=2.748e-09\PG=C01 [X(C4H6)]\\@

 Normal termination of Gaussian 09 at Wed Aug 26 08:49:56 2020.
