 Gaussian 09, Revision D.01,
 Gaussian 09:  ES64L-G09RevD.01 24-Apr-2013

 --------------------
 #p B2PLYPD3/Def2QZVP
 --------------------

 ---------
 butadiene
 ---------
 Symbolic Z-matrix:
 Charge =  0 Multiplicity = 1

                         Standard orientation:
 ---------------------------------------------------------------------
 Center     Atomic      Atomic             Coordinates (Angstroms)
 Number     Number       Type             X           Y           Z
 ---------------------------------------------------------------------
      1          6           0       -1.840413   -0.127311    0.028215
      2          6           0       -0.609221    0.405478   -0.049362
      3          6           0        0.621444   -0.373762   -0.046129
      4          6           0        1.852267    0.103558    0.051562
      5          1           0       -2.660656    0.536567    0.073168
      6          1           0       -2.018636   -1.215921    0.063142
      7          1           0       -0.581181    1.517943   -0.032028
      8          1           0        0.445901   -1.484114   -0.036119
      9          1           0        2.015202    1.173715    0.030712
     10          1           0        2.654905   -0.575968   -0.004583
 ---------------------------------------------------------------------

 SCF Done:  E(RB2PLYPD3) =  -155.695928893     A.U. after   11 cycles
 E2(B2PLYPD3) =    -0.2259811081D+00 E(B2PLYPD3) =    -0.15592191000112D+03

 The electronic state is 1-A.
 Alpha  occ. eigenvalues --  -10.62879 -10.62773 -10.61604 -10.61055  -0.92824
 Alpha  occ. eigenvalues --   -0.85257  -0.70222  -0.63126  -0.54553  -0.54206
 Alpha  occ. eigenvalues --   -0.46349  -0.45707  -0.40891  -0.38077  -0.27828
 Alpha virt. eigenvalues --    0.01692   0.07045   0.07259   0.07991   0.09734
 Alpha virt. eigenvalues --    0.11661   0.12284   0.14724   0.15814   0.16057
 Alpha virt. eigenvalues --    0.18810   0.20220   0.21346   0.22669   0.24192

 Mulliken charges:
               1
     1  C   -0.178004
     2  C   -0.028002
     3  C   -0.024263
     4  C   -0.175631
     5  H    0.087850
     6  H    0.066579
     7  H    0.045480
     8  H    0.044997
     9  H    0.070100
    10  H    0.090895
 Sum of Mulliken charges =   0.00000

 Dipole moment (field-independent basis, Debye):
    X=             -0.0467    Y=              0.0158    Z=              0.0203  Tot=              0.0533
 Quadrupole moment (field-independent basis, Debye-Ang):
   XX=            -23.6920   YY=            -22.9849   ZZ=            -29.3068
   XY=             -0.0239   XZ=             -0.3197   YZ=              0.0181

 1\1\GINC-NODE05\SP\RB2PLYPD3-FC\def2QZVP\C4H6\BOITTIER\26-Aug-2020\0\\
 #p B2PLYPD3/Def2QZVP\\butadiene\\0,1\C,0,-3.843637,0.235339,-0.016559\
 C,0,-2.725832,-0.503829,0.082734\C,0,-1.376858,0.045278,0.060126\C,0,-
 0.249878,-0.644791,-0.017502\H,0,-4.768337,-0.274297,-0.044045\H,0,-3.
 826773,1.336658,-0.086325\H,0,-2.89481,-1.603738,0.100397\H,0,-1.35347
 7,1.168299,0.014593\H,0,-0.278551,-1.7257,0.037553\H,0,0.660275,-0.116
 298,0.020607\\Version=ES64L-G09RevD.01\State=1-A\HF=-155.6959289\MP2=-
 155.92191\RMSD=6.308e-09\PG=C01 [X(C4H6)]\\@

 Normal termination of Gaussian 09 at Wed Aug 26 12:21:16 2020.
