 Gaussian 09, Revision D.01,
 Gaussian 09:  ES64L-G09RevD.01 24-Apr-2013

 --------------------
 #p B2PLYPD3/Def2QZVP
 --------------------

 ---------
 butadiene
 ---------
 Symbolic Z-matrix:
 Charge =  0 Multiplicity = 1

                         Standard orientation:
 ---------------------------------------------------------------------
 Center     Atomic      Atomic             Coordinates (Angstroms)
 Number     Number       Type             X           Y           Z
 ---------------------------------------------------------------------
      1          6           0       -1.853140    0.105451    0.029173
      2          6           0       -0.624895   -0.379856   -0.031763
      3          6           0        0.614846    0.410213   -0.029126
      4          6           0        1.845133   -0.119668    0.040408
      5          1           0       -2.612161   -0.575163   -0.002538
      6          1           0       -2.068106    1.149123    0.097011
      7          1           0       -0.450803   -1.462032   -0.124674
      8          1           0        0.536296    1.499045   -0.070432
      9          1           0        1.973764   -1.194745    0.120947
     10          1           0        2.729350    0.486929   -0.072463
 ---------------------------------------------------------------------

 SCF Done:  E(RB2PLYPD3) =  -155.696933347     A.U. after   11 cycles
 E2(B2PLYPD3) =    -0.2252955262D+00 E(B2PLYPD3) =    -0.15592222887347D+03

 The electronic state is 1-A.
 Alpha  occ. eigenvalues --  -10.62674 -10.62570 -10.61567 -10.60533  -0.92764
 Alpha  occ. eigenvalues --   -0.85354  -0.70388  -0.63749  -0.54841  -0.54292
 Alpha  occ. eigenvalues --   -0.46859  -0.46058  -0.40910  -0.37811  -0.27903
 Alpha virt. eigenvalues --    0.01814   0.07063   0.07458   0.08089   0.09689
 Alpha virt. eigenvalues --    0.11673   0.12378   0.14824   0.15753   0.16213
 Alpha virt. eigenvalues --    0.18903   0.20255   0.21670   0.22572   0.24011

 Mulliken charges:
               1
     1  C   -0.180021
     2  C   -0.029597
     3  C   -0.033115
     4  C   -0.175308
     5  H    0.090425
     6  H    0.074275
     7  H    0.050206
     8  H    0.053124
     9  H    0.062243
    10  H    0.087767
 Sum of Mulliken charges =   0.00000

 Dipole moment (field-independent basis, Debye):
    X=             -0.0189    Y=              0.0109    Z=             -0.0786  Tot=              0.0815
 Quadrupole moment (field-independent basis, Debye-Ang):
   XX=            -23.4868   YY=            -23.0541   ZZ=            -29.1771
   XY=             -0.1492   XZ=             -0.1777   YZ=             -0.0081

 1\1\GINC-NODE05\SP\RB2PLYPD3-FC\def2QZVP\C4H6\BOITTIER\26-Aug-2020\0\\
 #p B2PLYPD3/Def2QZVP\\butadiene\\0,1\C,0,-3.855071,0.217364,0.048336\C
 ,0,-2.732984,-0.480247,0.002706\C,0,-1.372542,0.07647,-0.018233\C,0,-0
 .255713,-0.661426,0.067904\H,0,-4.723144,-0.318058,0.037073\H,0,-3.880
 736,1.284188,0.084259\H,0,-2.754511,-1.578428,-0.057121\H,0,-1.256486,
 1.160173,-0.092725\H,0,-0.319844,-1.739327,0.181212\H,0,0.721676,-0.22
 5418,-0.063042\\Version=ES64L-G09RevD.01\State=1-A\HF=-155.6969333\MP2
 =-155.9222289\RMSD=5.619e-09\PG=C01 [X(C4H6)]\\@

 Normal termination of Gaussian 09 at Wed Aug 26 10:32:17 2020.
