 Gaussian 09, Revision D.01,
 Gaussian 09:  ES64L-G09RevD.01 24-Apr-2013

 --------------------
 #p B2PLYPD3/Def2QZVP
 --------------------

 ---------
 butadiene
 ---------
 Symbolic Z-matrix:
 Charge =  0 Multiplicity = 1

                         Standard orientation:
 ---------------------------------------------------------------------
 Center     Atomic      Atomic             Coordinates (Angstroms)
 Number     Number       Type             X           Y           Z
 ---------------------------------------------------------------------
      1          6           0        1.822205    0.108616    0.034227
      2          6           0        0.590720   -0.396285   -0.069955
      3          6           0       -0.584353    0.436404   -0.053723
      4          6           0       -1.815210   -0.121399    0.039156
      5          1           0        2.644508   -0.650993    0.034929
      6          1           0        2.151292    1.151036    0.129010
      7          1           0        0.396201   -1.448365    0.065301
      8          1           0       -0.513403    1.505559   -0.043888
      9          1           0       -1.955915   -1.186026    0.023419
     10          1           0       -2.802858    0.464770    0.093006
 ---------------------------------------------------------------------

 SCF Done:  E(RB2PLYPD3) =  -155.689655398     A.U. after   11 cycles
 E2(B2PLYPD3) =    -0.2269889771D+00 E(B2PLYPD3) =    -0.15591664437524D+03

 The electronic state is 1-A.
 Alpha  occ. eigenvalues --  -10.62573 -10.62509 -10.62265 -10.62089  -0.93179
 Alpha  occ. eigenvalues --   -0.84273  -0.69610  -0.64547  -0.54039  -0.53778
 Alpha  occ. eigenvalues --   -0.46283  -0.45012  -0.41074  -0.38079  -0.27318
 Alpha virt. eigenvalues --    0.01527   0.06929   0.07353   0.07915   0.09146
 Alpha virt. eigenvalues --    0.11562   0.12332   0.14798   0.15515   0.16319
 Alpha virt. eigenvalues --    0.18707   0.20007   0.21656   0.22693   0.23954

 Mulliken charges:
               1
     1  C   -0.174470
     2  C   -0.033974
     3  C   -0.033883
     4  C   -0.173644
     5  H    0.069119
     6  H    0.078931
     7  H    0.067768
     8  H    0.064924
     9  H    0.062133
    10  H    0.073095
 Sum of Mulliken charges =   0.00000

 Dipole moment (field-independent basis, Debye):
    X=             -0.0001    Y=              0.0235    Z=              0.1820  Tot=              0.1835
 Quadrupole moment (field-independent basis, Debye-Ang):
   XX=            -23.8354   YY=            -22.9897   ZZ=            -29.3857
   XY=              0.5310   XZ=              0.1297   YZ=              0.0168

 1\1\GINC-NODE31\SP\RB2PLYPD3-FC\def2QZVP\C4H6\BOITTIER\26-Aug-2020\0\\
 #p B2PLYPD3/Def2QZVP\\butadiene\\0,1\C,0,-3.821619,0.225561,-0.02297\C
 ,0,-2.704843,-0.496128,0.096662\C,0,-1.395868,0.103847,0.064325\C,0,-0
 .289799,-0.674353,-0.011808\H,0,-4.770417,-0.36837,-0.008243\H,0,-3.95
 2021,1.308365,-0.143182\H,0,-2.708806,-1.56893,-0.013269\H,0,-1.267525
 ,1.167104,0.029167\H,0,-0.348747,-1.745944,0.029348\H,0,0.789269,-0.28
 273,-0.076512\\Version=ES64L-G09RevD.01\State=1-A\HF=-155.6896554\MP2=
 -155.9166444\RMSD=4.499e-09\PG=C01 [X(C4H6)]\\@

 Normal termination of Gaussian 09 at Wed Aug 26 12:46:12 2020.
