 Gaussian 09, Revision D.01,
 Gaussian 09:  ES64L-G09RevD.01 24-Apr-2013

 --------------------
 #p B2PLYPD3/Def2QZVP
 --------------------

 ---------
 butadiene
 ---------
 Symbolic Z-matrix:
 Charge =  0 Multiplicity = 1

                         Standard orientation:
 ---------------------------------------------------------------------
 Center     Atomic      Atomic             Coordinates (Angstroms)
 Number     Number       Type             X           Y           Z
 ---------------------------------------------------------------------
      1          6           0        1.853310   -0.152823    0.059255
      2          6           0        0.605439    0.435572   -0.042280
      3          6           0       -0.626866   -0.320604   -0.075544
      4          6           0       -1.860014    0.051490    0.013846
      5          1           0        2.684694    0.471203    0.058712
      6          1           0        2.072270   -1.148987    0.092806
      7          1           0        0.499942    1.495190   -0.096437
      8          1           0       -0.377637   -1.376827   -0.199419
      9          1           0       -2.094112    1.118230    0.129744
     10          1           0       -2.616371   -0.640619    0.282940
 ---------------------------------------------------------------------

 SCF Done:  E(RB2PLYPD3) =  -155.684258749     A.U. after   11 cycles
 E2(B2PLYPD3) =    -0.2256873218D+00 E(B2PLYPD3) =    -0.15590994607126D+03

 The electronic state is 1-A.
 Alpha  occ. eigenvalues --  -10.63180 -10.61762 -10.61453 -10.60758  -0.93206
 Alpha  occ. eigenvalues --   -0.85319  -0.71750  -0.64146  -0.55272  -0.54069
 Alpha  occ. eigenvalues --   -0.47778  -0.46379  -0.40803  -0.37523  -0.27711
 Alpha virt. eigenvalues --    0.01082   0.06978   0.07624   0.08196   0.09841
 Alpha virt. eigenvalues --    0.11589   0.12553   0.15087   0.15568   0.16285
 Alpha virt. eigenvalues --    0.19037   0.19700   0.22114   0.22470   0.23523

 Mulliken charges:
               1
     1  C   -0.178951
     2  C   -0.052280
     3  C   -0.009278
     4  C   -0.166087
     5  H    0.083267
     6  H    0.076020
     7  H    0.059480
     8  H    0.048405
     9  H    0.052790
    10  H    0.086632
 Sum of Mulliken charges =   0.00000

 Dipole moment (field-independent basis, Debye):
    X=              0.1720    Y=             -0.0264    Z=              0.1850  Tot=              0.2540
 Quadrupole moment (field-independent basis, Debye-Ang):
   XX=            -23.4596   YY=            -23.3083   ZZ=            -28.9681
   XY=             -0.4079   XZ=             -0.7178   YZ=             -0.1120

 1\1\GINC-NODE07\SP\RB2PLYPD3-FC\def2QZVP\C4H6\BOITTIER\26-Aug-2020\0\\
 #p B2PLYPD3/Def2QZVP\\butadiene\\0,1\C,0,-3.848419,0.278676,0.072566\C
 ,0,-2.730018,-0.531191,-0.011082\C,0,-1.379269,-0.015736,-0.046662\C,0
 ,-0.236292,-0.607263,0.057251\H,0,-4.780609,-0.181348,0.07529\H,0,-3.8
 80069,1.298538,0.089642\H,0,-2.821495,-1.592828,-0.048638\H,0,-1.4289,
 1.066205,-0.188108\H,0,-0.203436,-1.696879,0.190769\H,0,0.633531,-0.06
 22,0.321479\\Version=ES64L-G09RevD.01\State=1-A\HF=-155.6842587\MP2=-1
 55.9099461\RMSD=7.946e-09\PG=C01 [X(C4H6)]\\@

 Normal termination of Gaussian 09 at Wed Aug 26 13:31:46 2020.
