 Gaussian 09, Revision D.01,
 Gaussian 09:  ES64L-G09RevD.01 24-Apr-2013

 --------------------
 #p B2PLYPD3/Def2QZVP
 --------------------

 ---------
 butadiene
 ---------
 Symbolic Z-matrix:
 Charge =  0 Multiplicity = 1

                         Standard orientation:
 ---------------------------------------------------------------------
 Center     Atomic      Atomic             Coordinates (Angstroms)
 Number     Number       Type             X           Y           Z
 ---------------------------------------------------------------------
      1          6           0        1.846450    0.096266    0.014378
      2          6           0        0.607813   -0.384362   -0.018326
      3          6           0       -0.599475    0.403216   -0.006425
      4          6           0       -1.841745   -0.117610    0.008461
      5          1           0        2.682049   -0.530688    0.062366
      6          1           0        2.022002    1.150799   -0.034024
      7          1           0        0.459416   -1.447335   -0.042498
      8          1           0       -0.493260    1.496349   -0.016972
      9          1           0       -2.040474   -1.177830    0.008947
     10          1           0       -2.707990    0.523644    0.033652
 ---------------------------------------------------------------------

 SCF Done:  E(RB2PLYPD3) =  -155.700151855     A.U. after   11 cycles
 E2(B2PLYPD3) =    -0.2255129372D+00 E(B2PLYPD3) =    -0.15592566479211D+03

 The electronic state is 1-A.
 Alpha  occ. eigenvalues --  -10.62754 -10.62163 -10.61656 -10.60897  -0.93090
 Alpha  occ. eigenvalues --   -0.84996  -0.70733  -0.64116  -0.55027  -0.54070
 Alpha  occ. eigenvalues --   -0.46823  -0.45829  -0.41306  -0.38133  -0.27562
 Alpha virt. eigenvalues --    0.01532   0.07021   0.07486   0.08102   0.09754
 Alpha virt. eigenvalues --    0.11668   0.12479   0.14852   0.15935   0.16164
 Alpha virt. eigenvalues --    0.18835   0.20630   0.21743   0.22771   0.23762

 Mulliken charges:
               1
     1  C   -0.177551
     2  C   -0.026020
     3  C   -0.030720
     4  C   -0.177722
     5  H    0.089007
     6  H    0.065111
     7  H    0.053798
     8  H    0.052195
     9  H    0.067404
    10  H    0.084500
 Sum of Mulliken charges =   0.00000

 Dipole moment (field-independent basis, Debye):
    X=             -0.0036    Y=             -0.0186    Z=             -0.0073  Tot=              0.0203
 Quadrupole moment (field-independent basis, Debye-Ang):
   XX=            -23.3175   YY=            -23.1338   ZZ=            -29.2101
   XY=              0.1771   XZ=             -0.0061   YZ=             -0.0505

 1\1\GINC-NODE12\SP\RB2PLYPD3-FC\def2QZVP\C4H6\BOITTIER\26-Aug-2020\0\\
 #p B2PLYPD3/Def2QZVP\\butadiene\\0,1\C,0,-3.848969,0.214872,0.004796\C
 ,0,-2.718117,-0.481709,0.052157\C,0,-1.387919,0.072897,0.021355\C,0,-0
 .260949,-0.665111,0.022211\H,0,-4.784685,-0.250923,-0.027927\H,0,-3.82
 993,1.284652,0.025028\H,0,-2.765157,-1.552946,0.104654\H,0,-1.293809,1
 .167032,0.002835\H,0,-0.258074,-1.743432,0.050066\H,0,0.707263,-0.1927
 49,-0.018549\\Version=ES64L-G09RevD.01\State=1-A\HF=-155.7001519\MP2=-
 155.9256648\RMSD=5.014e-09\PG=C01 [X(C4H6)]\\@

 Normal termination of Gaussian 09 at Wed Aug 26 21:48:05 2020.
