 Gaussian 09, Revision D.01,
 Gaussian 09:  ES64L-G09RevD.01 24-Apr-2013

 --------------------
 #p B2PLYPD3/Def2QZVP
 --------------------

 ---------
 butadiene
 ---------
 Symbolic Z-matrix:
 Charge =  0 Multiplicity = 1

                         Standard orientation:
 ---------------------------------------------------------------------
 Center     Atomic      Atomic             Coordinates (Angstroms)
 Number     Number       Type             X           Y           Z
 ---------------------------------------------------------------------
      1          6           0        1.824996    0.125523   -0.016556
      2          6           0        0.606080   -0.422358    0.008602
      3          6           0       -0.597374    0.380581   -0.004913
      4          6           0       -1.826641   -0.090288   -0.025263
      5          1           0        2.756736   -0.487820    0.034516
      6          1           0        1.924673    1.196920   -0.035636
      7          1           0        0.460187   -1.489723    0.054407
      8          1           0       -0.461179    1.499038    0.118549
      9          1           0       -1.959530   -1.148079    0.019831
     10          1           0       -2.763249    0.468914    0.037115
 ---------------------------------------------------------------------

 SCF Done:  E(RB2PLYPD3) =  -155.696025909     A.U. after   11 cycles
 E2(B2PLYPD3) =    -0.2258662423D+00 E(B2PLYPD3) =    -0.15592189215137D+03

 The electronic state is 1-A.
 Alpha  occ. eigenvalues --  -10.62667 -10.62576 -10.61955 -10.61113  -0.93307
 Alpha  occ. eigenvalues --   -0.85039  -0.69912  -0.63929  -0.54683  -0.53740
 Alpha  occ. eigenvalues --   -0.47066  -0.44945  -0.40844  -0.38226  -0.27865
 Alpha virt. eigenvalues --    0.01854   0.07034   0.07292   0.07954   0.09613
 Alpha virt. eigenvalues --    0.11636   0.12640   0.14500   0.15730   0.16259
 Alpha virt. eigenvalues --    0.18738   0.20303   0.21863   0.22930   0.23546

 Mulliken charges:
               1
     1  C   -0.169672
     2  C   -0.037877
     3  C   -0.015134
     4  C   -0.170582
     5  H    0.084238
     6  H    0.069104
     7  H    0.056959
     8  H    0.044136
     9  H    0.053579
    10  H    0.085248
 Sum of Mulliken charges =   0.00000

 Dipole moment (field-independent basis, Debye):
    X=              0.0027    Y=             -0.0457    Z=              0.2080  Tot=              0.2130
 Quadrupole moment (field-independent basis, Debye-Ang):
   XX=            -23.2845   YY=            -23.3539   ZZ=            -29.2274
   XY=              0.1159   XZ=             -0.1667   YZ=              0.0049

 1\1\GINC-NODE09\SP\RB2PLYPD3-FC\def2QZVP\C4H6\BOITTIER\26-Aug-2020\0\\
 #p B2PLYPD3/Def2QZVP\\butadiene\\0,1\C,0,-3.823872,0.235952,0.031656\C
 ,0,-2.722845,-0.521839,0.024178\C,0,-1.395058,0.052668,0.013276\C,0,-0
 .269832,-0.629848,0.048891\H,0,-4.850593,-0.20192,-0.00075\H,0,-3.7300
 77,1.307954,0.017308\H,0,-2.770585,-1.598972,0.011711\H,0,-1.329494,1.
 173105,-0.145028\H,0,-0.328649,-1.695217,0.036829\H,0,0.75141,-0.24957
 4,-0.030409\\Version=ES64L-G09RevD.01\State=1-A\HF=-155.6960259\MP2=-1
 55.9218922\RMSD=6.801e-09\PG=C01 [X(C4H6)]\\@

 Normal termination of Gaussian 09 at Wed Aug 26 08:41:21 2020.
