 Gaussian 09, Revision D.01,
 Gaussian 09:  ES64L-G09RevD.01 24-Apr-2013

 --------------------
 #p B2PLYPD3/Def2QZVP
 --------------------

 ---------
 butadiene
 ---------
 Symbolic Z-matrix:
 Charge =  0 Multiplicity = 1

                         Standard orientation:
 ---------------------------------------------------------------------
 Center     Atomic      Atomic             Coordinates (Angstroms)
 Number     Number       Type             X           Y           Z
 ---------------------------------------------------------------------
      1          6           0        1.836520    0.107203   -0.008139
      2          6           0        0.615805   -0.405958    0.002763
      3          6           0       -0.604721    0.406714    0.000615
      4          6           0       -1.841543   -0.117531    0.003250
      5          1           0        2.719866   -0.509544    0.025124
      6          1           0        1.954914    1.201939   -0.051633
      7          1           0        0.482535   -1.486673    0.035105
      8          1           0       -0.475494    1.509098    0.072701
      9          1           0       -2.017045   -1.182335   -0.039836
     10          1           0       -2.701145    0.524947   -0.032393
 ---------------------------------------------------------------------

 SCF Done:  E(RB2PLYPD3) =  -155.699966259     A.U. after   11 cycles
 E2(B2PLYPD3) =    -0.2258486249D+00 E(B2PLYPD3) =    -0.15592581488439D+03

 The electronic state is 1-A.
 Alpha  occ. eigenvalues --  -10.63038 -10.62472 -10.61516 -10.61494  -0.92788
 Alpha  occ. eigenvalues --   -0.84944  -0.69855  -0.63715  -0.54598  -0.53765
 Alpha  occ. eigenvalues --   -0.46623  -0.45479  -0.41036  -0.37997  -0.27793
 Alpha virt. eigenvalues --    0.01881   0.07040   0.07297   0.08038   0.09468
 Alpha virt. eigenvalues --    0.11682   0.12407   0.14614   0.15771   0.16149
 Alpha virt. eigenvalues --    0.18745   0.20288   0.21629   0.22946   0.23845

 Mulliken charges:
               1
     1  C   -0.172919
     2  C   -0.028381
     3  C   -0.032589
     4  C   -0.177874
     5  H    0.089126
     6  H    0.062130
     7  H    0.053788
     8  H    0.052631
     9  H    0.068183
    10  H    0.085906
 Sum of Mulliken charges =   0.00000

 Dipole moment (field-independent basis, Debye):
    X=              0.0044    Y=             -0.0312    Z=              0.0057  Tot=              0.0320
 Quadrupole moment (field-independent basis, Debye-Ang):
   XX=            -23.5523   YY=            -23.0547   ZZ=            -29.3192
   XY=              0.0751   XZ=              0.1454   YZ=             -0.0009

 1\1\GINC-NODE09\SP\RB2PLYPD3-FC\def2QZVP\C4H6\BOITTIER\26-Aug-2020\0\\
 #p B2PLYPD3/Def2QZVP\\butadiene\\0,1\C,0,-3.839132,0.219296,0.023855\C
 ,0,-2.729579,-0.503493,0.031959\C,0,-1.383651,0.078095,0.013107\C,0,-0
 .260206,-0.658219,0.029854\H,0,-4.818417,-0.230692,0.006668\H,0,-3.760
 215,1.318399,0.033961\H,0,-2.791329,-1.591123,0.03262\H,0,-1.314323,1.
 183162,-0.092576\H,0,-0.277371,-1.735457,0.10555\H,0,0.700312,-0.17861
 7,0.048576\\Version=ES64L-G09RevD.01\State=1-A\HF=-155.6999663\MP2=-15
 5.9258149\RMSD=5.625e-09\PG=C01 [X(C4H6)]\\@

 Normal termination of Gaussian 09 at Wed Aug 26 20:08:45 2020.
