 Gaussian 09, Revision D.01,
 Gaussian 09:  ES64L-G09RevD.01 24-Apr-2013

 --------------------
 #p B2PLYPD3/Def2QZVP
 --------------------

 ---------
 butadiene
 ---------
 Symbolic Z-matrix:
 Charge =  0 Multiplicity = 1

                         Standard orientation:
 ---------------------------------------------------------------------
 Center     Atomic      Atomic             Coordinates (Angstroms)
 Number     Number       Type             X           Y           Z
 ---------------------------------------------------------------------
      1          6           0       -1.822278    0.089748   -0.089795
      2          6           0       -0.589341   -0.379080    0.042943
      3          6           0        0.616708    0.443779    0.081976
      4          6           0        1.834074   -0.137182   -0.065099
      5          1           0       -2.704211   -0.551001    0.069893
      6          1           0       -2.053185    1.222300   -0.126189
      7          1           0       -0.611865   -1.461208    0.259667
      8          1           0        0.494530    1.538640    0.178399
      9          1           0        1.811798   -1.262866   -0.152236
     10          1           0        2.827955    0.410554   -0.049684
 ---------------------------------------------------------------------

 SCF Done:  E(RB2PLYPD3) =  -155.683891705     A.U. after   11 cycles
 E2(B2PLYPD3) =    -0.2277338394D+00 E(B2PLYPD3) =    -0.15591162554386D+03

 The electronic state is 1-A.
 Alpha  occ. eigenvalues --  -10.63539 -10.63107 -10.62675 -10.62046  -0.92779
 Alpha  occ. eigenvalues --   -0.84486  -0.68816  -0.63196  -0.53880  -0.53345
 Alpha  occ. eigenvalues --   -0.46368  -0.44009  -0.40963  -0.37521  -0.27833
 Alpha virt. eigenvalues --    0.01605   0.07023   0.07105   0.07576   0.09306
 Alpha virt. eigenvalues --    0.11433   0.12295   0.14102   0.15725   0.16190
 Alpha virt. eigenvalues --    0.18876   0.20054   0.20878   0.21553   0.24118

 Mulliken charges:
               1
     1  C   -0.165308
     2  C   -0.020721
     3  C   -0.053140
     4  C   -0.157058
     5  H    0.075844
     6  H    0.047526
     7  H    0.057259
     8  H    0.064599
     9  H    0.062303
    10  H    0.088696
 Sum of Mulliken charges =   0.00000

 Dipole moment (field-independent basis, Debye):
    X=              0.0656    Y=              0.0168    Z=              0.2677  Tot=              0.2762
 Quadrupole moment (field-independent basis, Debye-Ang):
   XX=            -23.6794   YY=            -23.2759   ZZ=            -29.4685
   XY=              0.3061   XZ=             -0.5300   YZ=             -0.1173

 1\1\GINC-NODE26\SP\RB2PLYPD3-FC\def2QZVP\C4H6\BOITTIER\26-Aug-2020\0\\
 #p B2PLYPD3/Def2QZVP\\butadiene\\0,1\C,0,-3.836929,0.185479,-0.058895\
 C,0,-2.702729,-0.485757,0.084587\C,0,-1.372326,0.116764,0.09766\C,0,-0
 .274802,-0.669926,-0.035331\H,0,-4.815232,-0.288328,0.120812\H,0,-3.86
 8782,1.339453,-0.127058\H,0,-2.910508,-1.54124,0.332096\H,0,-1.302682,
 1.218496,0.163107\H,0,-0.491986,-1.77675,-0.090318\H,0,0.798899,-0.302
 212,-0.037588\\Version=ES64L-G09RevD.01\State=1-A\HF=-155.6838917\MP2=
 -155.9116255\RMSD=9.618e-09\PG=C01 [X(C4H6)]\\@

 Normal termination of Gaussian 09 at Wed Aug 26 11:59:46 2020.
