 Gaussian 09, Revision D.01,
 Gaussian 09:  ES64L-G09RevD.01 24-Apr-2013

 --------------------
 #p B2PLYPD3/Def2QZVP
 --------------------

 ---------
 butadiene
 ---------
 Symbolic Z-matrix:
 Charge =  0 Multiplicity = 1

                         Standard orientation:
 ---------------------------------------------------------------------
 Center     Atomic      Atomic             Coordinates (Angstroms)
 Number     Number       Type             X           Y           Z
 ---------------------------------------------------------------------
      1          6           0       -1.836646   -0.126542    0.019441
      2          6           0       -0.605770    0.414947   -0.021876
      3          6           0        0.607539   -0.376758   -0.004567
      4          6           0        1.842819    0.096003    0.003726
      5          1           0       -2.711406    0.504335   -0.010995
      6          1           0       -2.051887   -1.166664   -0.018788
      7          1           0       -0.496137    1.489997    0.030568
      8          1           0        0.464234   -1.460822   -0.003131
      9          1           0        2.040937    1.161100    0.001663
     10          1           0        2.706607   -0.573840    0.020335
 ---------------------------------------------------------------------

 SCF Done:  E(RB2PLYPD3) =  -155.700151763     A.U. after   11 cycles
 E2(B2PLYPD3) =    -0.2255984034D+00 E(B2PLYPD3) =    -0.15592575016613D+03

 The electronic state is 1-A.
 Alpha  occ. eigenvalues --  -10.62717 -10.62295 -10.61503 -10.61409  -0.93025
 Alpha  occ. eigenvalues --   -0.84971  -0.70379  -0.64086  -0.54601  -0.54059
 Alpha  occ. eigenvalues --   -0.46812  -0.45564  -0.40961  -0.38199  -0.27712
 Alpha virt. eigenvalues --    0.01665   0.06979   0.07466   0.08028   0.09684
 Alpha virt. eigenvalues --    0.11657   0.12418   0.14854   0.15781   0.16208
 Alpha virt. eigenvalues --    0.18822   0.20288   0.21959   0.22764   0.23703

 Mulliken charges:
               1
     1  C   -0.172237
     2  C   -0.038710
     3  C   -0.022258
     4  C   -0.176288
     5  H    0.079067
     6  H    0.069606
     7  H    0.059144
     8  H    0.051750
     9  H    0.064493
    10  H    0.085434
 Sum of Mulliken charges =   0.00000

 Dipole moment (field-independent basis, Debye):
    X=             -0.0443    Y=             -0.0099    Z=             -0.0044  Tot=              0.0457
 Quadrupole moment (field-independent basis, Debye-Ang):
   XX=            -23.3936   YY=            -23.1060   ZZ=            -29.2467
   XY=              0.2714   XZ=              0.1132   YZ=              0.0552

 1\1\GINC-NODE28\SP\RB2PLYPD3-FC\def2QZVP\C4H6\BOITTIER\26-Aug-2020\0\\
 #p B2PLYPD3/Def2QZVP\\butadiene\\0,1\C,0,-3.836457,0.241251,0.000264\C
 ,0,-2.723431,-0.51241,0.056314\C,0,-1.387191,0.046465,0.019746\C,0,-0.
 257615,-0.641667,0.024452\H,0,-4.810625,-0.220302,0.046112\H,0,-3.8602
 09,1.30377,0.011793\H,0,-2.809911,-1.590558,0.031385\H,0,-1.332409,1.1
 38197,-0.009443\H,0,-0.255058,-1.724634,0.053826\H,0,0.71285,-0.139471
 ,-0.008574\\Version=ES64L-G09RevD.01\State=1-A\HF=-155.7001518\MP2=-15
 5.9257502\RMSD=5.508e-09\PG=C01 [X(C4H6)]\\@

 Normal termination of Gaussian 09 at Wed Aug 26 19:18:13 2020.
