 Gaussian 09, Revision D.01,
 Gaussian 09:  ES64L-G09RevD.01 24-Apr-2013

 --------------------
 #p B2PLYPD3/Def2QZVP
 --------------------

 ---------
 butadiene
 ---------
 Symbolic Z-matrix:
 Charge =  0 Multiplicity = 1

                         Standard orientation:
 ---------------------------------------------------------------------
 Center     Atomic      Atomic             Coordinates (Angstroms)
 Number     Number       Type             X           Y           Z
 ---------------------------------------------------------------------
      1          6           0        1.856334    0.099171   -0.024070
      2          6           0        0.613120   -0.364583    0.034407
      3          6           0       -0.637223    0.412800    0.006611
      4          6           0       -1.847638   -0.130350   -0.036828
      5          1           0        2.693262   -0.577390    0.070327
      6          1           0        2.053499    1.168178   -0.133348
      7          1           0        0.494714   -1.427033    0.039441
      8          1           0       -0.493364    1.456192    0.121544
      9          1           0       -1.890271   -1.195985   -0.065866
     10          1           0       -2.765394    0.473804    0.087187
 ---------------------------------------------------------------------

 SCF Done:  E(RB2PLYPD3) =  -155.697456809     A.U. after   11 cycles
 E2(B2PLYPD3) =    -0.2253368292D+00 E(B2PLYPD3) =    -0.15592279363865D+03

 The electronic state is 1-A.
 Alpha  occ. eigenvalues --  -10.62300 -10.62226 -10.61636 -10.61494  -0.92941
 Alpha  occ. eigenvalues --   -0.85288  -0.69932  -0.64346  -0.54394  -0.54074
 Alpha  occ. eigenvalues --   -0.47164  -0.45784  -0.40780  -0.37881  -0.28047
 Alpha virt. eigenvalues --    0.01819   0.06976   0.07590   0.08053   0.09685
 Alpha virt. eigenvalues --    0.11717   0.12404   0.14667   0.15565   0.16177
 Alpha virt. eigenvalues --    0.18883   0.20054   0.21603   0.22440   0.24334

 Mulliken charges:
               1
     1  C   -0.179535
     2  C   -0.029308
     3  C   -0.035297
     4  C   -0.172417
     5  H    0.088623
     6  H    0.064382
     7  H    0.049439
     8  H    0.058758
     9  H    0.066641
    10  H    0.088713
 Sum of Mulliken charges =   0.00000

 Dipole moment (field-independent basis, Debye):
    X=             -0.0193    Y=             -0.0015    Z=              0.1333  Tot=              0.1347
 Quadrupole moment (field-independent basis, Debye-Ang):
   XX=            -23.4731   YY=            -23.2251   ZZ=            -29.1692
   XY=             -0.0543   XZ=             -0.2875   YZ=              0.0364

 1\1\GINC-NODE24\SP\RB2PLYPD3-FC\def2QZVP\C4H6\BOITTIER\26-Aug-2020\0\\
 #p B2PLYPD3/Def2QZVP\\butadiene\\0,1\C,0,-3.865147,0.204106,0.043749\C
 ,0,-2.721608,-0.470093,0.000817\C,0,-1.355248,0.079008,0.000327\C,0,-0
 .257085,-0.664114,0.062071\H,0,-4.807335,-0.319811,-0.026158\H,0,-3.87
 3211,1.294241,0.11539\H,0,-2.789264,-1.536499,0.033178\H,0,-1.316778,1
 .126921,-0.151236\H,0,-0.399685,-1.719326,0.128646\H,0,0.750665,-0.233
 048,-0.0838\\Version=ES64L-G09RevD.01\State=1-A\HF=-155.6974568\MP2=-1
 55.9227936\RMSD=5.078e-09\PG=C01 [X(C4H6)]\\@

 Normal termination of Gaussian 09 at Wed Aug 26 10:58:16 2020.
