 Gaussian 09, Revision D.01,
 Gaussian 09:  ES64L-G09RevD.01 24-Apr-2013

 --------------------
 #p B2PLYPD3/Def2QZVP
 --------------------

 ---------
 butadiene
 ---------
 Symbolic Z-matrix:
 Charge =  0 Multiplicity = 1

                         Standard orientation:
 ---------------------------------------------------------------------
 Center     Atomic      Atomic             Coordinates (Angstroms)
 Number     Number       Type             X           Y           Z
 ---------------------------------------------------------------------
      1          6           0        1.858713    0.103463    0.013883
      2          6           0        0.617946   -0.386294   -0.042910
      3          6           0       -0.616894    0.412762   -0.016877
      4          6           0       -1.850983   -0.112826    0.018740
      5          1           0        2.703518   -0.572072    0.083216
      6          1           0        2.079778    1.166128   -0.019803
      7          1           0        0.450867   -1.443707    0.029302
      8          1           0       -0.482314    1.463247    0.057738
      9          1           0       -1.975657   -1.166138    0.019004
     10          1           0       -2.828891    0.449911   -0.006473
 ---------------------------------------------------------------------

 SCF Done:  E(RB2PLYPD3) =  -155.696761183     A.U. after   11 cycles
 E2(B2PLYPD3) =    -0.2258698230D+00 E(B2PLYPD3) =    -0.15592263100638D+03

 The electronic state is 1-A.
 Alpha  occ. eigenvalues --  -10.62649 -10.62596 -10.61984 -10.61715  -0.92722
 Alpha  occ. eigenvalues --   -0.84824  -0.70130  -0.64543  -0.54494  -0.53669
 Alpha  occ. eigenvalues --   -0.47157  -0.45538  -0.40855  -0.37821  -0.27802
 Alpha virt. eigenvalues --    0.01608   0.06949   0.07519   0.08104   0.09439
 Alpha virt. eigenvalues --    0.11595   0.12510   0.14547   0.15799   0.16149
 Alpha virt. eigenvalues --    0.18941   0.20250   0.21812   0.22787   0.23730

 Mulliken charges:
               1
     1  C   -0.176730
     2  C   -0.034492
     3  C   -0.036191
     4  C   -0.168431
     5  H    0.084955
     6  H    0.069839
     7  H    0.057491
     8  H    0.061140
     9  H    0.061043
    10  H    0.081376
 Sum of Mulliken charges =   0.00000

 Dipole moment (field-independent basis, Debye):
    X=             -0.0047    Y=             -0.0154    Z=              0.1019  Tot=              0.1031
 Quadrupole moment (field-independent basis, Debye-Ang):
   XX=            -23.1548   YY=            -23.2985   ZZ=            -29.3015
   XY=              0.3059   XZ=              0.1965   YZ=             -0.0886

 1\1\GINC-NODE38\SP\RB2PLYPD3-FC\def2QZVP\C4H6\BOITTIER\26-Aug-2020\0\\
 #p B2PLYPD3/Def2QZVP\\butadiene\\0,1\C,0,-3.861912,0.215854,-0.000524\
 C,0,-2.728236,-0.485675,0.071764\C,0,-1.37078,0.079655,0.030373\C,0,-0
 .250179,-0.658158,0.011115\H,0,-4.813683,-0.299779,-0.056239\H,0,-3.88
 9985,1.301403,0.007035\H,0,-2.752396,-1.557365,0.025401\H,0,-1.316062,
 1.135199,-0.069783\H,0,-0.315243,-1.716522,0.036451\H,0,0.812403,-0.27
 8269,0.025829\\Version=ES64L-G09RevD.01\State=1-A\HF=-155.6967612\MP2=
 -155.922631\RMSD=3.127e-09\PG=C01 [X(C4H6)]\\@

 Normal termination of Gaussian 09 at Wed Aug 26 08:38:16 2020.
