 Gaussian 09, Revision D.01,
 Gaussian 09:  ES64L-G09RevD.01 24-Apr-2013

 --------------------
 #p B2PLYPD3/Def2QZVP
 --------------------

 ---------
 butadiene
 ---------
 Symbolic Z-matrix:
 Charge =  0 Multiplicity = 1

                         Standard orientation:
 ---------------------------------------------------------------------
 Center     Atomic      Atomic             Coordinates (Angstroms)
 Number     Number       Type             X           Y           Z
 ---------------------------------------------------------------------
      1          6           0        1.850764    0.120764    0.023529
      2          6           0        0.644580   -0.424201   -0.031866
      3          6           0       -0.608274    0.369048   -0.058746
      4          6           0       -1.868408   -0.107661    0.037313
      5          1           0        2.772716   -0.431016   -0.001017
      6          1           0        1.807985    1.277224    0.241640
      7          1           0        0.547342   -1.473758   -0.136672
      8          1           0       -0.452736    1.452166   -0.102886
      9          1           0       -2.082105   -1.217705    0.225240
     10          1           0       -2.705174    0.645390   -0.047685
 ---------------------------------------------------------------------

 SCF Done:  E(RB2PLYPD3) =  -155.684935160     A.U. after   11 cycles
 E2(B2PLYPD3) =    -0.2271919905D+00 E(B2PLYPD3) =    -0.15591212715001D+03

 The electronic state is 1-A.
 Alpha  occ. eigenvalues --  -10.63172 -10.62992 -10.62456 -10.62322  -0.92524
 Alpha  occ. eigenvalues --   -0.84668  -0.69074  -0.63502  -0.54488  -0.52757
 Alpha  occ. eigenvalues --   -0.46763  -0.44411  -0.40639  -0.37652  -0.27961
 Alpha virt. eigenvalues --    0.01669   0.06859   0.07159   0.07887   0.09359
 Alpha virt. eigenvalues --    0.11609   0.12003   0.14305   0.15722   0.16017
 Alpha virt. eigenvalues --    0.18550   0.19946   0.20729   0.22149   0.23931

 Mulliken charges:
               1
     1  C   -0.168525
     2  C   -0.031421
     3  C   -0.037283
     4  C   -0.178314
     5  H    0.096257
     6  H    0.050009
     7  H    0.058680
     8  H    0.052133
     9  H    0.071691
    10  H    0.086774
 Sum of Mulliken charges =   0.00000

 Dipole moment (field-independent basis, Debye):
    X=              0.0581    Y=             -0.0993    Z=              0.0960  Tot=              0.1499
 Quadrupole moment (field-independent basis, Debye-Ang):
   XX=            -23.7892   YY=            -23.2528   ZZ=            -29.4305
   XY=             -0.4000   XZ=             -0.0127   YZ=              0.0134

 1\1\GINC-NODE25\SP\RB2PLYPD3-FC\def2QZVP\C4H6\BOITTIER\26-Aug-2020\0\\
 #p B2PLYPD3/Def2QZVP\\butadiene\\0,1\C,0,-3.851866,0.224691,-0.008485\
 C,0,-2.756848,-0.516832,0.069071\C,0,-1.386318,0.049964,0.06786\C,0,-0
 .227204,-0.639276,-0.008422\H,0,-4.854703,-0.159291,0.035499\H,0,-3.61
 2344,1.347679,-0.269882\H,0,-2.840658,-1.562847,0.21342\H,0,-1.353426,
 1.144585,0.071007\H,0,-0.208152,-1.775752,-0.154159\H,0,0.726812,-0.03
 8442,0.049369\\Version=ES64L-G09RevD.01\State=1-A\HF=-155.6849352\MP2=
 -155.9121272\RMSD=7.339e-09\PG=C01 [X(C4H6)]\\@

 Normal termination of Gaussian 09 at Wed Aug 26 13:02:54 2020.
