 Gaussian 09, Revision D.01,
 Gaussian 09:  ES64L-G09RevD.01 24-Apr-2013

 --------------------
 #p B2PLYPD3/Def2QZVP
 --------------------

 ---------
 butadiene
 ---------
 Symbolic Z-matrix:
 Charge =  0 Multiplicity = 1

                         Standard orientation:
 ---------------------------------------------------------------------
 Center     Atomic      Atomic             Coordinates (Angstroms)
 Number     Number       Type             X           Y           Z
 ---------------------------------------------------------------------
      1          6           0        1.826216   -0.090092   -0.051345
      2          6           0        0.600195    0.375684    0.041980
      3          6           0       -0.609946   -0.435659    0.004657
      4          6           0       -1.838286    0.117124   -0.024196
      5          1           0        2.695465    0.566598    0.018913
      6          1           0        2.024633   -1.162421   -0.008960
      7          1           0        0.461315    1.453434    0.105431
      8          1           0       -0.419567   -1.466419    0.127960
      9          1           0       -1.867478    1.228657   -0.066299
     10          1           0       -2.763439   -0.422194   -0.003619
 ---------------------------------------------------------------------

 SCF Done:  E(RB2PLYPD3) =  -155.696463823     A.U. after   11 cycles
 E2(B2PLYPD3) =    -0.2258164075D+00 E(B2PLYPD3) =    -0.15592228023038D+03

 The electronic state is 1-A.
 Alpha  occ. eigenvalues --  -10.62519 -10.62137 -10.62085 -10.61275  -0.93189
 Alpha  occ. eigenvalues --   -0.84923  -0.70028  -0.64270  -0.54944  -0.53436
 Alpha  occ. eigenvalues --   -0.47237  -0.45197  -0.41026  -0.37979  -0.27862
 Alpha virt. eigenvalues --    0.01794   0.07024   0.07380   0.08132   0.09497
 Alpha virt. eigenvalues --    0.11678   0.12575   0.14520   0.15658   0.16295
 Alpha virt. eigenvalues --    0.18744   0.20033   0.21800   0.22575   0.24137

 Mulliken charges:
               1
     1  C   -0.170500
     2  C   -0.020349
     3  C   -0.037644
     4  C   -0.172637
     5  H    0.080895
     6  H    0.058115
     7  H    0.049008
     8  H    0.060792
     9  H    0.060304
    10  H    0.092015
 Sum of Mulliken charges =   0.00000

 Dipole moment (field-independent basis, Debye):
    X=             -0.0327    Y=             -0.0266    Z=              0.1966  Tot=              0.2011
 Quadrupole moment (field-independent basis, Debye-Ang):
   XX=            -23.4374   YY=            -23.2753   ZZ=            -29.2222
   XY=             -0.0616   XZ=              0.1509   YZ=             -0.1127

 1\1\GINC-NODE13\SP\RB2PLYPD3-FC\def2QZVP\C4H6\BOITTIER\26-Aug-2020\0\\
 #p B2PLYPD3/Def2QZVP\\butadiene\\0,1\C,0,-3.835179,0.200882,-0.024677\
 C,0,-2.713579,-0.477593,0.077651\C,0,-1.376567,0.100156,0.025526\C,0,-
 0.268835,-0.666537,0.007321\H,0,-4.808817,-0.285981,0.057585\H,0,-3.83
 5853,1.292008,-0.002355\H,0,-2.772109,-1.561312,0.161233\H,0,-1.376617
 ,1.15044,0.129529\H,0,-0.441687,-1.765535,-0.014033\H,0,0.738794,-0.30
 3544,0.018083\\Version=ES64L-G09RevD.01\State=1-A\HF=-155.6964638\MP2=
 -155.9222802\RMSD=7.545e-09\PG=C01 [X(C4H6)]\\@

 Normal termination of Gaussian 09 at Wed Aug 26 08:49:03 2020.
