 Gaussian 09, Revision D.01,
 Gaussian 09:  ES64L-G09RevD.01 24-Apr-2013

 --------------------
 #p B2PLYPD3/Def2QZVP
 --------------------

 ---------
 butadiene
 ---------
 Symbolic Z-matrix:
 Charge =  0 Multiplicity = 1

                         Standard orientation:
 ---------------------------------------------------------------------
 Center     Atomic      Atomic             Coordinates (Angstroms)
 Number     Number       Type             X           Y           Z
 ---------------------------------------------------------------------
      1          6           0       -1.845792    0.104416   -0.006647
      2          6           0       -0.616687   -0.390640   -0.003323
      3          6           0        0.615674    0.417796   -0.017887
      4          6           0        1.845046   -0.127284    0.009343
      5          1           0       -2.723012   -0.525804    0.056692
      6          1           0       -1.974403    1.171214    0.023760
      7          1           0       -0.494442   -1.454127   -0.011377
      8          1           0        0.513987    1.482531    0.017835
      9          1           0        1.986342   -1.210737    0.002908
     10          1           0        2.702084    0.511198    0.021262
 ---------------------------------------------------------------------

 SCF Done:  E(RB2PLYPD3) =  -155.700416797     A.U. after   11 cycles
 E2(B2PLYPD3) =    -0.2254549036D+00 E(B2PLYPD3) =    -0.15592587170043D+03

 The electronic state is 1-A.
 Alpha  occ. eigenvalues --  -10.62680 -10.62267 -10.61653 -10.61180  -0.92760
 Alpha  occ. eigenvalues --   -0.85063  -0.69877  -0.64360  -0.54428  -0.54207
 Alpha  occ. eigenvalues --   -0.46660  -0.45796  -0.41268  -0.37885  -0.27813
 Alpha virt. eigenvalues --    0.01891   0.07015   0.07495   0.08104   0.09486
 Alpha virt. eigenvalues --    0.11708   0.12438   0.14616   0.15813   0.16222
 Alpha virt. eigenvalues --    0.18801   0.20324   0.21599   0.22985   0.24017

 Mulliken charges:
               1
     1  C   -0.174673
     2  C   -0.026562
     3  C   -0.041822
     4  C   -0.176499
     5  H    0.086672
     6  H    0.062804
     7  H    0.055418
     8  H    0.058468
     9  H    0.069173
    10  H    0.087021
 Sum of Mulliken charges =   0.00000

 Dipole moment (field-independent basis, Debye):
    X=              0.0242    Y=              0.0043    Z=              0.0896  Tot=              0.0929
 Quadrupole moment (field-independent basis, Debye-Ang):
   XX=            -23.5603   YY=            -23.0020   ZZ=            -29.2688
   XY=              0.0277   XZ=             -0.1295   YZ=              0.0467

 1\1\GINC-NODE12\SP\RB2PLYPD3-FC\def2QZVP\C4H6\BOITTIER\26-Aug-2020\0\\
 #p B2PLYPD3/Def2QZVP\\butadiene\\0,1\C,0,-3.851013,0.211203,0.016547\C
 ,0,-2.727808,-0.491593,0.033282\C,0,-1.372805,0.08743,-0.001285\C,0,-0
 .25802,-0.664038,0.040631\H,0,-4.82493,-0.253506,0.095511\H,0,-3.79036
 8,1.28444,0.019517\H,0,-2.794052,-1.559887,0.052569\H,0,-1.285995,1.15
 4047,0.007067\H,0,-0.309004,-1.755284,0.062059\H,0,0.697773,-0.18575,0
 .036677\\Version=ES64L-G09RevD.01\State=1-A\HF=-155.7004168\MP2=-155.9
 258717\RMSD=5.404e-09\PG=C01 [X(C4H6)]\\@

 Normal termination of Gaussian 09 at Wed Aug 26 15:59:14 2020.
