 Gaussian 09, Revision D.01,
 Gaussian 09:  ES64L-G09RevD.01 24-Apr-2013

 --------------------
 #p B2PLYPD3/Def2QZVP
 --------------------

 ---------
 butadiene
 ---------
 Symbolic Z-matrix:
 Charge =  0 Multiplicity = 1

                         Standard orientation:
 ---------------------------------------------------------------------
 Center     Atomic      Atomic             Coordinates (Angstroms)
 Number     Number       Type             X           Y           Z
 ---------------------------------------------------------------------
      1          6           0       -1.830890    0.102275   -0.038506
      2          6           0       -0.593740   -0.397111    0.050559
      3          6           0        0.600961    0.414943    0.009156
      4          6           0        1.821320   -0.129269   -0.015819
      5          1           0       -2.671675   -0.515655   -0.049459
      6          1           0       -1.993423    1.169520   -0.081284
      7          1           0       -0.428990   -1.465773    0.137769
      8          1           0        0.548281    1.537929    0.159697
      9          1           0        1.917044   -1.213038   -0.138352
     10          1           0        2.642859    0.541990   -0.060708
 ---------------------------------------------------------------------

 SCF Done:  E(RB2PLYPD3) =  -155.695224613     A.U. after   11 cycles
 E2(B2PLYPD3) =    -0.2260342056D+00 E(B2PLYPD3) =    -0.15592125881833D+03

 The electronic state is 1-A.
 Alpha  occ. eigenvalues --  -10.62731 -10.62463 -10.61280 -10.61025  -0.93129
 Alpha  occ. eigenvalues --   -0.85023  -0.70226  -0.63499  -0.54737  -0.54185
 Alpha  occ. eigenvalues --   -0.46249  -0.45535  -0.41645  -0.37951  -0.27583
 Alpha virt. eigenvalues --    0.01789   0.07142   0.07229   0.07995   0.09404
 Alpha virt. eigenvalues --    0.11753   0.12396   0.14754   0.15606   0.16182
 Alpha virt. eigenvalues --    0.18625   0.20080   0.21621   0.22803   0.24160

 Mulliken charges:
               1
     1  C   -0.176307
     2  C   -0.036483
     3  C   -0.020131
     4  C   -0.183494
     5  H    0.088076
     6  H    0.067518
     7  H    0.055200
     8  H    0.050764
     9  H    0.067697
    10  H    0.087160
 Sum of Mulliken charges =   0.00000

 Dipole moment (field-independent basis, Debye):
    X=             -0.0202    Y=              0.0031    Z=             -0.0012  Tot=              0.0205
 Quadrupole moment (field-independent basis, Debye-Ang):
   XX=            -23.8789   YY=            -22.9368   ZZ=            -29.2157
   XY=              0.0626   XZ=             -0.0846   YZ=              0.1164

 1\1\GINC-NODE29\SP\RB2PLYPD3-FC\def2QZVP\C4H6\BOITTIER\26-Aug-2020\0\\
 #p B2PLYPD3/Def2QZVP\\butadiene\\0,1\C,0,-3.834541,0.21523,-0.017319\C
 ,0,-2.707175,-0.496849,0.08191\C,0,-1.386013,0.086267,0.027483\C,0,-0.
 283463,-0.668884,0.013463\H,0,-4.772759,-0.241522,-0.018279\H,0,-3.802
 6,1.293386,-0.079118\H,0,-2.737097,-1.576016,0.188162\H,0,-1.23558,1.2
 02888,0.158109\H,0,-0.384442,-1.754182,-0.089805\H,0,0.645296,-0.15720
 1,-0.042373\\Version=ES64L-G09RevD.01\State=1-A\HF=-155.6952246\MP2=-1
 55.9212588\RMSD=3.518e-09\PG=C01 [X(C4H6)]\\@

 Normal termination of Gaussian 09 at Wed Aug 26 11:10:52 2020.
