 Gaussian 09, Revision D.01,
 Gaussian 09:  ES64L-G09RevD.01 24-Apr-2013

 --------------------
 #p B2PLYPD3/Def2QZVP
 --------------------

 ---------
 butadiene
 ---------
 Symbolic Z-matrix:
 Charge =  0 Multiplicity = 1

                         Standard orientation:
 ---------------------------------------------------------------------
 Center     Atomic      Atomic             Coordinates (Angstroms)
 Number     Number       Type             X           Y           Z
 ---------------------------------------------------------------------
      1          6           0        1.830782    0.107107    0.022180
      2          6           0        0.610554   -0.406565   -0.035442
      3          6           0       -0.603414    0.414475   -0.011961
      4          6           0       -1.833797   -0.116027    0.009403
      5          1           0        2.712822   -0.512508    0.062689
      6          1           0        1.935973    1.188544    0.021874
      7          1           0        0.480892   -1.474156   -0.036148
      8          1           0       -0.468870    1.504375   -0.067666
      9          1           0       -1.984200   -1.186657    0.039039
     10          1           0       -2.701366    0.486465    0.075126
 ---------------------------------------------------------------------

 SCF Done:  E(RB2PLYPD3) =  -155.700455935     A.U. after   11 cycles
 E2(B2PLYPD3) =    -0.2255156957D+00 E(B2PLYPD3) =    -0.15592597163074D+03

 The electronic state is 1-A.
 Alpha  occ. eigenvalues --  -10.62845 -10.62258 -10.61286 -10.61276  -0.92931
 Alpha  occ. eigenvalues --   -0.85016  -0.69944  -0.64125  -0.54751  -0.53931
 Alpha  occ. eigenvalues --   -0.46708  -0.45594  -0.41294  -0.38008  -0.27756
 Alpha virt. eigenvalues --    0.01973   0.07068   0.07365   0.08119   0.09430
 Alpha virt. eigenvalues --    0.11706   0.12533   0.14617   0.15776   0.16247
 Alpha virt. eigenvalues --    0.18738   0.20333   0.21726   0.23098   0.23896

 Mulliken charges:
               1
     1  C   -0.174790
     2  C   -0.027523
     3  C   -0.033897
     4  C   -0.176606
     5  H    0.088027
     6  H    0.062949
     7  H    0.056076
     8  H    0.054203
     9  H    0.065048
    10  H    0.086513
 Sum of Mulliken charges =   0.00000

 Dipole moment (field-independent basis, Debye):
    X=             -0.0070    Y=             -0.0239    Z=              0.0577  Tot=              0.0629
 Quadrupole moment (field-independent basis, Debye-Ang):
   XX=            -23.5536   YY=            -23.0395   ZZ=            -29.2435
   XY=              0.0481   XZ=             -0.0470   YZ=             -0.0701

 1\1\GINC-NODE38\SP\RB2PLYPD3-FC\def2QZVP\C4H6\BOITTIER\26-Aug-2020\0\\
 #p B2PLYPD3/Def2QZVP\\butadiene\\0,1\C,0,-3.833733,0.217707,-0.003682\
 C,0,-2.724997,-0.504648,0.067337\C,0,-1.383743,0.085036,0.026283\C,0,-
 0.268263,-0.657512,0.01874\H,0,-4.812555,-0.234758,-0.030871\H,0,-3.74
 3643,1.30022,-0.028609\H,0,-2.78853,-1.5779,0.092985\H,0,-1.320853,1.1
 82405,0.056507\H,0,-0.312023,-1.738166,0.01415\H,0,0.692944,-0.221747,
 -0.059894\\Version=ES64L-G09RevD.01\State=1-A\HF=-155.7004559\MP2=-155
 .9259716\RMSD=5.313e-09\PG=C01 [X(C4H6)]\\@

 Normal termination of Gaussian 09 at Wed Aug 26 12:15:57 2020.
