 Gaussian 09, Revision D.01,
 Gaussian 09:  ES64L-G09RevD.01 24-Apr-2013

 --------------------
 #p B2PLYPD3/Def2QZVP
 --------------------

 ---------
 butadiene
 ---------
 Symbolic Z-matrix:
 Charge =  0 Multiplicity = 1

                         Standard orientation:
 ---------------------------------------------------------------------
 Center     Atomic      Atomic             Coordinates (Angstroms)
 Number     Number       Type             X           Y           Z
 ---------------------------------------------------------------------
      1          6           0       -1.842284    0.111207   -0.018635
      2          6           0       -0.610190   -0.405778    0.024102
      3          6           0        0.604470    0.390104    0.006847
      4          6           0        1.842252   -0.104168   -0.027586
      5          1           0       -2.725634   -0.507503   -0.006136
      6          1           0       -1.990726    1.177246   -0.069284
      7          1           0       -0.490022   -1.480069    0.066117
      8          1           0        0.471671    1.473783    0.112865
      9          1           0        2.096399   -1.136216   -0.032561
     10          1           0        2.672826    0.524569    0.020625
 ---------------------------------------------------------------------

 SCF Done:  E(RB2PLYPD3) =  -155.699666066     A.U. after   11 cycles
 E2(B2PLYPD3) =    -0.2253476497D+00 E(B2PLYPD3) =    -0.15592501371605D+03

 The electronic state is 1-A.
 Alpha  occ. eigenvalues --  -10.62651 -10.62462 -10.61464 -10.60849  -0.92951
 Alpha  occ. eigenvalues --   -0.85083  -0.70679  -0.64128  -0.55014  -0.54062
 Alpha  occ. eigenvalues --   -0.46952  -0.45779  -0.41137  -0.38000  -0.27709
 Alpha virt. eigenvalues --    0.01683   0.07047   0.07491   0.08081   0.09655
 Alpha virt. eigenvalues --    0.11623   0.12538   0.14877   0.15813   0.16271
 Alpha virt. eigenvalues --    0.18879   0.20470   0.21944   0.22703   0.23719

 Mulliken charges:
               1
     1  C   -0.173602
     2  C   -0.033470
     3  C   -0.029585
     4  C   -0.175083
     5  H    0.086625
     6  H    0.065060
     7  H    0.057076
     8  H    0.054638
     9  H    0.065723
    10  H    0.082617
 Sum of Mulliken charges =   0.00000

 Dipole moment (field-independent basis, Debye):
    X=              0.0198    Y=             -0.0262    Z=              0.1001  Tot=              0.1053
 Quadrupole moment (field-independent basis, Debye-Ang):
   XX=            -23.2202   YY=            -23.1620   ZZ=            -29.1835
   XY=             -0.2708   XZ=              0.1905   YZ=              0.0379

 1\1\GINC-NODE34\SP\RB2PLYPD3-FC\def2QZVP\C4H6\BOITTIER\26-Aug-2020\0\\
 #p B2PLYPD3/Def2QZVP\\butadiene\\0,1\C,0,-3.84287,0.228553,-0.000508\C
 ,0,-2.724847,-0.50186,0.060109\C,0,-1.386059,0.059887,0.0253\C,0,-0.25
 8457,-0.651321,0.008181\H,0,-4.823727,-0.21921,0.025833\H,0,-3.795675,
 1.302069,-0.08036\H,0,-2.801359,-1.578597,0.131462\H,0,-1.32001,1.1521
 54,0.101632\H,0,-0.195633,-1.71209,0.031853\H,0,0.672421,-0.182489,0.0
 42088\\Version=ES64L-G09RevD.01\State=1-A\HF=-155.6996661\MP2=-155.925
 0137\RMSD=3.092e-09\PG=C01 [X(C4H6)]\\@

 Normal termination of Gaussian 09 at Wed Aug 26 20:14:17 2020.
