 Gaussian 09, Revision D.01,
 Gaussian 09:  ES64L-G09RevD.01 24-Apr-2013

 --------------------
 #p B2PLYPD3/Def2QZVP
 --------------------

 ---------
 butadiene
 ---------
 Symbolic Z-matrix:
 Charge =  0 Multiplicity = 1

                         Standard orientation:
 ---------------------------------------------------------------------
 Center     Atomic      Atomic             Coordinates (Angstroms)
 Number     Number       Type             X           Y           Z
 ---------------------------------------------------------------------
      1          6           0       -1.831704   -0.129190    0.003179
      2          6           0       -0.607519    0.444346    0.005659
      3          6           0        0.595248   -0.353208   -0.071888
      4          6           0        1.850916    0.086076    0.020879
      5          1           0       -2.858401    0.350047    0.136176
      6          1           0       -1.921832   -1.238896    0.082797
      7          1           0       -0.479704    1.525219   -0.112253
      8          1           0        0.472311   -1.387581   -0.095070
      9          1           0        2.055988    1.157068    0.046440
     10          1           0        2.689992   -0.693999    0.194937
 ---------------------------------------------------------------------

 SCF Done:  E(RB2PLYPD3) =  -155.685198361     A.U. after   11 cycles
 E2(B2PLYPD3) =    -0.2273038153D+00 E(B2PLYPD3) =    -0.15591250217665D+03

 The electronic state is 1-A.
 Alpha  occ. eigenvalues --  -10.63298 -10.63006 -10.62323 -10.61899  -0.93130
 Alpha  occ. eigenvalues --   -0.84423  -0.69483  -0.64398  -0.54011  -0.53344
 Alpha  occ. eigenvalues --   -0.46482  -0.44584  -0.41122  -0.37977  -0.27582
 Alpha virt. eigenvalues --    0.01311   0.06820   0.07358   0.07806   0.09324
 Alpha virt. eigenvalues --    0.11529   0.12396   0.14286   0.15536   0.16148
 Alpha virt. eigenvalues --    0.18776   0.20163   0.21438   0.22344   0.23846

 Mulliken charges:
               1
     1  C   -0.160747
     2  C   -0.042521
     3  C   -0.020594
     4  C   -0.178473
     5  H    0.077641
     6  H    0.053793
     7  H    0.062519
     8  H    0.061270
     9  H    0.067320
    10  H    0.079792
 Sum of Mulliken charges =   0.00000

 Dipole moment (field-independent basis, Debye):
    X=             -0.1071    Y=             -0.0413    Z=              0.1835  Tot=              0.2165
 Quadrupole moment (field-independent basis, Debye-Ang):
   XX=            -23.6730   YY=            -23.2785   ZZ=            -29.3739
   XY=              0.1615   XZ=              0.1402   YZ=             -0.2286

 1\1\GINC-NODE36\SP\RB2PLYPD3-FC\def2QZVP\C4H6\BOITTIER\26-Aug-2020\0\\
 #p B2PLYPD3/Def2QZVP\\butadiene\\0,1\C,0,-3.831008,0.243857,0.007666\C
 ,0,-2.729139,-0.538798,0.037874\C,0,-1.402553,0.03362,0.073384\C,0,-0.
 24648,-0.627634,0.006175\H,0,-4.927936,-0.050341,-0.100314\H,0,-3.7219
 83,1.345869,-0.132307\H,0,-2.795604,-1.617172,0.214561\H,0,-1.338396,1
 .073022,0.040118\H,0,-0.236395,-1.717836,0.039158\H,0,0.717013,-0.0208
 18,-0.209038\\Version=ES64L-G09RevD.01\State=1-A\HF=-155.6851984\MP2=-
 155.9125022\RMSD=5.582e-09\PG=C01 [X(C4H6)]\\@

 Normal termination of Gaussian 09 at Wed Aug 26 13:19:00 2020.
