 Gaussian 09, Revision D.01,
 Gaussian 09:  ES64L-G09RevD.01 24-Apr-2013

 --------------------
 #p B2PLYPD3/Def2QZVP
 --------------------

 ---------
 butadiene
 ---------
 Symbolic Z-matrix:
 Charge =  0 Multiplicity = 1

                         Standard orientation:
 ---------------------------------------------------------------------
 Center     Atomic      Atomic             Coordinates (Angstroms)
 Number     Number       Type             X           Y           Z
 ---------------------------------------------------------------------
      1          6           0       -1.825492   -0.124394   -0.018619
      2          6           0       -0.598744    0.414898    0.011634
      3          6           0        0.597991   -0.390287    0.034955
      4          6           0        1.824290    0.100451   -0.030874
      5          1           0       -2.713191    0.521583   -0.048589
      6          1           0       -1.985421   -1.182631   -0.005437
      7          1           0       -0.489269    1.483057    0.061007
      8          1           0        0.476320   -1.471599    0.035789
      9          1           0        2.007004    1.171663    0.014946
     10          1           0        2.716290   -0.526084   -0.040288
 ---------------------------------------------------------------------

 SCF Done:  E(RB2PLYPD3) =  -155.700362719     A.U. after   11 cycles
 E2(B2PLYPD3) =    -0.2255930684D+00 E(B2PLYPD3) =    -0.15592595578779D+03

 The electronic state is 1-A.
 Alpha  occ. eigenvalues --  -10.62424 -10.62213 -10.61600 -10.61345  -0.93273
 Alpha  occ. eigenvalues --   -0.84920  -0.69997  -0.64282  -0.54443  -0.54168
 Alpha  occ. eigenvalues --   -0.46566  -0.45422  -0.41281  -0.38283  -0.27647
 Alpha virt. eigenvalues --    0.01829   0.07012   0.07420   0.08012   0.09612
 Alpha virt. eigenvalues --    0.11705   0.12444   0.14752   0.15793   0.16273
 Alpha virt. eigenvalues --    0.18742   0.20317   0.21770   0.22835   0.23866

 Mulliken charges:
               1
     1  C   -0.176949
     2  C   -0.033242
     3  C   -0.026441
     4  C   -0.171655
     5  H    0.081493
     6  H    0.070225
     7  H    0.059867
     8  H    0.053901
     9  H    0.060965
    10  H    0.081835
 Sum of Mulliken charges =   0.00000

 Dipole moment (field-independent basis, Debye):
    X=             -0.0043    Y=             -0.0014    Z=              0.0532  Tot=              0.0534
 Quadrupole moment (field-independent basis, Debye-Ang):
   XX=            -23.5675   YY=            -23.0549   ZZ=            -29.2288
   XY=              0.1367   XZ=              0.0401   YZ=              0.0678

 1\1\GINC-NODE31\SP\RB2PLYPD3-FC\def2QZVP\C4H6\BOITTIER\26-Aug-2020\0\\
 #p B2PLYPD3/Def2QZVP\\butadiene\\0,1\C,0,-3.824806,0.237,0.037593\C,0,
 -2.715597,-0.515369,0.021486\C,0,-1.393291,0.059877,-0.018997\C,0,-0.2
 75483,-0.642447,0.059822\H,0,-4.814403,-0.23731,0.081423\H,0,-3.791199
 ,1.306132,-0.000404\H,0,-2.800803,-1.586598,-0.00289\H,0,-1.317854,1.1
 4508,-0.045137\H,0,-0.289192,-1.729813,0.039164\H,0,0.714952,-0.18712,
 0.055823\\Version=ES64L-G09RevD.01\State=1-A\HF=-155.7003627\MP2=-155.
 9259558\RMSD=5.977e-09\PG=C01 [X(C4H6)]\\@

 Normal termination of Gaussian 09 at Wed Aug 26 21:46:50 2020.
