 Gaussian 09, Revision D.01,
 Gaussian 09:  ES64L-G09RevD.01 24-Apr-2013

 --------------------
 #p B2PLYPD3/Def2QZVP
 --------------------

 ---------
 butadiene
 ---------
 Symbolic Z-matrix:
 Charge =  0 Multiplicity = 1

                         Standard orientation:
 ---------------------------------------------------------------------
 Center     Atomic      Atomic             Coordinates (Angstroms)
 Number     Number       Type             X           Y           Z
 ---------------------------------------------------------------------
      1          6           0       -1.836405   -0.118044    0.006024
      2          6           0       -0.607139    0.411350   -0.022916
      3          6           0        0.603559   -0.386749   -0.027424
      4          6           0        1.839393    0.098788    0.023453
      5          1           0       -2.683782    0.502656    0.112798
      6          1           0       -2.014624   -1.177162    0.030064
      7          1           0       -0.524321    1.497552   -0.052533
      8          1           0        0.440578   -1.458418   -0.033327
      9          1           0        2.077749    1.143084    0.017139
     10          1           0        2.707950   -0.539780    0.051032
 ---------------------------------------------------------------------

 SCF Done:  E(RB2PLYPD3) =  -155.700383457     A.U. after   11 cycles
 E2(B2PLYPD3) =    -0.2253646104D+00 E(B2PLYPD3) =    -0.15592574806702D+03

 The electronic state is 1-A.
 Alpha  occ. eigenvalues --  -10.62567 -10.62450 -10.61264 -10.61156  -0.93029
 Alpha  occ. eigenvalues --   -0.85055  -0.70557  -0.64183  -0.54979  -0.54029
 Alpha  occ. eigenvalues --   -0.46851  -0.45689  -0.41155  -0.38128  -0.27680
 Alpha virt. eigenvalues --    0.01714   0.07019   0.07482   0.08093   0.09653
 Alpha virt. eigenvalues --    0.11639   0.12520   0.14861   0.15871   0.16275
 Alpha virt. eigenvalues --    0.18873   0.20421   0.21930   0.22882   0.23624

 Mulliken charges:
               1
     1  C   -0.175209
     2  C   -0.030260
     3  C   -0.032236
     4  C   -0.172069
     5  H    0.084331
     6  H    0.064309
     7  H    0.056248
     8  H    0.056809
     9  H    0.066634
    10  H    0.081444
 Sum of Mulliken charges =   0.00000

 Dipole moment (field-independent basis, Debye):
    X=             -0.0066    Y=              0.0176    Z=              0.0805  Tot=              0.0827
 Quadrupole moment (field-independent basis, Debye-Ang):
   XX=            -23.3274   YY=            -23.1135   ZZ=            -29.1852
   XY=              0.2842   XZ=             -0.2072   YZ=             -0.0051

 1\1\GINC-NODE06\SP\RB2PLYPD3-FC\def2QZVP\C4H6\BOITTIER\26-Aug-2020\0\\
 #p B2PLYPD3/Def2QZVP\\butadiene\\0,1\C,0,-3.836307,0.234688,0.006503\C
 ,0,-2.723591,-0.507965,0.056701\C,0,-1.388049,0.056663,0.039476\C,0,-0
 .261111,-0.646666,0.008503\H,0,-4.782609,-0.224897,-0.082996\H,0,-3.81
 9227,1.307213,-0.052385\H,0,-2.83939,-1.5896,0.121718\H,0,-1.353628,1.
 139727,0.010161\H,0,-0.216408,-1.716123,0.049399\H,0,0.708921,-0.17772
 3,-0.036786\\Version=ES64L-G09RevD.01\State=1-A\HF=-155.7003835\MP2=-1
 55.9257481\RMSD=4.872e-09\PG=C01 [X(C4H6)]\\@

 Normal termination of Gaussian 09 at Wed Aug 26 16:16:02 2020.
