 Gaussian 09, Revision D.01,
 Gaussian 09:  ES64L-G09RevD.01 24-Apr-2013

 --------------------
 #p B2PLYPD3/Def2QZVP
 --------------------

 ---------
 butadiene
 ---------
 Symbolic Z-matrix:
 Charge =  0 Multiplicity = 1

                         Standard orientation:
 ---------------------------------------------------------------------
 Center     Atomic      Atomic             Coordinates (Angstroms)
 Number     Number       Type             X           Y           Z
 ---------------------------------------------------------------------
      1          6           0       -1.829194    0.092557    0.034109
      2          6           0       -0.591870   -0.379779   -0.047308
      3          6           0        0.591499    0.422969   -0.037502
      4          6           0        1.829844   -0.106312    0.019768
      5          1           0       -2.679607   -0.583114    0.160725
      6          1           0       -2.024316    1.196092   -0.003136
      7          1           0       -0.475828   -1.466308   -0.145186
      8          1           0        0.464670    1.485851   -0.035788
      9          1           0        1.922135   -1.222317    0.102444
     10          1           0        2.791278    0.413182    0.106540
 ---------------------------------------------------------------------

 SCF Done:  E(RB2PLYPD3) =  -155.694784380     A.U. after   11 cycles
 E2(B2PLYPD3) =    -0.2265784110D+00 E(B2PLYPD3) =    -0.15592136279125D+03

 The electronic state is 1-A.
 Alpha  occ. eigenvalues --  -10.62625 -10.62358 -10.62341 -10.61880  -0.93359
 Alpha  occ. eigenvalues --   -0.84601  -0.69924  -0.63917  -0.54719  -0.53466
 Alpha  occ. eigenvalues --   -0.46765  -0.44531  -0.41389  -0.38209  -0.27479
 Alpha virt. eigenvalues --    0.01508   0.06985   0.07294   0.07955   0.09568
 Alpha virt. eigenvalues --    0.11572   0.12522   0.14354   0.15706   0.16402
 Alpha virt. eigenvalues --    0.18733   0.20278   0.21627   0.22441   0.23715

 Mulliken charges:
               1
     1  C   -0.178722
     2  C   -0.019025
     3  C   -0.037299
     4  C   -0.164405
     5  H    0.086546
     6  H    0.062433
     7  H    0.054337
     8  H    0.058490
     9  H    0.051830
    10  H    0.085815
 Sum of Mulliken charges =   0.00000

 Dipole moment (field-independent basis, Debye):
    X=              0.0214    Y=              0.0083    Z=              0.1099  Tot=              0.1123
 Quadrupole moment (field-independent basis, Debye-Ang):
   XX=            -23.4704   YY=            -23.2912   ZZ=            -29.2936
   XY=              0.0209   XZ=              0.1157   YZ=             -0.0688

 1\1\GINC-NODE15\SP\RB2PLYPD3-FC\def2QZVP\C4H6\BOITTIER\26-Aug-2020\0\\
 #p B2PLYPD3/Def2QZVP\\butadiene\\0,1\C,0,-3.834044,0.2087,0.053169\C,0
 ,-2.704168,-0.484404,-0.007545\C,0,-1.393998,0.088386,-0.022688\C,0,-0
 .273043,-0.655919,0.057229\H,0,-4.79317,-0.29523,0.201147\H,0,-3.82433
 6,1.327273,-0.023971\H,0,-2.788985,-1.576625,-0.066293\H,0,-1.324442,1
 .155922,-0.059233\H,0,-0.38597,-1.766333,0.179897\H,0,0.767434,-0.3181
 3,0.128409\\Version=ES64L-G09RevD.01\State=1-A\HF=-155.6947844\MP2=-15
 5.9213628\RMSD=5.891e-09\PG=C01 [X(C4H6)]\\@

 Normal termination of Gaussian 09 at Wed Aug 26 10:19:28 2020.
