 Gaussian 09, Revision D.01,
 Gaussian 09:  ES64L-G09RevD.01 24-Apr-2013

 --------------------
 #p B2PLYPD3/Def2QZVP
 --------------------

 ---------
 butadiene
 ---------
 Symbolic Z-matrix:
 Charge =  0 Multiplicity = 1

                         Standard orientation:
 ---------------------------------------------------------------------
 Center     Atomic      Atomic             Coordinates (Angstroms)
 Number     Number       Type             X           Y           Z
 ---------------------------------------------------------------------
      1          6           0       -1.840784   -0.121962   -0.008889
      2          6           0       -0.607767    0.420554    0.002193
      3          6           0        0.606194   -0.392749   -0.003791
      4          6           0        1.842341    0.095947   -0.008077
      5          1           0       -2.725127    0.515715    0.013377
      6          1           0       -2.026447   -1.190932   -0.000656
      7          1           0       -0.486309    1.483178    0.049260
      8          1           0        0.474408   -1.477514    0.034931
      9          1           0        2.028158    1.178394   -0.022338
     10          1           0        2.735406   -0.519581    0.036816
 ---------------------------------------------------------------------

 SCF Done:  E(RB2PLYPD3) =  -155.700309550     A.U. after   11 cycles
 E2(B2PLYPD3) =    -0.2259128048D+00 E(B2PLYPD3) =    -0.15592622235498D+03

 The electronic state is 1-A.
 Alpha  occ. eigenvalues --  -10.62755 -10.62578 -10.61875 -10.61584  -0.92792
 Alpha  occ. eigenvalues --   -0.84744  -0.69982  -0.64153  -0.54522  -0.53750
 Alpha  occ. eigenvalues --   -0.46844  -0.45300  -0.41055  -0.37994  -0.27683
 Alpha virt. eigenvalues --    0.01723   0.06997   0.07395   0.08045   0.09483
 Alpha virt. eigenvalues --    0.11617   0.12421   0.14631   0.15913   0.16163
 Alpha virt. eigenvalues --    0.18846   0.20544   0.21616   0.22812   0.23596

 Mulliken charges:
               1
     1  C   -0.172697
     2  C   -0.040812
     3  C   -0.026664
     4  C   -0.172296
     5  H    0.081639
     6  H    0.069578
     7  H    0.062433
     8  H    0.054651
     9  H    0.059126
    10  H    0.085042
 Sum of Mulliken charges =   0.00000

 Dipole moment (field-independent basis, Debye):
    X=             -0.0162    Y=              0.0017    Z=              0.1008  Tot=              0.1021
 Quadrupole moment (field-independent basis, Debye-Ang):
   XX=            -23.3981   YY=            -23.1019   ZZ=            -29.3354
   XY=              0.2150   XZ=              0.0257   YZ=             -0.0228

 1\1\GINC-NODE35\SP\RB2PLYPD3-FC\def2QZVP\C4H6\BOITTIER\26-Aug-2020\0\\
 #p B2PLYPD3/Def2QZVP\\butadiene\\0,1\C,0,-3.840585,0.236843,0.024448\C
 ,0,-2.725552,-0.519083,0.031874\C,0,-1.384902,0.061937,0.015358\C,0,-0
 .257035,-0.641176,0.036524\H,0,-4.82543,-0.231398,0.019946\H,0,-3.8306
 28,1.321033,-0.0164\H,0,-2.797727,-1.587123,0.017144\H,0,-1.319219,1.1
 51031,-0.05635\H,0,-0.269246,-1.738463,0.083804\H,0,0.732146,-0.1983,-
 0.025419\\Version=ES64L-G09RevD.01\State=1-A\HF=-155.7003096\MP2=-155.
 9262224\RMSD=5.520e-09\PG=C01 [X(C4H6)]\\@

 Normal termination of Gaussian 09 at Wed Aug 26 18:36:07 2020.
