 Gaussian 09, Revision D.01,
 Gaussian 09:  ES64L-G09RevD.01 24-Apr-2013

 --------------------
 #p B2PLYPD3/Def2QZVP
 --------------------

 ---------
 butadiene
 ---------
 Symbolic Z-matrix:
 Charge =  0 Multiplicity = 1

                         Standard orientation:
 ---------------------------------------------------------------------
 Center     Atomic      Atomic             Coordinates (Angstroms)
 Number     Number       Type             X           Y           Z
 ---------------------------------------------------------------------
      1          6           0       -1.851643    0.090951    0.028022
      2          6           0       -0.627355   -0.383479   -0.034393
      3          6           0        0.616812    0.447267   -0.067778
      4          6           0        1.845765   -0.138913    0.051919
      5          1           0       -2.711389   -0.573846    0.034282
      6          1           0       -1.993082    1.159610    0.113084
      7          1           0       -0.452776   -1.431939   -0.046213
      8          1           0        0.499639    1.521303   -0.034756
      9          1           0        2.016760   -1.254462    0.015223
     10          1           0        2.739374    0.484378    0.051762
 ---------------------------------------------------------------------

 SCF Done:  E(RB2PLYPD3) =  -155.694727512     A.U. after   11 cycles
 E2(B2PLYPD3) =    -0.2262644285D+00 E(B2PLYPD3) =    -0.15592099194003D+03

 The electronic state is 1-A.
 Alpha  occ. eigenvalues --  -10.63435 -10.62696 -10.62173 -10.61130  -0.92375
 Alpha  occ. eigenvalues --   -0.84673  -0.69450  -0.64209  -0.54221  -0.53499
 Alpha  occ. eigenvalues --   -0.46818  -0.45532  -0.40828  -0.37574  -0.27844
 Alpha virt. eigenvalues --    0.01823   0.06968   0.07344   0.08114   0.09192
 Alpha virt. eigenvalues --    0.11675   0.12294   0.14483   0.15831   0.16034
 Alpha virt. eigenvalues --    0.18871   0.20206   0.21421   0.22945   0.23840

 Mulliken charges:
               1
     1  C   -0.177355
     2  C   -0.020354
     3  C   -0.056229
     4  C   -0.169462
     5  H    0.087816
     6  H    0.064371
     7  H    0.058142
     8  H    0.063225
     9  H    0.067954
    10  H    0.081893
 Sum of Mulliken charges =   0.00000

 Dipole moment (field-independent basis, Debye):
    X=              0.0456    Y=             -0.0066    Z=              0.0507  Tot=              0.0685
 Quadrupole moment (field-independent basis, Debye-Ang):
   XX=            -23.6645   YY=            -22.9552   ZZ=            -29.4160
   XY=             -0.1447   XZ=             -0.1139   YZ=              0.1498

 1\1\GINC-NODE28\SP\RB2PLYPD3-FC\def2QZVP\C4H6\BOITTIER\26-Aug-2020\0\\
 #p B2PLYPD3/Def2QZVP\\butadiene\\0,1\C,0,-3.857026,0.201394,0.052031\C
 ,0,-2.736219,-0.483537,0.001834\C,0,-1.364862,0.112912,-0.051397\C,0,-
 0.258519,-0.678381,0.083211\H,0,-4.820779,-0.300448,0.074239\H,0,-3.80
 6868,1.279962,0.11075\H,0,-2.749901,-1.546318,0.015854\H,0,-1.290073,1
 .191215,-0.044823\H,0,-0.287692,-1.807141,0.074009\H,0,0.731244,-0.223
 221,0.068139\\Version=ES64L-G09RevD.01\State=1-A\HF=-155.6947275\MP2=-
 155.9209919\RMSD=7.791e-09\PG=C01 [X(C4H6)]\\@

 Normal termination of Gaussian 09 at Wed Aug 26 09:12:18 2020.
