 Gaussian 09, Revision D.01,
 Gaussian 09:  ES64L-G09RevD.01 24-Apr-2013

 --------------------
 #p B2PLYPD3/Def2QZVP
 --------------------

 ---------
 butadiene
 ---------
 Symbolic Z-matrix:
 Charge =  0 Multiplicity = 1

                         Standard orientation:
 ---------------------------------------------------------------------
 Center     Atomic      Atomic             Coordinates (Angstroms)
 Number     Number       Type             X           Y           Z
 ---------------------------------------------------------------------
      1          6           0        1.822786    0.078308    0.068495
      2          6           0        0.578734   -0.350134   -0.100996
      3          6           0       -0.603421    0.436810   -0.051182
      4          6           0       -1.814822   -0.161221    0.034351
      5          1           0        2.708384   -0.622647    0.272523
      6          1           0        1.981509    1.141780    0.016675
      7          1           0        0.402058   -1.404651   -0.286926
      8          1           0       -0.491029    1.574849   -0.116296
      9          1           0       -1.883896   -1.249372    0.205164
     10          1           0       -2.616695    0.537464    0.204857
 ---------------------------------------------------------------------

 SCF Done:  E(RB2PLYPD3) =  -155.683634808     A.U. after   11 cycles
 E2(B2PLYPD3) =    -0.2274428489D+00 E(B2PLYPD3) =    -0.15591107765679D+03

 The electronic state is 1-A.
 Alpha  occ. eigenvalues --  -10.63239 -10.62016 -10.61966 -10.61876  -0.93540
 Alpha  occ. eigenvalues --   -0.84679  -0.69868  -0.63424  -0.54220  -0.53324
 Alpha  occ. eigenvalues --   -0.45895  -0.45603  -0.41910  -0.37535  -0.27302
 Alpha virt. eigenvalues --    0.01363   0.06978   0.07087   0.07838   0.09335
 Alpha virt. eigenvalues --    0.11769   0.12262   0.14647   0.15414   0.15878
 Alpha virt. eigenvalues --    0.18566   0.20233   0.20990   0.22506   0.23913

 Mulliken charges:
               1
     1  C   -0.186214
     2  C   -0.017784
     3  C   -0.035008
     4  C   -0.176831
     5  H    0.086814
     6  H    0.066072
     7  H    0.056814
     8  H    0.048110
     9  H    0.074579
    10  H    0.083448
 Sum of Mulliken charges =   0.00000

 Dipole moment (field-independent basis, Debye):
    X=              0.0233    Y=              0.0227    Z=              0.1839  Tot=              0.1867
 Quadrupole moment (field-independent basis, Debye-Ang):
   XX=            -24.5033   YY=            -23.0116   ZZ=            -29.1826
   XY=             -0.0790   XZ=             -0.2172   YZ=             -0.1889

 1\1\GINC-NODE35\SP\RB2PLYPD3-FC\def2QZVP\C4H6\BOITTIER\26-Aug-2020\0\\
 #p B2PLYPD3/Def2QZVP\\butadiene\\0,1\C,0,-3.833204,0.191351,-0.049877\
 C,0,-2.686937,-0.453809,0.122736\C,0,-1.382095,0.106342,0.069144\C,0,-
 0.298696,-0.701159,-0.012323\H,0,-4.830952,-0.339235,-0.250441\H,0,-3.
 797179,1.266276,-0.004157\H,0,-2.703575,-1.521823,0.314722\H,0,-1.2870
 25,1.246311,0.127762\H,0,-0.427408,-1.784836,-0.176945\H,0,0.616121,-0
 .159801,-0.186321\\Version=ES64L-G09RevD.01\State=1-A\HF=-155.6836348\
 MP2=-155.9110777\RMSD=9.823e-09\PG=C01 [X(C4H6)]\\@

 Normal termination of Gaussian 09 at Wed Aug 26 14:41:45 2020.
