 Gaussian 09, Revision D.01,
 Gaussian 09:  ES64L-G09RevD.01 24-Apr-2013

 --------------------
 #p B2PLYPD3/Def2QZVP
 --------------------

 ---------
 butadiene
 ---------
 Symbolic Z-matrix:
 Charge =  0 Multiplicity = 1

                         Standard orientation:
 ---------------------------------------------------------------------
 Center     Atomic      Atomic             Coordinates (Angstroms)
 Number     Number       Type             X           Y           Z
 ---------------------------------------------------------------------
      1          6           0       -1.831322    0.108543    0.030274
      2          6           0       -0.590746   -0.408972   -0.060092
      3          6           0        0.591898    0.430674   -0.019395
      4          6           0        1.825338   -0.108934    0.013687
      5          1           0       -2.648133   -0.596521    0.119902
      6          1           0       -2.019494    1.181439    0.039733
      7          1           0       -0.436054   -1.466002   -0.039430
      8          1           0        0.456093    1.475253   -0.092783
      9          1           0        1.980387   -1.184012    0.054835
     10          1           0        2.696188    0.461976    0.130898
 ---------------------------------------------------------------------

 SCF Done:  E(RB2PLYPD3) =  -155.697154939     A.U. after   11 cycles
 E2(B2PLYPD3) =    -0.2260232373D+00 E(B2PLYPD3) =    -0.15592317817623D+03

 The electronic state is 1-A.
 Alpha  occ. eigenvalues --  -10.62386 -10.62321 -10.61654 -10.61231  -0.93021
 Alpha  occ. eigenvalues --   -0.84575  -0.70262  -0.64747  -0.54545  -0.54054
 Alpha  occ. eigenvalues --   -0.46355  -0.46018  -0.41756  -0.37913  -0.27292
 Alpha virt. eigenvalues --    0.01638   0.07047   0.07416   0.08204   0.09196
 Alpha virt. eigenvalues --    0.11754   0.12451   0.14803   0.15673   0.16318
 Alpha virt. eigenvalues --    0.18675   0.20176   0.21837   0.23375   0.23842

 Mulliken charges:
               1
     1  C   -0.181735
     2  C   -0.032484
     3  C   -0.035398
     4  C   -0.174905
     5  H    0.082764
     6  H    0.072505
     7  H    0.061969
     8  H    0.064773
     9  H    0.060024
    10  H    0.082487
 Sum of Mulliken charges =   0.00000

 Dipole moment (field-independent basis, Debye):
    X=              0.0332    Y=              0.0070    Z=              0.1430  Tot=              0.1470
 Quadrupole moment (field-independent basis, Debye-Ang):
   XX=            -23.8676   YY=            -22.8527   ZZ=            -29.2541
   XY=             -0.2663   XZ=              0.0208   YZ=             -0.1164

 1\1\GINC-NODE02\SP\RB2PLYPD3-FC\def2QZVP\C4H6\BOITTIER\26-Aug-2020\0\\
 #p B2PLYPD3/Def2QZVP\\butadiene\\0,1\C,0,-3.831012,0.230993,0.05038\C,
 0,-2.708661,-0.511197,-0.016689\C,0,-1.390415,0.094961,-0.006278\C,0,-
 0.27856,-0.662772,0.050857\H,0,-4.76414,-0.305934,0.165753\H,0,-3.8165
 16,1.319705,0.01722\H,0,-2.752955,-1.576933,0.045866\H,0,-1.330141,1.1
 42904,-0.120985\H,0,-0.325754,-1.745494,0.134593\H,0,0.683778,-0.25952
 3,0.147561\\Version=ES64L-G09RevD.01\State=1-A\HF=-155.6971549\MP2=-15
 5.9231782\RMSD=3.745e-09\PG=C01 [X(C4H6)]\\@

 Normal termination of Gaussian 09 at Wed Aug 26 09:07:35 2020.
