 Gaussian 09, Revision D.01,
 Gaussian 09:  ES64L-G09RevD.01 24-Apr-2013

 --------------------
 #p B2PLYPD3/Def2QZVP
 --------------------

 ---------
 butadiene
 ---------
 Symbolic Z-matrix:
 Charge =  0 Multiplicity = 1

                         Standard orientation:
 ---------------------------------------------------------------------
 Center     Atomic      Atomic             Coordinates (Angstroms)
 Number     Number       Type             X           Y           Z
 ---------------------------------------------------------------------
      1          6           0       -1.802699   -0.133491   -0.041170
      2          6           0       -0.596581    0.425246    0.078400
      3          6           0        0.568965   -0.372743    0.023372
      4          6           0        1.849714    0.091177   -0.057618
      5          1           0       -2.672222    0.594021   -0.066321
      6          1           0       -1.909388   -1.199276   -0.318358
      7          1           0       -0.476226    1.511077    0.197245
      8          1           0        0.264010   -1.497339    0.362920
      9          1           0        2.063674    1.154438   -0.206325
     10          1           0        2.613759   -0.624054    0.012935
 ---------------------------------------------------------------------

 SCF Done:  E(RB2PLYPD3) =  -155.675984627     A.U. after   11 cycles
 E2(B2PLYPD3) =    -0.2283416972D+00 E(B2PLYPD3) =    -0.15590432632464D+03

 The electronic state is 1-A.
 Alpha  occ. eigenvalues --  -10.63687 -10.62357 -10.62220 -10.61846  -0.93388
 Alpha  occ. eigenvalues --   -0.84333  -0.70237  -0.62682  -0.53856  -0.53515
 Alpha  occ. eigenvalues --   -0.46621  -0.44936  -0.40968  -0.37558  -0.27310
 Alpha virt. eigenvalues --    0.01103   0.06718   0.07176   0.07714   0.09129
 Alpha virt. eigenvalues --    0.11619   0.12127   0.14915   0.15069   0.15879
 Alpha virt. eigenvalues --    0.18484   0.19549   0.21090   0.22466   0.23556

 Mulliken charges:
               1
     1  C   -0.172381
     2  C   -0.025020
     3  C   -0.024272
     4  C   -0.205992
     5  H    0.078374
     6  H    0.074209
     7  H    0.054765
     8  H    0.046840
     9  H    0.077498
    10  H    0.095979
 Sum of Mulliken charges =   0.00000

 Dipole moment (field-independent basis, Debye):
    X=             -0.0222    Y=              0.1631    Z=             -0.0028  Tot=              0.1646
 Quadrupole moment (field-independent basis, Debye-Ang):
   XX=            -24.3706   YY=            -23.1648   ZZ=            -29.2466
   XY=              0.3215   XZ=              0.4383   YZ=             -0.1050

 1\1\GINC-NODE21\SP\RB2PLYPD3-FC\def2QZVP\C4H6\BOITTIER\26-Aug-2020\0\\
 #p B2PLYPD3/Def2QZVP\\butadiene\\0,1\C,0,-3.798329,0.259905,0.060269\C
 ,0,-2.720556,-0.520902,-0.039483\C,0,-1.424746,0.043476,-0.01363\C,0,-
 0.254324,-0.651329,0.083606\H,0,-4.789563,-0.288516,0.111907\H,0,-3.69
 9514,1.335731,0.298902\H,0,-2.808612,-1.613393,-0.119158\H,0,-1.513895
 ,1.192756,-0.393387\H,0,-0.244287,-1.72994,0.270465\H,0,0.630692,-0.09
 6599,-0.012927\\Version=ES64L-G09RevD.01\State=1-A\HF=-155.6759846\MP2
 =-155.9043263\RMSD=6.362e-09\PG=C01 [X(C4H6)]\\@

 Normal termination of Gaussian 09 at Wed Aug 26 16:06:59 2020.
