 Gaussian 09, Revision D.01,
 Gaussian 09:  ES64L-G09RevD.01 24-Apr-2013

 --------------------
 #p B2PLYPD3/Def2QZVP
 --------------------

 ---------
 butadiene
 ---------
 Symbolic Z-matrix:
 Charge =  0 Multiplicity = 1

                         Standard orientation:
 ---------------------------------------------------------------------
 Center     Atomic      Atomic             Coordinates (Angstroms)
 Number     Number       Type             X           Y           Z
 ---------------------------------------------------------------------
      1          6           0        1.863427   -0.124230   -0.042400
      2          6           0        0.608265    0.396613    0.017745
      3          6           0       -0.622637   -0.331045    0.052205
      4          6           0       -1.851323    0.079490   -0.057751
      5          1           0        2.747551    0.493394    0.019635
      6          1           0        1.981913   -1.248877   -0.024814
      7          1           0        0.490298    1.474023    0.015609
      8          1           0       -0.540226   -1.389437    0.160240
      9          1           0       -2.062499    1.211349    0.119018
     10          1           0       -2.603431   -0.665417   -0.108489
 ---------------------------------------------------------------------

 SCF Done:  E(RB2PLYPD3) =  -155.684601970     A.U. after   11 cycles
 E2(B2PLYPD3) =    -0.2264427091D+00 E(B2PLYPD3) =    -0.15591104467933D+03

 The electronic state is 1-A.
 Alpha  occ. eigenvalues --  -10.62860 -10.62662 -10.61702 -10.61458  -0.93456
 Alpha  occ. eigenvalues --   -0.85251  -0.70472  -0.63256  -0.54954  -0.53406
 Alpha  occ. eigenvalues --   -0.47261  -0.44979  -0.40973  -0.37808  -0.27806
 Alpha virt. eigenvalues --    0.01215   0.06924   0.07319   0.07928   0.10015
 Alpha virt. eigenvalues --    0.11648   0.12175   0.14492   0.15591   0.16373
 Alpha virt. eigenvalues --    0.18737   0.19874   0.21286   0.22102   0.24462

 Mulliken charges:
               1
     1  C   -0.171546
     2  C   -0.039324
     3  C   -0.008868
     4  C   -0.175049
     5  H    0.093467
     6  H    0.062431
     7  H    0.048691
     8  H    0.039543
     9  H    0.062244
    10  H    0.088411
 Sum of Mulliken charges =   0.00000

 Dipole moment (field-independent basis, Debye):
    X=              0.0361    Y=             -0.0618    Z=              0.2200  Tot=              0.2314
 Quadrupole moment (field-independent basis, Debye-Ang):
   XX=            -23.6703   YY=            -23.2956   ZZ=            -29.2303
   XY=              0.3754   XZ=              0.0054   YZ=              0.1582

 1\1\GINC-NODE22\SP\RB2PLYPD3-FC\def2QZVP\C4H6\BOITTIER\26-Aug-2020\0\\
 #p B2PLYPD3/Def2QZVP\\butadiene\\0,1\C,0,-3.864009,0.237652,-0.024078\
 C,0,-2.720821,-0.494465,0.062247\C,0,-1.380207,0.004051,0.067538\C,0,-
 0.244425,-0.622412,-0.021024\H,0,-4.843313,-0.209963,0.06303\H,0,-3.78
 1048,1.365143,-0.056634\H,0,-2.795831,-1.574743,0.108144\H,0,-1.273008
 ,1.063987,0.128368\H,0,-0.2364,-1.764879,0.206249\H,0,0.627594,-0.0257
 38,-0.102818\\Version=ES64L-G09RevD.01\State=1-A\HF=-155.684602\MP2=-1
 55.9110447\RMSD=9.839e-09\PG=C01 [X(C4H6)]\\@

 Normal termination of Gaussian 09 at Wed Aug 26 13:11:56 2020.
