 Gaussian 09, Revision D.01,
 Gaussian 09:  ES64L-G09RevD.01 24-Apr-2013

 --------------------
 #p B2PLYPD3/Def2QZVP
 --------------------

 ---------
 butadiene
 ---------
 Symbolic Z-matrix:
 Charge =  0 Multiplicity = 1

                         Standard orientation:
 ---------------------------------------------------------------------
 Center     Atomic      Atomic             Coordinates (Angstroms)
 Number     Number       Type             X           Y           Z
 ---------------------------------------------------------------------
      1          6           0        1.833390    0.093033   -0.031601
      2          6           0        0.597245   -0.403320    0.043823
      3          6           0       -0.607563    0.429516    0.020601
      4          6           0       -1.831228   -0.120693   -0.040796
      5          1           0        2.717734   -0.540491   -0.058041
      6          1           0        2.036757    1.188001   -0.070368
      7          1           0        0.397484   -1.432063    0.103185
      8          1           0       -0.462846    1.537500    0.135533
      9          1           0       -1.891104   -1.228625   -0.036735
     10          1           0       -2.749096    0.484460   -0.025737
 ---------------------------------------------------------------------

 SCF Done:  E(RB2PLYPD3) =  -155.695781522     A.U. after   11 cycles
 E2(B2PLYPD3) =    -0.2264678263D+00 E(B2PLYPD3) =    -0.15592224934781D+03

 The electronic state is 1-A.
 Alpha  occ. eigenvalues --  -10.63052 -10.62330 -10.62123 -10.61919  -0.92872
 Alpha  occ. eigenvalues --   -0.84529  -0.69610  -0.63972  -0.54471  -0.53197
 Alpha  occ. eigenvalues --   -0.46927  -0.45074  -0.41053  -0.37833  -0.27689
 Alpha virt. eigenvalues --    0.01831   0.07033   0.07189   0.08028   0.09304
 Alpha virt. eigenvalues --    0.11651   0.12395   0.14472   0.15735   0.16055
 Alpha virt. eigenvalues --    0.18660   0.20399   0.21348   0.22864   0.23816

 Mulliken charges:
               1
     1  C   -0.170281
     2  C   -0.037721
     3  C   -0.026063
     4  C   -0.178184
     5  H    0.083328
     6  H    0.063424
     7  H    0.061202
     8  H    0.053971
     9  H    0.060927
    10  H    0.089397
 Sum of Mulliken charges =   0.00000

 Dipole moment (field-independent basis, Debye):
    X=              0.0080    Y=             -0.0063    Z=              0.0904  Tot=              0.0910
 Quadrupole moment (field-independent basis, Debye-Ang):
   XX=            -23.6294   YY=            -23.1234   ZZ=            -29.3893
   XY=              0.1478   XZ=             -0.2142   YZ=              0.0330

 1\1\GINC-NODE01\SP\RB2PLYPD3-FC\def2QZVP\C4H6\BOITTIER\26-Aug-2020\0\\
 #p B2PLYPD3/Def2QZVP\\butadiene\\0,1\C,0,-3.838565,0.212179,0.051434\C
 ,0,-2.714031,-0.503479,-0.006591\C,0,-1.377537,0.096078,-0.012279\C,0,
 -0.274227,-0.665545,0.068307\H,0,-4.823342,-0.248241,0.09984\H,0,-3.83
 8798,1.326547,0.052066\H,0,-2.705407,-1.552818,-0.030111\H,0,-1.318696
 ,1.207284,-0.165701\H,0,-0.417224,-1.765307,0.102801\H,0,0.738415,-0.2
 38725,0.032264\\Version=ES64L-G09RevD.01\State=1-A\HF=-155.6957815\MP2
 =-155.9222493\RMSD=3.943e-09\PG=C01 [X(C4H6)]\\@

 Normal termination of Gaussian 09 at Wed Aug 26 10:06:48 2020.
