 Gaussian 09, Revision D.01,
 Gaussian 09:  ES64L-G09RevD.01 24-Apr-2013

 --------------------
 #p B2PLYPD3/Def2QZVP
 --------------------

 ---------
 butadiene
 ---------
 Symbolic Z-matrix:
 Charge =  0 Multiplicity = 1

                         Standard orientation:
 ---------------------------------------------------------------------
 Center     Atomic      Atomic             Coordinates (Angstroms)
 Number     Number       Type             X           Y           Z
 ---------------------------------------------------------------------
      1          6           0        1.820771    0.114427    0.037901
      2          6           0        0.591704   -0.389696   -0.047436
      3          6           0       -0.602920    0.417701   -0.028982
      4          6           0       -1.820935   -0.129233    0.012392
      5          1           0        2.673999   -0.601206    0.105852
      6          1           0        2.041300    1.171305    0.009710
      7          1           0        0.448727   -1.453591   -0.075646
      8          1           0       -0.531010    1.511850   -0.095967
      9          1           0       -1.879591   -1.235971    0.045196
     10          1           0       -2.685140    0.528420    0.167602
 ---------------------------------------------------------------------

 SCF Done:  E(RB2PLYPD3) =  -155.695970408     A.U. after   11 cycles
 E2(B2PLYPD3) =    -0.2262606867D+00 E(B2PLYPD3) =    -0.15592223109455D+03

 The electronic state is 1-A.
 Alpha  occ. eigenvalues --  -10.62396 -10.62244 -10.61787 -10.61692  -0.93294
 Alpha  occ. eigenvalues --   -0.84825  -0.69489  -0.64002  -0.54560  -0.53439
 Alpha  occ. eigenvalues --   -0.46317  -0.45140  -0.41534  -0.38138  -0.27571
 Alpha virt. eigenvalues --    0.01851   0.06974   0.07285   0.07920   0.09486
 Alpha virt. eigenvalues --    0.11804   0.12241   0.14691   0.15658   0.16039
 Alpha virt. eigenvalues --    0.18536   0.20216   0.21272   0.22882   0.24220

 Mulliken charges:
               1
     1  C   -0.177372
     2  C   -0.032312
     3  C   -0.024964
     4  C   -0.177618
     5  H    0.077316
     6  H    0.074386
     7  H    0.057157
     8  H    0.054610
     9  H    0.062453
    10  H    0.086345
 Sum of Mulliken charges =   0.00000

 Dipole moment (field-independent basis, Debye):
    X=              0.0210    Y=              0.0431    Z=              0.0893  Tot=              0.1014
 Quadrupole moment (field-independent basis, Debye-Ang):
   XX=            -24.2058   YY=            -22.8452   ZZ=            -29.2845
   XY=             -0.0528   XZ=             -0.2501   YZ=             -0.0404

 1\1\GINC-NODE20\SP\RB2PLYPD3-FC\def2QZVP\C4H6\BOITTIER\26-Aug-2020\0\\
 #p B2PLYPD3/Def2QZVP\\butadiene\\0,1\C,0,-3.825072,0.220344,-0.017971\
 C,0,-2.705238,-0.492923,0.078211\C,0,-1.385891,0.087906,0.041909\C,0,-
 0.285078,-0.668233,0.012349\H,0,-4.792485,-0.332955,-0.070111\H,0,-3.8
 53526,1.299966,-0.012901\H,0,-2.754116,-1.564404,0.129693\H,0,-1.26130
 7,1.178524,0.084926\H,0,-0.42481,-1.768136,0.003782\H,0,0.681896,-0.17
 8731,-0.157349\\Version=ES64L-G09RevD.01\State=1-A\HF=-155.6959704\MP2
 =-155.9222311\RMSD=3.322e-09\PG=C01 [X(C4H6)]\\@

 Normal termination of Gaussian 09 at Wed Aug 26 09:02:43 2020.
