 Gaussian 09, Revision D.01,
 Gaussian 09:  ES64L-G09RevD.01 24-Apr-2013

 --------------------
 #p B2PLYPD3/Def2QZVP
 --------------------

 ---------
 butadiene
 ---------
 Symbolic Z-matrix:
 Charge =  0 Multiplicity = 1

                         Standard orientation:
 ---------------------------------------------------------------------
 Center     Atomic      Atomic             Coordinates (Angstroms)
 Number     Number       Type             X           Y           Z
 ---------------------------------------------------------------------
      1          6           0        1.841769    0.092391    0.047774
      2          6           0        0.612038   -0.368250   -0.039644
      3          6           0       -0.602374    0.402306   -0.063506
      4          6           0       -1.844723   -0.107626    0.043691
      5          1           0        2.684935   -0.597854    0.091779
      6          1           0        2.123713    1.154481   -0.028253
      7          1           0        0.427731   -1.446881   -0.089092
      8          1           0       -0.506362    1.481761   -0.009223
      9          1           0       -2.047084   -1.185603    0.006477
     10          1           0       -2.723187    0.481174    0.098419
 ---------------------------------------------------------------------

 SCF Done:  E(RB2PLYPD3) =  -155.697250410     A.U. after   11 cycles
 E2(B2PLYPD3) =    -0.2258042706D+00 E(B2PLYPD3) =    -0.15592305468073D+03

 The electronic state is 1-A.
 Alpha  occ. eigenvalues --  -10.62627 -10.62364 -10.61743 -10.61631  -0.93168
 Alpha  occ. eigenvalues --   -0.84996  -0.70680  -0.63765  -0.55061  -0.53608
 Alpha  occ. eigenvalues --   -0.47282  -0.45114  -0.40639  -0.38275  -0.27760
 Alpha virt. eigenvalues --    0.01492   0.06980   0.07417   0.08055   0.09804
 Alpha virt. eigenvalues --    0.11532   0.12437   0.14835   0.15699   0.16368
 Alpha virt. eigenvalues --    0.18983   0.20031   0.22035   0.22738   0.23475

 Mulliken charges:
               1
     1  C   -0.171436
     2  C   -0.025216
     3  C   -0.032914
     4  C   -0.170249
     5  H    0.081705
     6  H    0.068099
     7  H    0.051725
     8  H    0.054763
     9  H    0.058120
    10  H    0.085403
 Sum of Mulliken charges =   0.00000

 Dipole moment (field-independent basis, Debye):
    X=             -0.0355    Y=              0.0094    Z=             -0.0144  Tot=              0.0394
 Quadrupole moment (field-independent basis, Debye-Ang):
   XX=            -23.1196   YY=            -23.3400   ZZ=            -29.2147
   XY=              0.3066   XZ=             -0.1795   YZ=              0.0618

 1\1\GINC-NODE16\SP\RB2PLYPD3-FC\def2QZVP\C4H6\BOITTIER\26-Aug-2020\0\\
 #p B2PLYPD3/Def2QZVP\\butadiene\\0,1\C,0,-3.845355,0.211024,-0.028244\
 C,0,-2.720781,-0.464841,0.074764\C,0,-1.385334,0.06967,0.074615\C,0,-0
 .258441,-0.663121,-0.015297\H,0,-4.801232,-0.31348,-0.050567\H,0,-3.92
 6904,1.308715,0.013377\H,0,-2.737584,-1.556847,0.159021\H,0,-1.281615,
 1.146099,-0.014443\H,0,-0.257442,-1.758192,0.056724\H,0,0.712968,-0.24
 7905,-0.088367\\Version=ES64L-G09RevD.01\State=1-A\HF=-155.6972504\MP2
 =-155.9230547\RMSD=7.267e-09\PG=C01 [X(C4H6)]\\@

 Normal termination of Gaussian 09 at Wed Aug 26 09:48:14 2020.
