 Gaussian 09, Revision D.01,
 Gaussian 09:  ES64L-G09RevD.01 24-Apr-2013

 --------------------
 #p B2PLYPD3/Def2QZVP
 --------------------

 ---------
 butadiene
 ---------
 Symbolic Z-matrix:
 Charge =  0 Multiplicity = 1

                         Standard orientation:
 ---------------------------------------------------------------------
 Center     Atomic      Atomic             Coordinates (Angstroms)
 Number     Number       Type             X           Y           Z
 ---------------------------------------------------------------------
      1          6           0       -1.846435   -0.129559   -0.000011
      2          6           0       -0.612260    0.412964   -0.014505
      3          6           0        0.610816   -0.390955   -0.022270
      4          6           0        1.845454    0.103807    0.007380
      5          1           0       -2.706477    0.519436    0.041935
      6          1           0       -1.971599   -1.185647    0.053607
      7          1           0       -0.500125    1.506005    0.032440
      8          1           0        0.490660   -1.466767   -0.018570
      9          1           0        1.983975    1.170129   -0.012019
     10          1           0        2.718118   -0.520699    0.079046
 ---------------------------------------------------------------------

 SCF Done:  E(RB2PLYPD3) =  -155.700186809     A.U. after   11 cycles
 E2(B2PLYPD3) =    -0.2257849450D+00 E(B2PLYPD3) =    -0.15592597175444D+03

 The electronic state is 1-A.
 Alpha  occ. eigenvalues --  -10.62966 -10.62441 -10.61511 -10.61248  -0.92772
 Alpha  occ. eigenvalues --   -0.84968  -0.70071  -0.64058  -0.54397  -0.54264
 Alpha  occ. eigenvalues --   -0.46483  -0.45891  -0.41312  -0.37922  -0.27662
 Alpha virt. eigenvalues --    0.01708   0.07021   0.07440   0.08050   0.09505
 Alpha virt. eigenvalues --    0.11707   0.12461   0.14661   0.15848   0.16160
 Alpha virt. eigenvalues --    0.18780   0.20475   0.21529   0.22988   0.23942

 Mulliken charges:
               1
     1  C   -0.178824
     2  C   -0.035534
     3  C   -0.025544
     4  C   -0.176940
     5  H    0.087361
     6  H    0.071692
     7  H    0.053239
     8  H    0.052457
     9  H    0.063738
    10  H    0.088355
 Sum of Mulliken charges =   0.00000

 Dipole moment (field-independent basis, Debye):
    X=              0.0018    Y=             -0.0078    Z=              0.1402  Tot=              0.1404
 Quadrupole moment (field-independent basis, Debye-Ang):
   XX=            -23.5556   YY=            -23.0359   ZZ=            -29.2954
   XY=              0.0001   XZ=             -0.0435   YZ=             -0.0483

 1\1\GINC-NODE22\SP\RB2PLYPD3-FC\def2QZVP\C4H6\BOITTIER\26-Aug-2020\0\\
 #p B2PLYPD3/Def2QZVP\\butadiene\\0,1\C,0,-3.846596,0.236885,0.013255\C
 ,0,-2.727192,-0.513777,0.04748\C,0,-1.381651,0.062036,0.032706\C,0,-0.
 253529,-0.643097,0.021311\H,0,-4.807613,-0.251503,-0.010198\H,0,-3.784
 024,1.296308,-0.073751\H,0,-2.809434,-1.610408,0.035104\H,0,-1.310508,
 1.141545,-0.005015\H,0,-0.30487,-1.716011,0.074466\H,0,0.715219,-0.184
 58,-0.067996\\Version=ES64L-G09RevD.01\State=1-A\HF=-155.7001868\MP2=-
 155.9259718\RMSD=5.461e-09\PG=C01 [X(C4H6)]\\@

 Normal termination of Gaussian 09 at Wed Aug 26 18:31:46 2020.
