 Gaussian 09, Revision D.01,
 Gaussian 09:  ES64L-G09RevD.01 24-Apr-2013

 --------------------
 #p B2PLYPD3/Def2QZVP
 --------------------

 ---------
 butadiene
 ---------
 Symbolic Z-matrix:
 Charge =  0 Multiplicity = 1

                         Standard orientation:
 ---------------------------------------------------------------------
 Center     Atomic      Atomic             Coordinates (Angstroms)
 Number     Number       Type             X           Y           Z
 ---------------------------------------------------------------------
      1          6           0        1.855159   -0.100963    0.008091
      2          6           0        0.606374    0.379316   -0.038295
      3          6           0       -0.624825   -0.421772   -0.011172
      4          6           0       -1.849296    0.115929    0.023464
      5          1           0        2.667562    0.586457   -0.010746
      6          1           0        2.110821   -1.111705    0.193692
      7          1           0        0.433485    1.415803   -0.053097
      8          1           0       -0.467117   -1.491555   -0.112216
      9          1           0       -1.923707    1.245470    0.127520
     10          1           0       -2.745512   -0.479529   -0.037682
 ---------------------------------------------------------------------

 SCF Done:  E(RB2PLYPD3) =  -155.695716089     A.U. after   11 cycles
 E2(B2PLYPD3) =    -0.2258278264D+00 E(B2PLYPD3) =    -0.15592154391517D+03

 The electronic state is 1-A.
 Alpha  occ. eigenvalues --  -10.62646 -10.62318 -10.62224 -10.61137  -0.92763
 Alpha  occ. eigenvalues --   -0.84897  -0.70315  -0.64236  -0.54869  -0.53507
 Alpha  occ. eigenvalues --   -0.47266  -0.45683  -0.40857  -0.37797  -0.27757
 Alpha virt. eigenvalues --    0.01608   0.06993   0.07445   0.08167   0.09432
 Alpha virt. eigenvalues --    0.11685   0.12371   0.14785   0.15649   0.16166
 Alpha virt. eigenvalues --    0.18785   0.20294   0.21465   0.22711   0.23985

 Mulliken charges:
               1
     1  C   -0.177089
     2  C   -0.033745
     3  C   -0.035247
     4  C   -0.174731
     5  H    0.081138
     6  H    0.071693
     7  H    0.058313
     8  H    0.057468
     9  H    0.059270
    10  H    0.092930
 Sum of Mulliken charges =   0.00000

 Dipole moment (field-independent basis, Debye):
    X=             -0.0080    Y=             -0.0238    Z=              0.0760  Tot=              0.0800
 Quadrupole moment (field-independent basis, Debye-Ang):
   XX=            -23.4634   YY=            -23.1891   ZZ=            -29.2320
   XY=             -0.1559   XZ=              0.3497   YZ=              0.0270

 1\1\GINC-NODE05\SP\RB2PLYPD3-FC\def2QZVP\C4H6\BOITTIER\26-Aug-2020\0\\
 #p B2PLYPD3/Def2QZVP\\butadiene\\0,1\C,0,-3.860701,0.216745,0.032251\C
 ,0,-2.719319,-0.482282,0.00241\C,0,-1.363724,0.084006,-0.000891\C,0,-0
 .256003,-0.664172,0.052361\H,0,-4.78382,-0.313067,0.039307\H,0,-3.9286
 02,1.263022,0.180926\H,0,-2.736199,-1.532806,0.025434\H,0,-1.326774,1.
 160363,-0.140915\H,0,-0.385632,-1.784133,0.197656\H,0,0.732382,-0.2427
 42,-0.031329\\Version=ES64L-G09RevD.01\State=1-A\HF=-155.6957161\MP2=-
 155.9215439\RMSD=5.972e-09\PG=C01 [X(C4H6)]\\@

 Normal termination of Gaussian 09 at Wed Aug 26 09:54:34 2020.
