 Gaussian 09, Revision D.01,
 Gaussian 09:  ES64L-G09RevD.01 24-Apr-2013

 --------------------
 #p B2PLYPD3/Def2QZVP
 --------------------

 ---------
 butadiene
 ---------
 Symbolic Z-matrix:
 Charge =  0 Multiplicity = 1

                         Standard orientation:
 ---------------------------------------------------------------------
 Center     Atomic      Atomic             Coordinates (Angstroms)
 Number     Number       Type             X           Y           Z
 ---------------------------------------------------------------------
      1          6           0       -1.839898    0.091594    0.046669
      2          6           0       -0.579398   -0.382590   -0.029920
      3          6           0        0.606241    0.439845   -0.030218
      4          6           0        1.829483   -0.122883    0.014580
      5          1           0       -2.700542   -0.575995    0.018730
      6          1           0       -2.019979    1.136849   -0.054170
      7          1           0       -0.407080   -1.458425   -0.012356
      8          1           0        0.410242    1.494481   -0.058622
      9          1           0        1.883146   -1.200400   -0.056715
     10          1           0        2.735643    0.447690    0.156466
 ---------------------------------------------------------------------

 SCF Done:  E(RB2PLYPD3) =  -155.697046791     A.U. after   11 cycles
 E2(B2PLYPD3) =    -0.2264769557D+00 E(B2PLYPD3) =    -0.15592352374670D+03

 The electronic state is 1-A.
 Alpha  occ. eigenvalues --  -10.62618 -10.62530 -10.61864 -10.61446  -0.93151
 Alpha  occ. eigenvalues --   -0.84514  -0.70321  -0.64440  -0.54623  -0.53647
 Alpha  occ. eigenvalues --   -0.46663  -0.45825  -0.41600  -0.38004  -0.27293
 Alpha virt. eigenvalues --    0.01367   0.07022   0.07381   0.08164   0.09300
 Alpha virt. eigenvalues --    0.11750   0.12594   0.14735   0.15713   0.16204
 Alpha virt. eigenvalues --    0.18671   0.19947   0.21823   0.23222   0.24152

 Mulliken charges:
               1
     1  C   -0.183209
     2  C   -0.020254
     3  C   -0.033458
     4  C   -0.175390
     5  H    0.083202
     6  H    0.063833
     7  H    0.049968
     8  H    0.058421
     9  H    0.067469
    10  H    0.089418
 Sum of Mulliken charges =   0.00000

 Dipole moment (field-independent basis, Debye):
    X=              0.0767    Y=              0.0183    Z=             -0.0531  Tot=              0.0951
 Quadrupole moment (field-independent basis, Debye-Ang):
   XX=            -23.6616   YY=            -23.1394   ZZ=            -29.2946
   XY=             -0.1785   XZ=              0.4465   YZ=              0.0239

 1\1\GINC-NODE29\SP\RB2PLYPD3-FC\def2QZVP\C4H6\BOITTIER\26-Aug-2020\0\\
 #p B2PLYPD3/Def2QZVP\\butadiene\\0,1\C,0,-3.846149,0.213407,0.058671\C
 ,0,-2.694785,-0.48731,0.004495\C,0,-1.377819,0.101994,-0.01697\C,0,-0.
 279281,-0.674743,0.052923\H,0,-4.815167,-0.284652,0.048462\H,0,-3.8304
 91,1.269947,-0.077832\H,0,-2.723795,-1.575261,0.058747\H,0,-1.376004,1
 .173122,-0.081475\H,0,-0.42531,-1.745466,0.017803\H,0,0.716696,-0.2765
 36,0.180481\\Version=ES64L-G09RevD.01\State=1-A\HF=-155.6970468\MP2=-1
 55.9235237\RMSD=5.254e-09\PG=C01 [X(C4H6)]\\@

 Normal termination of Gaussian 09 at Wed Aug 26 10:16:49 2020.
