 Gaussian 09, Revision D.01,
 Gaussian 09:  ES64L-G09RevD.01 24-Apr-2013

 --------------------
 #p B2PLYPD3/Def2QZVP
 --------------------

 ---------
 butadiene
 ---------
 Symbolic Z-matrix:
 Charge =  0 Multiplicity = 1

                         Standard orientation:
 ---------------------------------------------------------------------
 Center     Atomic      Atomic             Coordinates (Angstroms)
 Number     Number       Type             X           Y           Z
 ---------------------------------------------------------------------
      1          6           0        1.837817   -0.110441    0.013985
      2          6           0        0.602849    0.397197   -0.008761
      3          6           0       -0.604634   -0.386039   -0.026680
      4          6           0       -1.847425    0.104844    0.006283
      5          1           0        2.731841    0.502379    0.015646
      6          1           0        2.029835   -1.171148   -0.034348
      7          1           0        0.506817    1.479103    0.011076
      8          1           0       -0.448407   -1.446406    0.059997
      9          1           0       -2.042625    1.173603    0.005035
     10          1           0       -2.709105   -0.570898    0.033631
 ---------------------------------------------------------------------

 SCF Done:  E(RB2PLYPD3) =  -155.700301712     A.U. after   11 cycles
 E2(B2PLYPD3) =    -0.2257708838D+00 E(B2PLYPD3) =    -0.15592607259592D+03

 The electronic state is 1-A.
 Alpha  occ. eigenvalues --  -10.62451 -10.62353 -10.61806 -10.61529  -0.93149
 Alpha  occ. eigenvalues --   -0.84877  -0.70394  -0.64146  -0.54621  -0.53979
 Alpha  occ. eigenvalues --   -0.46765  -0.45491  -0.41071  -0.38250  -0.27642
 Alpha virt. eigenvalues --    0.01535   0.06984   0.07479   0.08019   0.09729
 Alpha virt. eigenvalues --    0.11655   0.12414   0.14771   0.15727   0.16226
 Alpha virt. eigenvalues --    0.18857   0.20369   0.21653   0.22862   0.23677

 Mulliken charges:
               1
     1  C   -0.173375
     2  C   -0.027318
     3  C   -0.031853
     4  C   -0.176752
     5  H    0.082893
     6  H    0.061724
     7  H    0.052775
     8  H    0.057573
     9  H    0.069062
    10  H    0.085272
 Sum of Mulliken charges =   0.00000

 Dipole moment (field-independent basis, Debye):
    X=              0.0286    Y=             -0.0022    Z=              0.0530  Tot=              0.0602
 Quadrupole moment (field-independent basis, Debye-Ang):
   XX=            -23.3279   YY=            -23.1987   ZZ=            -29.2544
   XY=             -0.1873   XZ=             -0.1769   YZ=             -0.0338

 1\1\GINC-NODE02\SP\RB2PLYPD3-FC\def2QZVP\C4H6\BOITTIER\26-Aug-2020\0\\
 #p B2PLYPD3/Def2QZVP\\butadiene\\0,1\C,0,-3.840872,0.226948,0.031995\C
 ,0,-2.718111,-0.496056,0.026468\C,0,-1.388924,0.055174,-0.008219\C,0,-
 0.255346,-0.651301,0.041528\H,0,-4.830977,-0.213846,0.04694\H,0,-3.837
 98,1.30324,-0.04478\H,0,-2.819287,-1.576585,0.075012\H,0,-1.350668,1.1
 28223,0.05009\H,0,-0.256647,-1.737394,0.06896\H,0,0.714376,-0.142031,0
 .053828\\Version=ES64L-G09RevD.01\State=1-A\HF=-155.7003017\MP2=-155.9
 260726\RMSD=3.175e-09\PG=C01 [X(C4H6)]\\@

 Normal termination of Gaussian 09 at Wed Aug 26 19:25:38 2020.
