 Gaussian 09, Revision D.01,
 Gaussian 09:  ES64L-G09RevD.01 24-Apr-2013

 --------------------
 #p B2PLYPD3/Def2QZVP
 --------------------

 ---------
 butadiene
 ---------
 Symbolic Z-matrix:
 Charge =  0 Multiplicity = 1

                         Standard orientation:
 ---------------------------------------------------------------------
 Center     Atomic      Atomic             Coordinates (Angstroms)
 Number     Number       Type             X           Y           Z
 ---------------------------------------------------------------------
      1          6           0        1.800174   -0.100268    0.051481
      2          6           0        0.564683    0.394682   -0.129161
      3          6           0       -0.601887   -0.393344   -0.047626
      4          6           0       -1.806669    0.089826    0.030389
      5          1           0        2.690609    0.428882    0.198914
      6          1           0        1.999960   -1.143777    0.045086
      7          1           0        0.583200    1.522103    0.082077
      8          1           0       -0.327969   -1.441029   -0.016361
      9          1           0       -1.931672    1.178665    0.091773
     10          1           0       -2.751940   -0.490215    0.168008
 ---------------------------------------------------------------------

 SCF Done:  E(RB2PLYPD3) =  -155.682476108     A.U. after   11 cycles
 E2(B2PLYPD3) =    -0.2263096416D+00 E(B2PLYPD3) =    -0.15590878574992D+03

 The electronic state is 1-A.
 Alpha  occ. eigenvalues --  -10.62752 -10.62017 -10.61589 -10.61098  -0.94119
 Alpha  occ. eigenvalues --   -0.85206  -0.70816  -0.63848  -0.55434  -0.53760
 Alpha  occ. eigenvalues --   -0.47382  -0.43908  -0.40671  -0.38869  -0.27720
 Alpha virt. eigenvalues --    0.01585   0.07140   0.07271   0.07929   0.09529
 Alpha virt. eigenvalues --    0.11664   0.12674   0.14627   0.15402   0.16697
 Alpha virt. eigenvalues --    0.18784   0.19295   0.22720   0.23216   0.23604

 Mulliken charges:
               1
     1  C   -0.167394
     2  C   -0.014361
     3  C   -0.029936
     4  C   -0.158798
     5  H    0.079564
     6  H    0.047743
     7  H    0.046851
     8  H    0.052352
     9  H    0.062021
    10  H    0.081958
 Sum of Mulliken charges =   0.00000

 Dipole moment (field-independent basis, Debye):
    X=              0.1362    Y=             -0.0670    Z=              0.3948  Tot=              0.4230
 Quadrupole moment (field-independent basis, Debye-Ang):
   XX=            -23.0639   YY=            -23.6747   ZZ=            -29.0006
   XY=             -0.2225   XZ=              0.1502   YZ=              0.2559

 1\1\GINC-NODE01\SP\RB2PLYPD3-FC\def2QZVP\C4H6\BOITTIER\26-Aug-2020\0\\
 #p B2PLYPD3/Def2QZVP\\butadiene\\0,1\C,0,-3.807053,0.22095,0.080291\C,
 0,-2.686653,-0.503297,-0.075319\C,0,-1.393228,0.056585,-0.029466\C,0,-
 0.298861,-0.63837,0.072702\H,0,-4.779274,-0.125667,0.251325\H,0,-3.809
 189,1.281967,0.024576\H,0,-2.913074,-1.596494,0.188684\H,0,-1.467139,1
 .137256,-0.047852\H,0,-0.378221,-1.727393,0.185383\H,0,0.738852,-0.238
 784,0.18408\\Version=ES64L-G09RevD.01\State=1-A\HF=-155.6824761\MP2=-1
 55.9087857\RMSD=8.536e-09\PG=C01 [X(C4H6)]\\@

 Normal termination of Gaussian 09 at Wed Aug 26 15:28:13 2020.
