 Gaussian 09, Revision D.01,
 Gaussian 09:  ES64L-G09RevD.01 24-Apr-2013

 --------------------
 #p B2PLYPD3/Def2QZVP
 --------------------

 ---------
 butadiene
 ---------
 Symbolic Z-matrix:
 Charge =  0 Multiplicity = 1

                         Standard orientation:
 ---------------------------------------------------------------------
 Center     Atomic      Atomic             Coordinates (Angstroms)
 Number     Number       Type             X           Y           Z
 ---------------------------------------------------------------------
      1          6           0       -1.848123    0.110173    0.030185
      2          6           0       -0.624354   -0.397605   -0.029906
      3          6           0        0.600384    0.376840   -0.056936
      4          6           0        1.863079   -0.103256    0.026933
      5          1           0       -2.755621   -0.476278    0.120058
      6          1           0       -1.919486    1.199846    0.020267
      7          1           0       -0.532854   -1.484833   -0.095492
      8          1           0        0.487772    1.458305   -0.052331
      9          1           0        2.096592   -1.137606    0.045630
     10          1           0        2.677677    0.523652    0.140208
 ---------------------------------------------------------------------

 SCF Done:  E(RB2PLYPD3) =  -155.696869337     A.U. after   11 cycles
 E2(B2PLYPD3) =    -0.2257609579D+00 E(B2PLYPD3) =    -0.15592263029465D+03

 The electronic state is 1-A.
 Alpha  occ. eigenvalues --  -10.62918 -10.62495 -10.61611 -10.61116  -0.92931
 Alpha  occ. eigenvalues --   -0.85096  -0.70771  -0.63964  -0.55110  -0.54018
 Alpha  occ. eigenvalues --   -0.47128  -0.45517  -0.41219  -0.37953  -0.27641
 Alpha virt. eigenvalues --    0.01440   0.07018   0.07548   0.08035   0.09731
 Alpha virt. eigenvalues --    0.11573   0.12614   0.14666   0.15824   0.16326
 Alpha virt. eigenvalues --    0.18918   0.20483   0.21728   0.22562   0.23803

 Mulliken charges:
               1
     1  C   -0.171676
     2  C   -0.024553
     3  C   -0.035566
     4  C   -0.175370
     5  H    0.092301
     6  H    0.058549
     7  H    0.052270
     8  H    0.050998
     9  H    0.066302
    10  H    0.086747
 Sum of Mulliken charges =   0.00000

 Dipole moment (field-independent basis, Debye):
    X=             -0.0051    Y=             -0.0302    Z=              0.1106  Tot=              0.1148
 Quadrupole moment (field-independent basis, Debye-Ang):
   XX=            -23.1101   YY=            -23.3161   ZZ=            -29.2035
   XY=              0.0292   XZ=              0.1650   YZ=              0.0533

 1\1\GINC-NODE38\SP\RB2PLYPD3-FC\def2QZVP\C4H6\BOITTIER\26-Aug-2020\0\\
 #p B2PLYPD3/Def2QZVP\\butadiene\\0,1\C,0,-3.85016,0.222361,0.049949\C,
 0,-2.735594,-0.495136,0.005216\C,0,-1.393196,0.049615,-0.035937\C,0,-0
 .235261,-0.644196,0.062731\H,0,-4.846993,-0.192073,0.150558\H,0,-3.727
 632,1.306947,0.014771\H,0,-2.837955,-1.582627,-0.035086\H,0,-1.312702,
 1.133758,-0.056531\H,0,-0.1884,-1.702827,0.1059\H,0,0.677522,-0.168817
 ,0.164007\\Version=ES64L-G09RevD.01\State=1-A\HF=-155.6968693\MP2=-155
 .9226303\RMSD=6.842e-09\PG=C01 [X(C4H6)]\\@

 Normal termination of Gaussian 09 at Wed Aug 26 09:30:57 2020.
