 Gaussian 09, Revision D.01,
 Gaussian 09:  ES64L-G09RevD.01 24-Apr-2013

 --------------------
 #p B2PLYPD3/Def2QZVP
 --------------------

 ---------
 butadiene
 ---------
 Symbolic Z-matrix:
 Charge =  0 Multiplicity = 1

                         Standard orientation:
 ---------------------------------------------------------------------
 Center     Atomic      Atomic             Coordinates (Angstroms)
 Number     Number       Type             X           Y           Z
 ---------------------------------------------------------------------
      1          6           0        1.862652   -0.100690    0.027123
      2          6           0        0.602184    0.375310   -0.035926
      3          6           0       -0.625188   -0.415204   -0.007245
      4          6           0       -1.847774    0.116530    0.016596
      5          1           0        2.680417    0.558132   -0.048032
      6          1           0        2.070086   -1.167360    0.051695
      7          1           0        0.463775    1.452736   -0.015072
      8          1           0       -0.504717   -1.451209   -0.021502
      9          1           0       -1.881106    1.233520    0.093142
     10          1           0       -2.779699   -0.481495   -0.063521
 ---------------------------------------------------------------------

 SCF Done:  E(RB2PLYPD3) =  -155.695607559     A.U. after   11 cycles
 E2(B2PLYPD3) =    -0.2261177619D+00 E(B2PLYPD3) =    -0.15592172532053D+03

 The electronic state is 1-A.
 Alpha  occ. eigenvalues --  -10.62775 -10.62333 -10.62100 -10.61486  -0.92865
 Alpha  occ. eigenvalues --   -0.84850  -0.70057  -0.64326  -0.54577  -0.53738
 Alpha  occ. eigenvalues --   -0.46851  -0.45424  -0.41302  -0.37860  -0.27680
 Alpha virt. eigenvalues --    0.01502   0.06956   0.07488   0.08073   0.09585
 Alpha virt. eigenvalues --    0.11651   0.12431   0.14540   0.15824   0.16028
 Alpha virt. eigenvalues --    0.18826   0.20365   0.21375   0.22515   0.24145

 Mulliken charges:
               1
     1  C   -0.180071
     2  C   -0.031597
     3  C   -0.032567
     4  C   -0.170257
     5  H    0.089105
     6  H    0.065593
     7  H    0.049785
     8  H    0.059845
     9  H    0.058894
    10  H    0.091270
 Sum of Mulliken charges =   0.00000

 Dipole moment (field-independent basis, Debye):
    X=             -0.0158    Y=             -0.0589    Z=             -0.0376  Tot=              0.0716
 Quadrupole moment (field-independent basis, Debye-Ang):
   XX=            -23.4292   YY=            -23.2031   ZZ=            -29.3197
   XY=              0.1167   XZ=              0.0233   YZ=              0.0822

 1\1\GINC-NODE33\SP\RB2PLYPD3-FC\def2QZVP\C4H6\BOITTIER\26-Aug-2020\0\\
 #p B2PLYPD3/Def2QZVP\\butadiene\\0,1\C,0,-3.869102,0.211762,0.044817\C
 ,0,-2.712846,-0.481432,0.001399\C,0,-1.36502,0.080298,0.003077\C,0,-0.
 255473,-0.657855,0.048474\H,0,-4.79073,-0.294503,-0.007457\H,0,-3.8847
 51,1.298476,0.02985\H,0,-2.766815,-1.564875,0.062041\H,0,-1.300679,1.1
 20071,-0.049421\H,0,-0.419585,-1.759618,0.166048\H,0,0.767028,-0.23721
 9,-0.051996\\Version=ES64L-G09RevD.01\State=1-A\HF=-155.6956076\MP2=-1
 55.9217253\RMSD=6.690e-09\PG=C01 [X(C4H6)]\\@

 Normal termination of Gaussian 09 at Wed Aug 26 11:07:43 2020.
