 Gaussian 09, Revision D.01,
 Gaussian 09:  ES64L-G09RevD.01 24-Apr-2013

 --------------------
 #p B2PLYPD3/Def2QZVP
 --------------------

 ---------
 butadiene
 ---------
 Symbolic Z-matrix:
 Charge =  0 Multiplicity = 1

                         Standard orientation:
 ---------------------------------------------------------------------
 Center     Atomic      Atomic             Coordinates (Angstroms)
 Number     Number       Type             X           Y           Z
 ---------------------------------------------------------------------
      1          6           0        1.841208   -0.116538   -0.024990
      2          6           0        0.606287    0.410890    0.017314
      3          6           0       -0.606249   -0.385168    0.021879
      4          6           0       -1.850861    0.096529   -0.024166
      5          1           0        2.688547    0.516132    0.011110
      6          1           0        2.048096   -1.175971   -0.059526
      7          1           0        0.473017    1.474369    0.055316
      8          1           0       -0.438513   -1.459185    0.107635
      9          1           0       -2.015002    1.162197   -0.015197
     10          1           0       -2.698457   -0.551819   -0.039561
 ---------------------------------------------------------------------

 SCF Done:  E(RB2PLYPD3) =  -155.700371403     A.U. after   11 cycles
 E2(B2PLYPD3) =    -0.2255899223D+00 E(B2PLYPD3) =    -0.15592596132536D+03

 The electronic state is 1-A.
 Alpha  occ. eigenvalues --  -10.62533 -10.62420 -10.61433 -10.61314  -0.92949
 Alpha  occ. eigenvalues --   -0.84925  -0.70636  -0.64155  -0.54851  -0.53962
 Alpha  occ. eigenvalues --   -0.47014  -0.45895  -0.41214  -0.37933  -0.27606
 Alpha virt. eigenvalues --    0.01572   0.07035   0.07460   0.08139   0.09655
 Alpha virt. eigenvalues --    0.11680   0.12435   0.14849   0.15800   0.16171
 Alpha virt. eigenvalues --    0.18843   0.20474   0.21748   0.22819   0.23754

 Mulliken charges:
               1
     1  C   -0.175898
     2  C   -0.035723
     3  C   -0.024798
     4  C   -0.181118
     5  H    0.084650
     6  H    0.068352
     7  H    0.056614
     8  H    0.052458
     9  H    0.065377
    10  H    0.090087
 Sum of Mulliken charges =   0.00000

 Dipole moment (field-independent basis, Debye):
    X=              0.0404    Y=              0.0028    Z=              0.0779  Tot=              0.0878
 Quadrupole moment (field-independent basis, Debye-Ang):
   XX=            -23.3878   YY=            -23.1114   ZZ=            -29.2339
   XY=             -0.2440   XZ=              0.0400   YZ=              0.0368

 1\1\GINC-NODE21\SP\RB2PLYPD3-FC\def2QZVP\C4H6\BOITTIER\26-Aug-2020\0\\
 #p B2PLYPD3/Def2QZVP\\butadiene\\0,1\C,0,-3.842093,0.235466,-0.005212\
 C,0,-2.724002,-0.506956,0.055467\C,0,-1.386542,0.05415,0.037216\C,0,-0
 .25094,-0.64783,0.008182\H,0,-4.790507,-0.230482,0.049189\H,0,-3.85230
 2,1.313284,-0.073024\H,0,-2.786898,-1.575205,0.12675\H,0,-1.355103,1.1
 42867,0.089248\H,0,-0.284002,-1.724761,0.050564\H,0,0.700674,-0.165882
 ,-0.026011\\Version=ES64L-G09RevD.01\State=1-A\HF=-155.7003714\MP2=-15
 5.9259613\RMSD=5.340e-09\PG=C01 [X(C4H6)]\\@

 Normal termination of Gaussian 09 at Wed Aug 26 21:35:47 2020.
