 Gaussian 09, Revision D.01,
 Gaussian 09:  ES64L-G09RevD.01 24-Apr-2013

 --------------------
 #p B2PLYPD3/Def2QZVP
 --------------------

 ---------
 butadiene
 ---------
 Symbolic Z-matrix:
 Charge =  0 Multiplicity = 1

                         Standard orientation:
 ---------------------------------------------------------------------
 Center     Atomic      Atomic             Coordinates (Angstroms)
 Number     Number       Type             X           Y           Z
 ---------------------------------------------------------------------
      1          6           0       -1.830813   -0.121321    0.016894
      2          6           0       -0.602771    0.417202   -0.030010
      3          6           0        0.605454   -0.396682   -0.004320
      4          6           0        1.835716    0.109548   -0.000260
      5          1           0       -2.711013    0.487371    0.057103
      6          1           0       -1.974704   -1.183997   -0.005478
      7          1           0       -0.496714    1.477076   -0.006884
      8          1           0        0.478078   -1.469660   -0.040962
      9          1           0        1.952646    1.185049    0.028329
     10          1           0        2.706189   -0.548320    0.074068
 ---------------------------------------------------------------------

 SCF Done:  E(RB2PLYPD3) =  -155.700391926     A.U. after   11 cycles
 E2(B2PLYPD3) =    -0.2255925512D+00 E(B2PLYPD3) =    -0.15592598447710D+03

 The electronic state is 1-A.
 Alpha  occ. eigenvalues --  -10.62431 -10.62300 -10.61429 -10.61350  -0.93038
 Alpha  occ. eigenvalues --   -0.84942  -0.69949  -0.64437  -0.54424  -0.54211
 Alpha  occ. eigenvalues --   -0.46476  -0.45751  -0.41510  -0.38066  -0.27634
 Alpha virt. eigenvalues --    0.01836   0.07029   0.07466   0.08081   0.09469
 Alpha virt. eigenvalues --    0.11742   0.12481   0.14678   0.15762   0.16240
 Alpha virt. eigenvalues --    0.18710   0.20272   0.21698   0.23043   0.24051

 Mulliken charges:
               1
     1  C   -0.175933
     2  C   -0.036765
     3  C   -0.025830
     4  C   -0.178143
     5  H    0.084024
     6  H    0.066758
     7  H    0.058803
     8  H    0.055201
     9  H    0.065427
    10  H    0.086458
 Sum of Mulliken charges =   0.00000

 Dipole moment (field-independent basis, Debye):
    X=             -0.0507    Y=             -0.0069    Z=              0.0756  Tot=              0.0913
 Quadrupole moment (field-independent basis, Debye-Ang):
   XX=            -23.6684   YY=            -22.9836   ZZ=            -29.2470
   XY=              0.0023   XZ=              0.0861   YZ=              0.0810

 1\1\GINC-NODE16\SP\RB2PLYPD3-FC\def2QZVP\C4H6\BOITTIER\26-Aug-2020\0\\
 #p B2PLYPD3/Def2QZVP\\butadiene\\0,1\C,0,-3.832812,0.230786,0.001473\C
 ,0,-2.720109,-0.516544,0.062182\C,0,-1.386384,0.068367,0.018248\C,0,-0
 .26592,-0.648786,0.027245\H,0,-4.807447,-0.212225,-0.025055\H,0,-3.785
 141,1.302328,-0.001472\H,0,-2.804514,-1.578611,0.064274\H,0,-1.320579,
 1.147439,0.02934\H,0,-0.342426,-1.728291,0.024254\H,0,0.707511,-0.1583
 56,-0.061907\\Version=ES64L-G09RevD.01\State=1-A\HF=-155.7003919\MP2=-
 155.9259845\RMSD=5.408e-09\PG=C01 [X(C4H6)]\\@

 Normal termination of Gaussian 09 at Wed Aug 26 21:36:10 2020.
