 Gaussian 09, Revision D.01,
 Gaussian 09:  ES64L-G09RevD.01 24-Apr-2013

 --------------------
 #p B2PLYPD3/Def2QZVP
 --------------------

 ---------
 butadiene
 ---------
 Symbolic Z-matrix:
 Charge =  0 Multiplicity = 1

                         Standard orientation:
 ---------------------------------------------------------------------
 Center     Atomic      Atomic             Coordinates (Angstroms)
 Number     Number       Type             X           Y           Z
 ---------------------------------------------------------------------
      1          6           0       -1.841123    0.113775    0.000840
      2          6           0       -0.621158   -0.402982   -0.017960
      3          6           0        0.608100    0.397190   -0.013435
      4          6           0        1.845495   -0.117039    0.014547
      5          1           0       -2.713665   -0.503060    0.113237
      6          1           0       -1.947464    1.195770   -0.005891
      7          1           0       -0.512794   -1.473352   -0.031828
      8          1           0        0.498163    1.472157   -0.020613
      9          1           0        2.027861   -1.185437   -0.013348
     10          1           0        2.700014    0.548261    0.054488
 ---------------------------------------------------------------------

 SCF Done:  E(RB2PLYPD3) =  -155.700698546     A.U. after   11 cycles
 E2(B2PLYPD3) =    -0.2254952829D+00 E(B2PLYPD3) =    -0.15592619382899D+03

 The electronic state is 1-A.
 Alpha  occ. eigenvalues --  -10.62640 -10.62313 -10.61605 -10.61294  -0.92863
 Alpha  occ. eigenvalues --   -0.85088  -0.69876  -0.64148  -0.54557  -0.54043
 Alpha  occ. eigenvalues --   -0.46639  -0.45675  -0.41254  -0.37943  -0.27811
 Alpha virt. eigenvalues --    0.01877   0.07003   0.07464   0.08057   0.09572
 Alpha virt. eigenvalues --    0.11708   0.12403   0.14645   0.15886   0.16092
 Alpha virt. eigenvalues --    0.18803   0.20475   0.21404   0.22865   0.24042

 Mulliken charges:
               1
     1  C   -0.173503
     2  C   -0.028845
     3  C   -0.035579
     4  C   -0.177882
     5  H    0.088468
     6  H    0.062619
     7  H    0.055459
     8  H    0.054829
     9  H    0.069346
    10  H    0.085088
 Sum of Mulliken charges =   0.00000

 Dipole moment (field-independent basis, Debye):
    X=             -0.0047    Y=             -0.0167    Z=              0.0670  Tot=              0.0692
 Quadrupole moment (field-independent basis, Debye-Ang):
   XX=            -23.5916   YY=            -23.0267   ZZ=            -29.2533
   XY=              0.0193   XZ=             -0.2064   YZ=             -0.0144

 1\1\GINC-NODE04\SP\RB2PLYPD3-FC\def2QZVP\C4H6\BOITTIER\26-Aug-2020\0\\
 #p B2PLYPD3/Def2QZVP\\butadiene\\0,1\C,0,-3.843371,0.221705,0.023715\C
 ,0,-2.733381,-0.501909,0.020164\C,0,-1.382572,0.069358,0.001735\C,0,-0
 .254751,-0.653496,0.044877\H,0,-4.810217,-0.228564,0.153773\H,0,-3.757
 838,1.304893,-0.014416\H,0,-2.814979,-1.574603,0.037368\H,0,-1.301817,
 1.146251,-0.03664\H,0,-0.263223,-1.737668,0.048018\H,0,0.703621,-0.148
 013,0.065683\\Version=ES64L-G09RevD.01\State=1-A\HF=-155.7006985\MP2=-
 155.9261938\RMSD=4.790e-09\PG=C01 [X(C4H6)]\\@

 Normal termination of Gaussian 09 at Wed Aug 26 10:48:28 2020.
