 Gaussian 09, Revision D.01,
 Gaussian 09:  ES64L-G09RevD.01 24-Apr-2013

 --------------------
 #p B2PLYPD3/Def2QZVP
 --------------------

 ---------
 butadiene
 ---------
 Symbolic Z-matrix:
 Charge =  0 Multiplicity = 1

                         Standard orientation:
 ---------------------------------------------------------------------
 Center     Atomic      Atomic             Coordinates (Angstroms)
 Number     Number       Type             X           Y           Z
 ---------------------------------------------------------------------
      1          6           0       -1.802684   -0.125285    0.012622
      2          6           0       -0.604416    0.459404   -0.066539
      3          6           0        0.556715   -0.397853   -0.059623
      4          6           0        1.828459    0.096465    0.059193
      5          1           0       -2.626376    0.455495    0.338710
      6          1           0       -1.859188   -1.255091    0.108041
      7          1           0       -0.467135    1.545975   -0.194802
      8          1           0        0.358162   -1.387460   -0.141090
      9          1           0        2.144626    1.108943    0.138727
     10          1           0        2.581464   -0.664244    0.076488
 ---------------------------------------------------------------------

 SCF Done:  E(RB2PLYPD3) =  -155.682809392     A.U. after   11 cycles
 E2(B2PLYPD3) =    -0.2269417566D+00 E(B2PLYPD3) =    -0.15590975114856D+03

 The electronic state is 1-A.
 Alpha  occ. eigenvalues --  -10.62592 -10.62102 -10.61634 -10.61463  -0.93355
 Alpha  occ. eigenvalues --   -0.84370  -0.70324  -0.64885  -0.54624  -0.53531
 Alpha  occ. eigenvalues --   -0.46995  -0.45635  -0.41743  -0.37643  -0.27041
 Alpha virt. eigenvalues --    0.01382   0.07043   0.07317   0.08122   0.08927
 Alpha virt. eigenvalues --    0.11753   0.12521   0.14921   0.15444   0.16111
 Alpha virt. eigenvalues --    0.18515   0.19988   0.21593   0.23337   0.23747

 Mulliken charges:
               1
     1  C   -0.166208
     2  C   -0.029671
     3  C   -0.044914
     4  C   -0.188113
     5  H    0.080592
     6  H    0.050723
     7  H    0.069119
     8  H    0.073756
     9  H    0.080186
    10  H    0.074530
 Sum of Mulliken charges =   0.00000

 Dipole moment (field-independent basis, Debye):
    X=              0.0321    Y=              0.0652    Z=              0.2185  Tot=              0.2302
 Quadrupole moment (field-independent basis, Debye-Ang):
   XX=            -24.6330   YY=            -22.7222   ZZ=            -29.1288
   XY=              0.4016   XZ=             -0.6525   YZ=              0.1197

 1\1\GINC-NODE11\SP\RB2PLYPD3-FC\def2QZVP\C4H6\BOITTIER\26-Aug-2020\0\\
 #p B2PLYPD3/Def2QZVP\\butadiene\\0,1\C,0,-3.794345,0.254116,-0.009593\
 C,0,-2.729717,-0.545007,0.099702\C,0,-1.426236,0.073882,0.066913\C,0,-
 0.272464,-0.658393,-0.024653\H,0,-4.714196,-0.171074,-0.318131\H,0,-3.
 634131,1.369303,-0.149046\H,0,-2.802344,-1.631921,0.27081\H,0,-1.43202
 ,1.085613,0.108743\H,0,-0.155598,-1.714933,-0.062924\H,0,0.611952,-0.0
 56697,-0.066647\\Version=ES64L-G09RevD.01\State=1-A\HF=-155.6828094\MP
 2=-155.9097511\RMSD=8.178e-09\PG=C01 [X(C4H6)]\\@

 Normal termination of Gaussian 09 at Wed Aug 26 15:39:31 2020.
