 Gaussian 09, Revision D.01,
 Gaussian 09:  ES64L-G09RevD.01 24-Apr-2013

 --------------------
 #p B2PLYPD3/Def2QZVP
 --------------------

 ---------
 butadiene
 ---------
 Symbolic Z-matrix:
 Charge =  0 Multiplicity = 1

                         Standard orientation:
 ---------------------------------------------------------------------
 Center     Atomic      Atomic             Coordinates (Angstroms)
 Number     Number       Type             X           Y           Z
 ---------------------------------------------------------------------
      1          6           0        1.795970   -0.112986    0.069505
      2          6           0        0.570966    0.420334   -0.052246
      3          6           0       -0.577114   -0.368030   -0.037088
      4          6           0       -1.840075    0.075070    0.026742
      5          1           0        2.710023    0.481025   -0.119206
      6          1           0        1.960811   -1.183980    0.112543
      7          1           0        0.510182    1.464702   -0.170139
      8          1           0       -0.283005   -1.416782   -0.021115
      9          1           0       -2.017485    1.190384    0.326740
     10          1           0       -2.579010   -0.621673   -0.170304
 ---------------------------------------------------------------------

 SCF Done:  E(RB2PLYPD3) =  -155.680419481     A.U. after   11 cycles
 E2(B2PLYPD3) =    -0.2269964266D+00 E(B2PLYPD3) =    -0.15590741590747D+03

 The electronic state is 1-A.
 Alpha  occ. eigenvalues --  -10.62018 -10.61898 -10.61849 -10.61587  -0.94118
 Alpha  occ. eigenvalues --   -0.84655  -0.70745  -0.64339  -0.55023  -0.53082
 Alpha  occ. eigenvalues --   -0.46921  -0.45124  -0.41813  -0.38178  -0.27033
 Alpha virt. eigenvalues --    0.00832   0.07065   0.07275   0.08047   0.09650
 Alpha virt. eigenvalues --    0.11861   0.12210   0.14818   0.15506   0.16153
 Alpha virt. eigenvalues --    0.18813   0.20062   0.20911   0.22824   0.24107

 Mulliken charges:
               1
     1  C   -0.170979
     2  C   -0.022029
     3  C   -0.025553
     4  C   -0.196654
     5  H    0.074380
     6  H    0.057123
     7  H    0.060286
     8  H    0.051164
     9  H    0.075833
    10  H    0.096429
 Sum of Mulliken charges =   0.00000

 Dipole moment (field-independent basis, Debye):
    X=              0.1164    Y=             -0.0311    Z=             -0.1077  Tot=              0.1616
 Quadrupole moment (field-independent basis, Debye-Ang):
   XX=            -24.0908   YY=            -23.2360   ZZ=            -29.0338
   XY=             -0.2055   XZ=             -0.3892   YZ=              0.1850

 1\1\GINC-NODE07\SP\RB2PLYPD3-FC\def2QZVP\C4H6\BOITTIER\26-Aug-2020\0\\
 #p B2PLYPD3/Def2QZVP\\butadiene\\0,1\C,0,-3.797911,0.246267,0.076713\C
 ,0,-2.698751,-0.517118,-0.018039\C,0,-1.420229,0.03532,-0.023618\C,0,-
 0.26633,-0.64018,0.064115\H,0,-4.809428,-0.166966,-0.096573\H,0,-3.753
 194,1.329798,0.080453\H,0,-2.840483,-1.557206,-0.098206\H,0,-1.506658,
 1.120963,-0.046964\H,0,-0.307067,-1.757159,0.404847\H,0,0.592941,-0.10
 6455,-0.152896\\Version=ES64L-G09RevD.01\State=1-A\HF=-155.6804195\MP2
 =-155.9074159\RMSD=9.325e-09\PG=C01 [X(C4H6)]\\@

 Normal termination of Gaussian 09 at Wed Aug 26 11:39:45 2020.
