 Gaussian 09, Revision D.01,
 Gaussian 09:  ES64L-G09RevD.01 24-Apr-2013

 --------------------
 #p B2PLYPD3/Def2QZVP
 --------------------

 ---------
 butadiene
 ---------
 Symbolic Z-matrix:
 Charge =  0 Multiplicity = 1

                         Standard orientation:
 ---------------------------------------------------------------------
 Center     Atomic      Atomic             Coordinates (Angstroms)
 Number     Number       Type             X           Y           Z
 ---------------------------------------------------------------------
      1          6           0        1.839463    0.100386    0.005809
      2          6           0        0.605059   -0.386102   -0.034994
      3          6           0       -0.602373    0.403748   -0.011213
      4          6           0       -1.842547   -0.105891    0.016316
      5          1           0        2.684100   -0.575296    0.107276
      6          1           0        2.083281    1.159301    0.028921
      7          1           0        0.456959   -1.436553   -0.004553
      8          1           0       -0.467380    1.486488   -0.044924
      9          1           0       -2.010020   -1.194331   -0.007863
     10          1           0       -2.744547    0.487544    0.065633
 ---------------------------------------------------------------------

 SCF Done:  E(RB2PLYPD3) =  -155.699776598     A.U. after   11 cycles
 E2(B2PLYPD3) =    -0.2257029971D+00 E(B2PLYPD3) =    -0.15592547959511D+03

 The electronic state is 1-A.
 Alpha  occ. eigenvalues --  -10.62629 -10.62122 -10.61863 -10.61542  -0.93151
 Alpha  occ. eigenvalues --   -0.84863  -0.70383  -0.64185  -0.54824  -0.53738
 Alpha  occ. eigenvalues --   -0.47062  -0.45298  -0.40967  -0.38245  -0.27676
 Alpha virt. eigenvalues --    0.01595   0.06978   0.07434   0.08091   0.09714
 Alpha virt. eigenvalues --    0.11616   0.12435   0.14758   0.15811   0.16210
 Alpha virt. eigenvalues --    0.18872   0.20510   0.21721   0.22660   0.23654

 Mulliken charges:
               1
     1  C   -0.172491
     2  C   -0.028699
     3  C   -0.031683
     4  C   -0.173373
     5  H    0.080795
     6  H    0.067052
     7  H    0.058511
     8  H    0.053966
     9  H    0.059222
    10  H    0.086700
 Sum of Mulliken charges =   0.00000

 Dipole moment (field-independent basis, Debye):
    X=             -0.0054    Y=             -0.0004    Z=              0.0987  Tot=              0.0989
 Quadrupole moment (field-independent basis, Debye-Ang):
   XX=            -23.3169   YY=            -23.2149   ZZ=            -29.2367
   XY=              0.2661   XZ=              0.2341   YZ=             -0.0511

 1\1\GINC-NODE25\SP\RB2PLYPD3-FC\def2QZVP\C4H6\BOITTIER\26-Aug-2020\0\\
 #p B2PLYPD3/Def2QZVP\\butadiene\\0,1\C,0,-3.84236,0.21906,0.007178\C,0
 ,-2.717851,-0.484009,0.064306\C,0,-1.386242,0.070649,0.02566\C,0,-0.26
 0361,-0.657911,0.015061\H,0,-4.796516,-0.292887,-0.080852\H,0,-3.88821
 ,1.303818,-0.042624\H,0,-2.7646,-1.544246,0.060017\H,0,-1.320694,1.160
 301,0.032478\H,0,-0.29497,-1.757685,0.066373\H,0,0.734996,-0.24101,-0.
 045434\\Version=ES64L-G09RevD.01\State=1-A\HF=-155.6997766\MP2=-155.92
 54796\RMSD=3.378e-09\PG=C01 [X(C4H6)]\\@

 Normal termination of Gaussian 09 at Wed Aug 26 09:26:06 2020.
