 Gaussian 09, Revision D.01,
 Gaussian 09:  ES64L-G09RevD.01 24-Apr-2013

 --------------------
 #p B2PLYPD3/Def2QZVP
 --------------------

 ---------
 butadiene
 ---------
 Symbolic Z-matrix:
 Charge =  0 Multiplicity = 1

                         Standard orientation:
 ---------------------------------------------------------------------
 Center     Atomic      Atomic             Coordinates (Angstroms)
 Number     Number       Type             X           Y           Z
 ---------------------------------------------------------------------
      1          6           0        1.845511    0.099846   -0.034060
      2          6           0        0.612466   -0.367729    0.005274
      3          6           0       -0.611987    0.414350    0.032788
      4          6           0       -1.817611   -0.138070   -0.013158
      5          1           0        2.672855   -0.569752    0.014689
      6          1           0        2.041148    1.146747   -0.071904
      7          1           0        0.451935   -1.430200    0.204923
      8          1           0       -0.613563    1.484679    0.100788
      9          1           0       -2.002402   -1.189511   -0.160356
     10          1           0       -2.720251    0.507658   -0.033197
 ---------------------------------------------------------------------

 SCF Done:  E(RB2PLYPD3) =  -155.697357074     A.U. after   11 cycles
 E2(B2PLYPD3) =    -0.2251520225D+00 E(B2PLYPD3) =    -0.15592250909693D+03

 The electronic state is 1-A.
 Alpha  occ. eigenvalues --  -10.62310 -10.62201 -10.61538 -10.60883  -0.93202
 Alpha  occ. eigenvalues --   -0.85391  -0.70033  -0.64127  -0.54678  -0.54347
 Alpha  occ. eigenvalues --   -0.46699  -0.45486  -0.41081  -0.37981  -0.27996
 Alpha virt. eigenvalues --    0.01970   0.07062   0.07558   0.07905   0.09614
 Alpha virt. eigenvalues --    0.11675   0.12394   0.14834   0.15481   0.16394
 Alpha virt. eigenvalues --    0.18817   0.20078   0.21575   0.22699   0.23988

 Mulliken charges:
               1
     1  C   -0.181138
     2  C   -0.030899
     3  C   -0.035438
     4  C   -0.168107
     5  H    0.087262
     6  H    0.070286
     7  H    0.059216
     8  H    0.058052
     9  H    0.067114
    10  H    0.073652
 Sum of Mulliken charges =   0.00000

 Dipole moment (field-independent basis, Debye):
    X=             -0.0266    Y=              0.0319    Z=              0.0600  Tot=              0.0730
 Quadrupole moment (field-independent basis, Debye-Ang):
   XX=            -23.5292   YY=            -23.1267   ZZ=            -29.0755
   XY=              0.0745   XZ=              0.3866   YZ=             -0.0535

 1\1\GINC-NODE04\SP\RB2PLYPD3-FC\def2QZVP\C4H6\BOITTIER\26-Aug-2020\0\\
 #p B2PLYPD3/Def2QZVP\\butadiene\\0,1\C,0,-3.848547,0.206935,0.045907\C
 ,0,-2.71673,-0.470649,0.024901\C,0,-1.374026,0.083379,-0.018545\C,0,-0
 .284061,-0.670524,0.047897\H,0,-4.780596,-0.308196,0.011814\H,0,-3.857
 379,1.272562,0.054196\H,0,-2.745258,-1.549928,-0.144862\H,0,-1.184637,
 1.134522,-0.115819\H,0,-0.286628,-1.733582,0.224654\H,0,0.717913,-0.19
 2891,0.054281\\Version=ES64L-G09RevD.01\State=1-A\HF=-155.6973571\MP2=
 -155.9225091\RMSD=4.820e-09\PG=C01 [X(C4H6)]\\@

 Normal termination of Gaussian 09 at Wed Aug 26 09:16:06 2020.
