 Gaussian 09, Revision D.01,
 Gaussian 09:  ES64L-G09RevD.01 24-Apr-2013

 --------------------
 #p B2PLYPD3/Def2QZVP
 --------------------

 ---------
 butadiene
 ---------
 Symbolic Z-matrix:
 Charge =  0 Multiplicity = 1

                         Standard orientation:
 ---------------------------------------------------------------------
 Center     Atomic      Atomic             Coordinates (Angstroms)
 Number     Number       Type             X           Y           Z
 ---------------------------------------------------------------------
      1          6           0        1.841054    0.099414    0.011758
      2          6           0        0.592466   -0.395887   -0.023029
      3          6           0       -0.601380    0.410154   -0.015451
      4          6           0       -1.831043   -0.118525    0.008129
      5          1           0        2.718537   -0.540007    0.048436
      6          1           0        2.001667    1.165668    0.036620
      7          1           0        0.399896   -1.446661   -0.026538
      8          1           0       -0.465655    1.502969   -0.041139
      9          1           0       -1.964448   -1.175396    0.035459
     10          1           0       -2.696580    0.522489    0.058714
 ---------------------------------------------------------------------

 SCF Done:  E(RB2PLYPD3) =  -155.700293787     A.U. after   11 cycles
 E2(B2PLYPD3) =    -0.2259199341D+00 E(B2PLYPD3) =    -0.15592621372117D+03

 The electronic state is 1-A.
 Alpha  occ. eigenvalues --  -10.62547 -10.62332 -10.61656 -10.61361  -0.93181
 Alpha  occ. eigenvalues --   -0.84731  -0.70398  -0.64257  -0.54557  -0.53987
 Alpha  occ. eigenvalues --   -0.46574  -0.45958  -0.41351  -0.38193  -0.27465
 Alpha virt. eigenvalues --    0.01557   0.07021   0.07400   0.08109   0.09586
 Alpha virt. eigenvalues --    0.11746   0.12466   0.14795   0.15858   0.16034
 Alpha virt. eigenvalues --    0.18706   0.20569   0.21612   0.23100   0.23749

 Mulliken charges:
               1
     1  C   -0.178957
     2  C   -0.030693
     3  C   -0.021474
     4  C   -0.182245
     5  H    0.086916
     6  H    0.066551
     7  H    0.054783
     8  H    0.050413
     9  H    0.067536
    10  H    0.087169
 Sum of Mulliken charges =   0.00000

 Dipole moment (field-independent basis, Debye):
    X=             -0.0250    Y=             -0.0060    Z=              0.0797  Tot=              0.0837
 Quadrupole moment (field-independent basis, Debye-Ang):
   XX=            -23.5796   YY=            -23.0827   ZZ=            -29.2739
   XY=              0.1926   XZ=             -0.0140   YZ=             -0.0146

 1\1\GINC-NODE26\SP\RB2PLYPD3-FC\def2QZVP\C4H6\BOITTIER\26-Aug-2020\0\\
 #p B2PLYPD3/Def2QZVP\\butadiene\\0,1\C,0,-3.843706,0.220134,0.005112\C
 ,0,-2.706846,-0.49437,0.055494\C,0,-1.385599,0.078858,0.028217\C,0,-0.
 273645,-0.666551,0.021123\H,0,-4.823569,-0.248494,-0.0158\H,0,-3.80639
 9,1.296705,-0.048876\H,0,-2.70997,-1.562157,0.087775\H,0,-1.318797,1.1
 78334,0.024085\H,0,-0.336149,-1.730324,0.022637\H,0,0.694485,-0.19652,
 -0.04526\\Version=ES64L-G09RevD.01\State=1-A\HF=-155.7002938\MP2=-155.
 9262137\RMSD=2.524e-09\PG=C01 [X(C4H6)]\\@

 Normal termination of Gaussian 09 at Wed Aug 26 19:51:49 2020.
