 Gaussian 09, Revision D.01,
 Gaussian 09:  ES64L-G09RevD.01 24-Apr-2013

 --------------------
 #p B2PLYPD3/Def2QZVP
 --------------------

 ---------
 butadiene
 ---------
 Symbolic Z-matrix:
 Charge =  0 Multiplicity = 1

                         Standard orientation:
 ---------------------------------------------------------------------
 Center     Atomic      Atomic             Coordinates (Angstroms)
 Number     Number       Type             X           Y           Z
 ---------------------------------------------------------------------
      1          6           0       -1.856577   -0.128172    0.018077
      2          6           0       -0.609282    0.414570   -0.028346
      3          6           0        0.618619   -0.340503   -0.096673
      4          6           0        1.868310    0.092129    0.040116
      5          1           0       -2.850489    0.452793    0.036037
      6          1           0       -1.899706   -1.226073    0.296989
      7          1           0       -0.487515    1.530083   -0.162917
      8          1           0        0.377147   -1.366563   -0.058626
      9          1           0        2.171989    1.117600    0.320865
     10          1           0        2.562157   -0.735983   -0.031394
 ---------------------------------------------------------------------

 SCF Done:  E(RB2PLYPD3) =  -155.679183966     A.U. after   11 cycles
 E2(B2PLYPD3) =    -0.2278755555D+00 E(B2PLYPD3) =    -0.15590705952135D+03

 The electronic state is 1-A.
 Alpha  occ. eigenvalues --  -10.63392 -10.63245 -10.62169 -10.62009  -0.93027
 Alpha  occ. eigenvalues --   -0.84567  -0.70122  -0.63335  -0.53849  -0.53418
 Alpha  occ. eigenvalues --   -0.46796  -0.45158  -0.40196  -0.37863  -0.27591
 Alpha virt. eigenvalues --    0.00870   0.06872   0.07280   0.07814   0.09467
 Alpha virt. eigenvalues --    0.11470   0.12040   0.14816   0.15435   0.16253
 Alpha virt. eigenvalues --    0.18713   0.19355   0.21236   0.22135   0.23624

 Mulliken charges:
               1
     1  C   -0.174278
     2  C   -0.031330
     3  C   -0.030569
     4  C   -0.173400
     5  H    0.086844
     6  H    0.053672
     7  H    0.048949
     8  H    0.054302
     9  H    0.083468
    10  H    0.082342
 Sum of Mulliken charges =   0.00000

 Dipole moment (field-independent basis, Debye):
    X=              0.0214    Y=              0.0042    Z=              0.3142  Tot=              0.3150
 Quadrupole moment (field-independent basis, Debye-Ang):
   XX=            -23.7528   YY=            -23.4660   ZZ=            -29.2796
   XY=              0.1306   XZ=              0.1263   YZ=             -0.0706

 1\1\GINC-NODE34\SP\RB2PLYPD3-FC\def2QZVP\C4H6\BOITTIER\26-Aug-2020\0\\
 #p B2PLYPD3/Def2QZVP\\butadiene\\0,1\C,0,-3.857136,0.248297,-0.008912\
 C,0,-2.727778,-0.507471,0.06746\C,0,-1.383338,0.016115,0.097217\C,0,-0
 .233318,-0.641479,-0.015174\H,0,-4.939615,-0.143885,0.002702\H,0,-3.70
 3978,1.319911,-0.345403\H,0,-2.807981,-1.618094,0.260827\H,0,-1.436187
 ,1.065508,0.004826\H,0,-0.121866,-1.718126,-0.241097\H,0,0.599032,0.05
 0395,0.013317\\Version=ES64L-G09RevD.01\State=1-A\HF=-155.679184\MP2=-
 155.9070595\RMSD=8.957e-09\PG=C01 [X(C4H6)]\\@

 Normal termination of Gaussian 09 at Wed Aug 26 14:32:43 2020.
