 Gaussian 09, Revision D.01,
 Gaussian 09:  ES64L-G09RevD.01 24-Apr-2013

 --------------------
 #p B2PLYPD3/Def2QZVP
 --------------------

 ---------
 butadiene
 ---------
 Symbolic Z-matrix:
 Charge =  0 Multiplicity = 1

                         Standard orientation:
 ---------------------------------------------------------------------
 Center     Atomic      Atomic             Coordinates (Angstroms)
 Number     Number       Type             X           Y           Z
 ---------------------------------------------------------------------
      1          6           0       -1.822063   -0.107744    0.038340
      2          6           0       -0.594487    0.448324   -0.013722
      3          6           0        0.562324   -0.402114   -0.049663
      4          6           0        1.817350    0.090402    0.009750
      5          1           0       -2.741858    0.433434    0.006079
      6          1           0       -1.847560   -1.295833    0.159371
      7          1           0       -0.476268    1.552703   -0.248450
      8          1           0        0.403934   -1.422910   -0.134919
      9          1           0        2.171964    1.142346    0.298380
     10          1           0        2.711043   -0.582945    0.011310
 ---------------------------------------------------------------------

 SCF Done:  E(RB2PLYPD3) =  -155.677899764     A.U. after   11 cycles
 E2(B2PLYPD3) =    -0.2280422959D+00 E(B2PLYPD3) =    -0.15590594205968D+03

 The electronic state is 1-A.
 Alpha  occ. eigenvalues --  -10.63160 -10.62772 -10.62668 -10.62438  -0.93183
 Alpha  occ. eigenvalues --   -0.83980  -0.69570  -0.63798  -0.54950  -0.52448
 Alpha  occ. eigenvalues --   -0.46896  -0.43558  -0.41007  -0.37987  -0.27342
 Alpha virt. eigenvalues --    0.01333   0.06945   0.07111   0.07697   0.08975
 Alpha virt. eigenvalues --    0.11424   0.12316   0.14497   0.15337   0.16379
 Alpha virt. eigenvalues --    0.18576   0.19997   0.21464   0.22285   0.23638

 Mulliken charges:
               1
     1  C   -0.175566
     2  C   -0.029091
     3  C   -0.039982
     4  C   -0.168284
     5  H    0.093626
     6  H    0.047519
     7  H    0.067427
     8  H    0.072272
     9  H    0.066598
    10  H    0.065482
 Sum of Mulliken charges =   0.00000

 Dipole moment (field-independent basis, Debye):
    X=             -0.0498    Y=              0.0172    Z=              0.0234  Tot=              0.0576
 Quadrupole moment (field-independent basis, Debye-Ang):
   XX=            -23.7025   YY=            -23.3176   ZZ=            -29.3760
   XY=              0.1174   XZ=              0.5319   YZ=             -0.0120

 1\1\GINC-NODE34\SP\RB2PLYPD3-FC\def2QZVP\C4H6\BOITTIER\26-Aug-2020\0\\
 #p B2PLYPD3/Def2QZVP\\butadiene\\0,1\C,0,-3.816654,0.235381,-0.013034\
 C,0,-2.715475,-0.540092,0.057051\C,0,-1.418761,0.077385,0.056567\C,0,-
 0.279777,-0.645101,0.012713\H,0,-4.821612,-0.120804,0.042895\H,0,-3.61
 8913,1.401507,-0.180077\H,0,-2.805222,-1.637302,0.334183\H,0,-1.380966
 ,1.112198,0.102541\H,0,-0.13282,-1.755178,-0.235837\H,0,0.724781,-0.15
 3137,-0.0176\\Version=ES64L-G09RevD.01\State=1-A\HF=-155.6778998\MP2=-
 155.9059421\RMSD=6.383e-09\PG=C01 [X(C4H6)]\\@

 Normal termination of Gaussian 09 at Wed Aug 26 14:43:12 2020.
